 Title = "Wing and Wake"
 VARIABLES = "X" "Y" "Z" "GAM"
 Zone I=    9 J=   15 K=1  T="Blade"
 DATAPACKING=BLOCK
 VARLOCATION=([4]=CELLCENTERED)
  -1.51107755081801       -1.51197918588765       -1.51435670218750     
  -1.51803794802943       -1.52242687638407       -1.52632443946731     
  -1.52898658866199       -1.53048079389831       -1.53122512442323     
  -1.50203749696981       -1.50314248152259       -1.50605562261629     
  -1.51074948122638       -1.51659887985224       -1.52201752338074     
  -1.52582825886582       -1.52800327140589       -1.52909575804681     
  -1.49355772206414       -1.49480610371085       -1.49809662536106     
  -1.50357522127876       -1.51063682338545       -1.51737676870803     
  -1.52220988976452       -1.52499823967818       -1.52640618113190     
  -1.48556270037951       -1.48692750994194       -1.49052455932505     
  -1.49664966376586       -1.50471927414686       -1.51256439196075     
  -1.51825517047223       -1.52155875384986       -1.52323178259191     
  -1.47849130257186       -1.47994557087179       -1.48377820119493     
  -1.49034355162857       -1.49904238018845       -1.50753851705002     
  -1.51371915732472       -1.51731263587587       -1.51913376017495     
  -1.47215107959244       -1.47364519085949       -1.47758240897132     
  -1.48435806261350       -1.49337422537142       -1.50221109477729     
  -1.50865343944687       -1.51240309491159       -1.51430456292975     
  -1.46635487887321       -1.46785227906443       -1.47179833028690     
  -1.47861457865029       -1.48771625343670       -1.49666203321732     
  -1.50319487028629       -1.50700071936973       -1.50893141182840     
  -1.46091431760893       -1.46239217219364       -1.46628635238344     
  -1.47303390921625       -1.48206989948847       -1.49097170165444     
  -1.49748132831567       -1.50127655887250       -1.50320255286806     
  -1.45569665143430       -1.45714133486950       -1.46094812364556     
  -1.46756083458730       -1.47643688917545       -1.48519717363273     
  -1.49161048180033       -1.49535168003147       -1.49725079881807     
  -1.45066761577068       -1.45206775777565       -1.45575717894338     
  -1.46217913228309       -1.47081528334516       -1.47935145111238     
  -1.48560642107338       -1.48925693896661       -1.49111048266111     
  -1.44582451107470       -1.44716864739947       -1.45071025491795     
  -1.45688563291397       -1.46520304023907       -1.47343437172010     
  -1.47947039330046       -1.48299452253619       -1.48478416713248     
  -1.44117780213646       -1.44245343486917       -1.44581480934299     
  -1.45168412945242       -1.45959944230508       -1.46744089531775     
  -1.47319444529630       -1.47655478610823       -1.47826145584610     
  -1.43674853807067       -1.43794157182202       -1.44108521951560     
  -1.44658148165457       -1.45400223428092       -1.46136040337872     
  -1.46676241434783       -1.46991818407621       -1.47152129968728     
  -1.43257405887639       -1.43366833093329       -1.43655158980165     
  -1.44159717535970       -1.44841520913907       -1.45518005631611     
  -1.46014839914073       -1.46305157949265       -1.46452642706097     
  -1.42864865799386       -1.42962791167398       -1.43220840157993     
  -1.43672691354698       -1.44283623115175       -1.44890081938778     
  -1.45335599607219       -1.45595969638586       -1.45728240771888     
  0.313061980838608       0.312733812511088       0.311868467346459     
  0.310528603434981       0.308931164153563       0.307512567205092     
  0.306543624139049       0.305999777909147       0.305728863753619     
  0.298975758179866       0.298573576693328       0.297513280047005     
  0.295804855229079       0.293675848240905       0.291703623286432     
  0.290316628999203       0.289524989175460       0.289127356556832     
  0.284685717080936       0.284231343320528       0.283033691384645     
  0.281039645545026       0.278469432571963       0.276016293093959     
  0.274257180890792       0.273242304519502       0.272729855738757     
  0.270219133820800       0.269722383764635       0.268413164857999     
  0.266183809159773       0.263246711178963       0.260391321810394     
  0.258320047822416       0.257117641806539       0.256508709143362     
  0.255416378961793       0.254887068587981       0.253492105231412     
  0.251102513096038       0.247936398427259       0.244844057503395     
  0.242594488414699       0.241286569184608       0.240623734146844     
  0.240347498229261       0.239803686201372       0.238370656002853     
  0.235904519759402       0.232622904888224       0.229406547460387     
  0.227061725761776       0.225696962783863       0.225004885023843     
  0.225080716005021       0.224535706906630       0.223099461718764     
  0.220618550205121       0.217305811500900       0.214049813938453     
  0.211672055700039       0.210286839917555       0.209584125331078     
  0.209684385187270       0.209146490107861       0.207729124431906     
  0.205273214590742       0.201984383094537       0.198744392074798     
  0.196375081733922       0.194993730779059       0.194292726293300     
  0.194206927191523       0.193681105423174       0.192295547620549     
  0.189888717669950       0.186658098002138       0.183469615215986     
  0.181135361939803       0.179773677143178       0.179082454433516     
  0.178660919722270       0.178151309708716       0.176808470221990     
  0.174471070360489       0.171327768435269       0.168220857453297     
  0.165944234571265       0.164615554718475       0.163940919985763     
  0.163047132497393       0.162557906884379       0.161268867166200     
  0.159021213390309       0.155993924697702       0.152997965050228     
  0.150801032861587       0.149518354718075       0.148866977355111     
  0.147361863062559       0.146897570717998       0.145674130463307     
  0.143537872648094       0.140656934374819       0.137802878884810     
  0.135708757951257       0.134485693918721       0.133864516934413     
  0.131597450166564       0.131163221392598       0.130019027205115     
  0.128018551386805       0.125317618314960       0.122639463784663     
  0.120673292586728       0.119524686339395       0.118941199974883     
  0.115740409578971       0.115342127122068       0.114292706716302     
  0.112456263758727       0.109974702406817       0.107512499395015     
  0.105704170493222       0.104647499260415       0.104110698645468     
  9.979260548212160E-002  9.943618629076184E-002  9.849696477517644E-002
  9.685236091599408E-002  9.462875115617675E-002  9.242142155518163E-002
  9.079986985366190E-002  8.985220044053399E-002  8.937077288678896E-002
  5.806800000000000E-003  5.846700000000000E-003  5.955500000000000E-003
  5.154700000000000E-003  2.862200000000000E-003 -3.575000000000000E-004
 -3.136400000000000E-003 -4.887000000000000E-003 -5.806800000000000E-003
  6.395100000000000E-003  6.417400000000000E-003  6.480000000000000E-003
  5.547100000000000E-003  3.013300000000000E-003 -4.950000000000000E-004
 -3.507400000000000E-003 -5.401000000000000E-003 -6.395100000000000E-003
  6.406000000000000E-003  6.371700000000000E-003  6.284800000000000E-003
  5.216700000000000E-003  2.654400000000000E-003 -7.614000000000000E-004
 -3.653000000000000E-003 -5.459900000000000E-003 -6.406000000000000E-003
  6.173600000000000E-003  6.070000000000000E-003  5.799600000000000E-003
  4.603500000000000E-003  2.104300000000000E-003 -1.064900000000000E-003
 -3.694600000000000E-003 -5.323700000000000E-003 -6.173600000000000E-003
  5.700500000000000E-003  5.636900000000000E-003  5.472000000000000E-003
  4.443200000000000E-003  2.149100000000000E-003 -8.329000000000000E-004
 -3.332400000000000E-003 -4.887600000000000E-003 -5.700500000000000E-003
  5.159100000000000E-003  5.126700000000000E-003  5.043900000000000E-003
  4.172200000000000E-003  2.106600000000000E-003 -6.360000000000000E-004
 -2.954000000000000E-003 -4.401400000000000E-003 -5.159100000000000E-003
  4.585800000000000E-003  4.577700000000000E-003  4.559000000000000E-003
  3.833200000000000E-003  2.006000000000000E-003 -4.679000000000000E-004
 -2.574500000000000E-003 -3.894100000000000E-003 -4.585800000000000E-003
  4.030700000000000E-003  4.040600000000000E-003  4.069300000000000E-003
  3.471600000000000E-003  1.872800000000000E-003 -3.313000000000000E-004
 -2.220800000000000E-003 -3.407700000000000E-003 -4.030700000000000E-003
  3.545600000000000E-003  3.566200000000000E-003  3.623000000000000E-003
  3.125500000000000E-003  1.724200000000000E-003 -2.354000000000000E-004
 -1.924000000000000E-003 -2.987100000000000E-003 -3.545600000000000E-003
  3.123600000000000E-003  3.149200000000000E-003  3.218600000000000E-003
  2.797600000000000E-003  1.566100000000000E-003 -1.730000000000000E-004
 -1.677000000000000E-003 -2.625200000000000E-003 -3.123600000000000E-003
  2.748800000000000E-003  2.774900000000000E-003  2.845700000000000E-003
  2.483700000000000E-003  1.401600000000000E-003 -1.351000000000000E-004
 -1.466800000000000E-003 -2.307000000000000E-003 -2.748800000000000E-003
  2.414800000000000E-003  2.438000000000000E-003  2.500800000000000E-003
  2.183400000000000E-003  1.232800000000000E-003 -1.176000000000000E-004
 -1.288000000000000E-003 -2.026500000000000E-003 -2.414800000000000E-003
  2.085400000000000E-003  2.104900000000000E-003  2.157700000000000E-003
  1.882300000000000E-003  1.061200000000000E-003 -1.041000000000000E-004
 -1.113600000000000E-003 -1.750500000000000E-003 -2.085400000000000E-003
  1.829100000000000E-003  1.839700000000000E-003  1.868800000000000E-003
  1.612000000000000E-003  8.891000000000000E-004 -1.217000000000000E-004
 -9.927000000000000E-004 -1.541000000000000E-003 -1.829100000000000E-003
  1.626300000000000E-003  1.624800000000000E-003  1.622000000000000E-003
  1.367900000000000E-003  7.205000000000000E-004 -1.593000000000000E-004
 -9.095000000000000E-004 -1.379700000000000E-003 -1.626300000000000E-003
  2.941401126189276E-002  7.578455826168853E-002  0.171037463547659     
  0.299951858753223       0.416120749131709       0.488465112471756     
  0.520587070424385       0.529691820343548       4.921326391266303E-002
  0.120741354158056       0.256223923416238       0.433162211835376     
  0.589528470756111       0.682775548819888       0.722440110189967     
  0.733740428726636       6.461623947023060E-002  0.152873636006448     
  0.308782882906578       0.505806606965223       0.677666880144799     
  0.779097464447961       0.821849758021168       0.834171901855054     
  7.057177618975327E-002  0.165405689982336       0.332393569773924     
  0.545184887585755       0.732229396424116       0.842082095953524     
  0.887788150960813       0.900947233271107       6.646564406002767E-002
  0.159748820565032       0.335955704901496       0.566470304338308     
  0.771601196139042       0.892864292932807       0.943656478201835     
  0.958432806025835       6.083921348743627E-002  0.150321953040889     
  0.331250698333270       0.574353420771273       0.793662126375315     
  0.923967000975259       0.978577162677570       0.994497065219444     
  5.445684105544722E-002  0.138866165039827       0.321099397639324     
  0.571932464990786       0.800751958649471       0.936968274823659     
  0.993889798149045        1.01046490586542       4.851308923649150E-002
  0.127951847989683       0.309686198862327       0.564731747474741     
  0.798911337029938       0.937971139984053       0.995725547976760     
   1.01247997698237       4.502297212642256E-002  0.121672632156151     
  0.303038210885983       0.560225703467810       0.796533379063105     
  0.936030703747449       0.993514734741805        1.01010537468170     
  4.615795835628646E-002  0.124364176967973       0.307468815879096     
  0.566261441897324       0.802915483019963       0.941707895634934     
  0.998472292751313        1.01478339073078       5.435718243221601E-002
  0.140854920154589       0.329895919829710       0.591827768433095     
  0.829607879870994       0.968952021917525        1.02598783671926     
   1.04241628019235       7.126513848662189E-002  0.174148762622206     
  0.373734679941165       0.639847401932079       0.879042332072963     
   1.02039074924106        1.07924260578578        1.09645678626613     
  9.154880398246903E-002  0.212169018332929       0.417560947967020     
  0.677132981987610       0.908271207338746        1.04876039253860     
   1.10994099728379        1.12842164126686       9.169450311246628E-002
  0.204592052439357       0.380172194346116       0.589375647168631     
  0.776218423456882       0.901448747821422       0.964036602075031     
  0.984507725745882     
 Zone I=  361 J=   15 K=1  T="NearWake"
 DATAPACKING=BLOCK
 VARLOCATION=([4]=CELLCENTERED)
  -1.53199333249481       -1.53591089673765       -1.53877139438998     
  -1.54191158496996       -1.54512864544696       -1.54832923474571     
  -1.55144141685755       -1.55439049750232       -1.55711120748653     
  -1.55953937288960       -1.56161780246901       -1.56329424254299     
  -1.56452850804419       -1.56527215564894       -1.56548613491136     
  -1.56513877862005       -1.56420775577822       -1.56267175662683     
  -1.56051749468804       -1.55774733196924       -1.55437471234860     
  -1.55042826329580       -1.54596630941211       -1.54107116456780     
  -1.53584042300534       -1.53037303640927       -1.52474742225430     
  -1.51900754324332       -1.51315239248630       -1.50713333675578     
  -1.50087387201492       -1.49428094102429       -1.48728611117513     
  -1.47985608038243       -1.47201276473295       -1.46383759522188     
  -1.45545814692469       -1.44702356598407       -1.43867467640244     
  -1.43052005698186       -1.42260946301437       -1.41496508238419     
  -1.40729590889479       -1.39980944491307       -1.39229231635796     
  -1.38468949355090       -1.37699603346863       -1.36926349410848     
  -1.36158173450064       -1.35404329581741       -1.34670531628309     
  -1.33957035647487       -1.33259718286799       -1.32572341370205     
  -1.31887294355082       -1.31195542038836       -1.30489116652106     
  -1.29767174964595       -1.29042600833406       -1.28344355693259     
  -1.27709929311746       -1.27169452927582       -1.26736959385580     
  -1.26414227537332       -1.26194426607804       -1.26063626384832     
  -1.26007395852308       -1.26015930510878       -1.26082878340793     
  -1.26202566795460       -1.26369344497107       -1.26578872879241     
  -1.26829619486821       -1.27122915110837       -1.27461626930195     
  -1.27848962529647       -1.28288070892968       -1.28780892010699     
  -1.29325327313005       -1.29911439170832       -1.30518275840555     
  -1.31113962483392       -1.31661459923737       -1.32129257321037     
  -1.32499842706291       -1.32769253728765       -1.32940706942291     
  -1.33020423687050       -1.33017292668492       -1.32943065303971     
  -1.32810488193522       -1.32617656233366       -1.32310907933002     
  -1.31780204414189       -1.30917324744175       -1.29800634371396     
  -1.28697909842037       -1.27711744179178       -1.26826868292148     
  -1.26031675255804       -1.25335529390903       -1.24728615887966     
  -1.24153853031486       -1.23539325124541       -1.22846895272532     
  -1.22096690718191       -1.21363632464586       -1.20718503342981     
  -1.20159664046203       -1.19648566468589       -1.19159576718053     
  -1.18680510673675       -1.18203405567216       -1.17721110092684     
  -1.17227516975524       -1.16719348494419       -1.16197477024168     
  -1.15665943630219       -1.15130407296015       -1.14598069303408     
  -1.14077738918976       -1.13578001954841       -1.13103199586619     
  -1.12650348286498       -1.12208214179924       -1.11757327448154     
  -1.11267296256742       -1.10684275613554       -1.09909538145848     
  -1.08839093983099       -1.07513983417749       -1.06118543185381     
  -1.04799067204916       -1.03509856654693       -1.02819592893962     
  -1.02608165783095       -1.02233053389126       -1.01794067508286     
  -1.01332939075332       -1.00915127826009       -1.00608571884820     
  -1.00437918444914       -1.00397881780441       -1.00472423717414     
  -1.00644328103499       -1.00901383614437       -1.01241316774131     
  -1.01672031744677       -1.02204856566269       -1.02853613662649     
  -1.03641184541450       -1.04602991496914       -1.05763300646569     
  -1.07083433755746       -1.08352807815830       -1.09237884210794     
  -1.09667716599757       -1.09792050381574       -1.09798940697732     
  -1.09982805466316       -1.10459812760347       -1.10991566245322     
  -1.11269681392357       -1.11188016671205       -1.10816625999055     
  -1.10062311399710       -1.08776746434124       -1.07175425313744     
  -1.05562784551716       -1.03737326072444       -1.01721393610172     
 -0.997454093784918      -0.981747304190656      -0.970634626045061     
 -0.962164244711027      -0.954229470256333      -0.945045176082445     
 -0.933984563083986      -0.923838421060500      -0.918578315482375     
 -0.917108521243414      -0.916747598914146      -0.916567108575310     
 -0.916460320425415      -0.916430425387734      -0.916476033477260     
 -0.916660166625339      -0.917141098647074      -0.918097597303088     
 -0.919511209984248      -0.920981363831408      -0.921918382420612     
 -0.921944305542682      -0.921048426645313      -0.919499640669276     
 -0.917650801700783      -0.915691308574414      -0.913477562805447     
 -0.910746207769947      -0.907676707446553      -0.904269716170823     
 -0.899270032197224      -0.891304759867461      -0.875850931145774     
 -0.859505184110934      -0.847495146956245      -0.838221111293292     
 -0.840118113557413      -0.838371913088801      -0.822521762267404     
 -0.807747084822507      -0.793152315958634      -0.779690874699055     
 -0.769189844665007      -0.762120725540079      -0.758273025378206     
 -0.757405777466641      -0.758906141880786      -0.762310936421406     
 -0.767434195459451      -0.774463803626891      -0.783784387429433     
 -0.796277505183980      -0.813256331124103      -0.836411828169376     
 -0.862725074381521      -0.878866902103130      -0.875734222885820     
 -0.865465618585230      -0.863989271948389      -0.871948744096569     
 -0.884138017694254      -0.897203310230372      -0.908645784868856     
 -0.916444414569814      -0.918853310533692      -0.915632599637332     
 -0.905745570921456      -0.887175552239432      -0.863106080244530     
 -0.851485911981779      -0.845540168765211      -0.840043802814745     
 -0.831447306426682      -0.814047242398713      -0.791707975749414     
 -0.776580377056065      -0.769945245448528      -0.768784946572453     
 -0.766375455304010      -0.752732163560619      -0.724322180704046     
 -0.702861074625149      -0.695396130689343      -0.710223342353494     
 -0.727235873599470      -0.745526446325528      -0.764817481765987     
 -0.789114642182401      -0.818062670582929      -0.838392272970404     
 -0.844882805332535      -0.845040806081723      -0.841875775034936     
 -0.837348693525892      -0.832984539634841      -0.830070666218027     
 -0.830170726156852      -0.835134832167884      -0.846173641426921     
 -0.862765042348907      -0.863814727345272      -0.859506662184317     
 -0.853407621654269      -0.819426967125079      -0.793523546341440     
 -0.761930970548910      -0.740505671312762      -0.715474738063030     
 -0.687326150756239      -0.696963616397769      -0.694289576885882     
 -0.626672613211598      -0.588485979762068      -0.579101149121968     
 -0.578664776401213      -0.577877650055880      -0.580460769551673     
 -0.587880275845215      -0.598301116666197      -0.610045700260272     
 -0.622571703710581      -0.635372265391552      -0.650245031719386     
 -0.671120726949180      -0.687374696860741      -0.701466396042450     
 -0.709606823402702      -0.720199963122886      -0.736553296756078     
 -0.786747816462404      -0.792225239931599      -0.786664129762877     
 -0.799794459922190      -0.824475867289437      -0.848381921956266     
 -0.864827738099940      -0.871191933148175      -0.862623949345023     
 -0.797477910663264      -0.770754629014632      -0.766706335215093     
 -0.755070264075615      -0.721411420294449      -0.670428941758835     
 -0.649353802466645      -0.641224302951433      -0.628977854441586     
 -0.620663810307041      -0.614425889657282      -0.599856342503256     
 -0.547829477080338      -0.541715194374291      -0.610533146186241     
 -0.597919325303737      -0.569522339279185      -0.519755167063633     
 -0.502198442470382      -0.481584882847027      -0.456656263946013     
 -0.473816890649901      -0.622799570030246      -0.520789954937974     
 -0.440302460709158      -0.529322890529915      -0.606392247002062     
 -0.531951097431486      -0.595004705846959      -0.607445524288028     
 -0.587034253221792      -0.470363394680130      -0.567517258459710     
 -0.566318736114300      -0.658912744209134      -0.663760662461149     
 -0.566146102347398      -0.450088597320949      -0.401839869675599     
 -0.385537850443827      -0.387645013957500      -0.394727070456016     
 -0.417415894913166      -0.444954459694978      -0.469042366493056     
 -0.475867654735651      -0.464880534535395      -0.447308091035160     
 -0.429147828846744      -0.405900434147528      -0.387864391538452     
 -0.375950095843652       -1.52986396611839       -1.53523654993363     
  -1.53933348372181       -1.54360135798717       -1.54790931540813     
  -1.55218592763000       -1.55636520971480       -1.56037493969655     
  -1.56414746595634       -1.56761626137783       -1.57071426887454     
  -1.57337766644466       -1.57554913158373       -1.57716922040306     
  -1.57818290687923       -1.57854075376015       -1.57820503854123     
  -1.57714441700173       -1.57533702622122       -1.57277247873591     
  -1.56945090689038       -1.56538698849708       -1.56062492463655     
  -1.55524434868942       -1.54935443182431       -1.54307600000068     
  -1.53651663457959       -1.52975309917524       -1.52281831969999     
  -1.51569657874315       -1.50833638109266       -1.50065014297209     
  -1.49255259893161       -1.48398752969600       -1.47496243530183     
  -1.46556455382696       -1.45594359181820       -1.44627917626324     
  -1.43675318212584       -1.42751585949164       -1.41863099032409     
  -1.41016555265659       -1.40191973253054       -1.39400770122867     
  -1.38618815966796       -1.37838764381953       -1.37057153042589     
  -1.36274559566657       -1.35494346847188       -1.34720544712136     
  -1.33955584082605       -1.33199094840168       -1.32449330138556     
  -1.31704951149193       -1.30962113403032       -1.30210743189212     
  -1.29441865522400       -1.28663635760503       -1.27910701189658     
  -1.27238105059644       -1.26697054707569       -1.26309743385241     
  -1.26063254602219       -1.25921883050673       -1.25849230565758     
  -1.25824172030420       -1.25841592948862       -1.25906133929096     
  -1.26024293034630       -1.26196978071692       -1.26417550409399     
  -1.26675998787465       -1.26964399262331       -1.27279976543661     
  -1.27625166775570       -1.28005483688603       -1.28425872717423     
  -1.28886321474262       -1.29379194900949       -1.29890451460036     
  -1.30402497902552       -1.30894458499562       -1.31341177032434     
  -1.31715160395474       -1.31991104985210       -1.32151760997178     
  -1.32195341014559       -1.32139245214463       -1.32010904475816     
  -1.31833044403483       -1.31621165387523       -1.31385549097572     
  -1.31105400180855       -1.30686364129906       -1.29942554591962     
  -1.28784966496565       -1.27476053125220       -1.26250749154915     
  -1.25285881883829       -1.24629378257056       -1.24169359681336     
  -1.23733455772847       -1.23194128815322       -1.22524949130396     
  -1.21770381777735       -1.20991835731206       -1.20252958430424     
  -1.19574706558583       -1.18933575254159       -1.18308751055884     
  -1.17692062918601       -1.17078421343405       -1.16464027522253     
  -1.15849778126028       -1.15242418141973       -1.14652338513689     
  -1.14090991906729       -1.13568806320009       -1.13092537491238     
  -1.12662473638580       -1.12272625247626       -1.11916384546940     
  -1.11590596416428       -1.11292900382855       -1.11010400124231     
  -1.10708115937984       -1.10339913666056       -1.09886133861709     
  -1.09302067506384       -1.08360140173671       -1.06985114472950     
  -1.05362197704862       -1.03835406753867       -1.03247798171508     
  -1.03415116347971       -1.03261961460278       -1.02868504851264     
  -1.02357779112112       -1.01824800938886       -1.01385786593826     
  -1.01126645487499       -1.01056282932086       -1.01118881025792     
  -1.01283863543464       -1.01526894842852       -1.01821455874791     
  -1.02161408241341       -1.02550892669675       -1.02994248509668     
  -1.03489338032786       -1.04021868095925       -1.04578440867956     
  -1.05175090046319       -1.05852055918065       -1.06624522979496     
  -1.07441185669700       -1.08197107693442       -1.08743069988547     
  -1.08985884370156       -1.08975694260855       -1.08840645863550     
  -1.08720596456336       -1.08695003661148       -1.08556350668035     
  -1.08156625928393       -1.07803286248400       -1.07396876944387     
  -1.05987872036151       -1.03333456765772       -1.00107309538835     
 -0.980161158893941      -0.968841131236294      -0.960597259068142     
 -0.952700663091875      -0.944795105546525      -0.936897991789530     
 -0.928350317924792      -0.920173959457152      -0.915173696907623     
 -0.913658482943464      -0.913885171828226      -0.914232306591388     
 -0.913890798026454      -0.912652926363502      -0.910605617589420     
 -0.907942227595477      -0.904880423017577      -0.901645955692189     
 -0.898460371993252      -0.895527047757761      -0.893022889859117     
 -0.891094432289106      -0.889873271217962      -0.889538859038260     
 -0.890357103059757      -0.892440181935632      -0.895250951611194     
 -0.897204666095942      -0.896026634641026      -0.891152891721657     
 -0.888574565728953      -0.889081331686593      -0.882974999753366     
 -0.869576573022408      -0.851282019903325      -0.832352308279733     
 -0.833362761866674      -0.839218459836343      -0.828784142890353     
 -0.814301080132851      -0.798918558686108      -0.782657973732740     
 -0.769150351740315      -0.761083203754562      -0.758444747818910     
 -0.758714263145682      -0.760621976219213      -0.763536465898139     
 -0.767287708473905      -0.771888513174415      -0.777316823853595     
 -0.783429869681603      -0.789905173147561      -0.796884764424674     
 -0.806043342805922      -0.819360755247605      -0.838830940932267     
 -0.861081283466711      -0.876956802834581      -0.877423750837907     
 -0.868718612406363      -0.864456641440757      -0.866722437601539     
 -0.871696611414110      -0.877122717893392      -0.879564319431704     
 -0.878708361175750      -0.881021723440527      -0.879044582419569     
 -0.862623449409162      -0.841537554608474      -0.807852133662049     
 -0.784263481542069      -0.781115655729829      -0.782058315591632     
 -0.782593691303777      -0.781679489184218      -0.777673320252101     
 -0.768587671704886      -0.748313044819924      -0.713525877522338     
 -0.697923452631972      -0.687646658205321      -0.692078201754931     
 -0.703439576259100      -0.714382974331329      -0.724699831615806     
 -0.732840070477722      -0.738067300163033      -0.740721524566350     
 -0.742797387898908      -0.745044230501945      -0.747529909319763     
 -0.750077516258913      -0.752437652303158      -0.754512545898705     
 -0.756600097151573      -0.759348562901543      -0.763695197305421     
 -0.771195605604188      -0.788283105663310      -0.842260317850469     
 -0.873409582928711      -0.875747662895186      -0.863642075497795     
 -0.813433234169224      -0.766914143041771      -0.732096637186646     
 -0.694069571805110      -0.689697198075133      -0.683203790422290     
 -0.610003080265648      -0.577074964818535      -0.576016858755310     
 -0.576146502764981      -0.576393812298831      -0.579462276298511     
 -0.584666636874582      -0.591278499081179      -0.598371147871422     
 -0.605619110774690      -0.613051407373560      -0.620841966906609     
 -0.629225018071811      -0.637485521344315      -0.644655706817370     
 -0.652375814074138      -0.667307855226603      -0.681708358277876     
 -0.693794139287188      -0.713883279897151      -0.734933247849526     
 -0.789766448739635      -0.818505231296110      -0.834587836149357     
 -0.848098664023974      -0.862278794622361      -0.880448226411098     
 -0.864908802479518      -0.834934595581886      -0.770251141530802     
 -0.693781957738063      -0.633695052280390      -0.609166305352314     
 -0.602577900023812      -0.587894049332739      -0.545438624183015     
 -0.523600373606812      -0.535237160005672      -0.569588701447055     
 -0.619334520450457      -0.597097540359411      -0.615630724547563     
 -0.572124804014279      -0.539771638262487      -0.522841345021185     
 -0.510852765052674      -0.493159099882498      -0.463980479880892     
 -0.459117447533370      -0.539446898712052      -0.606892786721336     
 -0.543125475484074      -0.420335774166209      -0.408490293661349     
 -0.517145165703774      -0.601149399829027      -0.560944343568831     
 -0.594144541524208      -0.610640440891775      -0.587305154870629     
 -0.490894398665534      -0.487593353832478      -0.628821760146949     