 Title = "Wing and Wake"
 VARIABLES = "X" "Y" "Z" "GAM"
 Zone I=    9 J=   15 K=1  T="Blade"
 DATAPACKING=BLOCK
 VARLOCATION=([4]=CELLCENTERED)
 -0.770471507750055      -0.771206527393228      -0.773144696438763     
 -0.776145675544682      -0.779723562720713      -0.782900885257438     
 -0.785071089164794      -0.786289176433797      -0.786895960237192     
 -0.778150507491790      -0.779051299152454      -0.781426113530567     
 -0.785252582128390      -0.790021055577918      -0.794438374254719     
 -0.797544914284899      -0.799318000752942      -0.800208604022513     
 -0.786286158651752      -0.787303848694435      -0.789986306520905     
 -0.794452498833177      -0.800209169614327      -0.805703623382598     
 -0.809643619766893      -0.811916703442959      -0.813064467832084     
 -0.794817076418679      -0.795929679367865      -0.798862020891680     
 -0.803855251780818      -0.810433658436102      -0.816829057073926     
 -0.821468222221454      -0.824161328065683      -0.825525193592212     
 -0.804100939268748      -0.805286469648918      -0.808410858514624     
 -0.813762981225363      -0.820854331239760      -0.827780445467776     
 -0.832818949583502      -0.835748380138433      -0.837232974269198     
 -0.813980861300008      -0.815198871964567      -0.818408521576791     
 -0.823932085033901      -0.831282128256738      -0.838486010199829     
 -0.843737857692964      -0.846794604834342      -0.848344695764993     
 -0.824304182180628      -0.825524874000738      -0.828741724430728     
 -0.834298381007780      -0.841718134274941      -0.849010800768990     
 -0.854336418341997      -0.857438974941073      -0.859012889853906     
 -0.834917515161731      -0.836122273257424      -0.839296838034153     
 -0.844797496762413      -0.852163703523001      -0.859420519137111     
 -0.864727215412373      -0.867821115709243      -0.869391200399859     
 -0.845712553884741      -0.846890270611592      -0.849993593255111     
 -0.855384324605783      -0.862620150602152      -0.869761599923129     
 -0.874989776642972      -0.878039629384361      -0.879587805203904     
 -0.856661273448723      -0.857802679668971      -0.860810323361544     
 -0.866045547690263      -0.873085802540304      -0.880044550261597     
 -0.885143648492774      -0.888119577945403      -0.889630600609455     
 -0.867761657486760      -0.868857407458198      -0.871744552359870     
 -0.876778766626714      -0.883559179201648      -0.890269422105594     
 -0.895190031981524      -0.898062928456553      -0.899521860098473     
 -0.879022144813409      -0.880062050144943      -0.882802267722424     
 -0.887586981314145      -0.894039603471869      -0.900432014536364     
 -0.905122351452693      -0.907861726381286      -0.909253016298880     
 -0.890459894824196      -0.891432464849180      -0.893995189929190     
 -0.898475783876992      -0.904525236844303      -0.910523671251702     
 -0.914927430941860      -0.917500037995187      -0.918806909815148     
 -0.902105255204751      -0.902997313958763      -0.905347768123585     
 -0.909460967156468      -0.915019079217962      -0.920533833163976     
 -0.924584063343635      -0.926950757650651      -0.928153064404126     
 -0.913953758245938      -0.914752053160113      -0.916855687805362     
 -0.920539212510099      -0.925519573852592      -0.930463471479594     
 -0.934095364788866      -0.936217920731859      -0.937296204889994     
  0.315736537422212       0.316353292133706       0.317979609064974     
  0.320497729525921       0.323499933335723       0.326166023504420     
  0.327987040802662       0.329009137380824       0.329518289446457     
  0.300864509808721       0.301620363758951       0.303613069627740     
  0.306823858016886       0.310825082329662       0.314531652802158     
  0.317138349395721       0.318626145597101       0.319373450472123     
  0.286375788772570       0.287229732112039       0.289480581484878     
  0.293228161806872       0.298058582136145       0.302668976266621     
  0.305975025779522       0.307882369453745       0.308845458129339     
  0.272218605259811       0.273152189984120       0.275612716675240     
  0.279802534872698       0.285322473470881       0.290688850109110     
  0.294581571873372       0.296841355993986       0.297985775054271     
  0.258693217688614       0.259687995793365       0.262309669338232     
  0.266800633530829       0.272750982712458       0.278562682606678     
  0.282790489551870       0.285248573650072       0.286494296037644     
  0.245667983156513       0.246690015455915       0.249383231261741     
  0.254018051321385       0.260185469878806       0.266230244560298     
  0.270637067854787       0.273201983253719       0.274502663981920     
  0.233014934976105       0.234039217032140       0.236738475041497     
  0.241401063525880       0.247626975755782       0.253746249521237     
  0.258214973262539       0.260818327360530       0.262138998783393     
  0.220605105301518       0.221616017375272       0.224279793508574     
  0.228895394218690       0.235076375594674       0.241165566899996     
  0.245618413787338       0.248214504385340       0.249531961870154     
  0.208347744847949       0.209335966519082       0.211939963404683     
  0.216463324092808       0.222534903017624       0.228527290508927     
  0.232914251666276       0.235473381976721       0.236772455735897     
  0.196219468472089       0.197177222010522       0.199700934723672     
  0.204093809527031       0.210001284775095       0.215840367421488     
  0.220119018866605       0.222616120172715       0.223884018732822     
  0.184218323159741       0.185137766556636       0.187560368778784     
  0.191784576113361       0.197474017804219       0.203104580150029     
  0.207233462082089       0.209644108454696       0.210868297457344     
  0.172351520457817       0.173224104637967       0.175523420196576     
  0.179538271606679       0.184952664479351       0.190316534245902     
  0.194252194222491       0.196550802714730       0.197718233571443     
  0.160633458808776       0.161449541958033       0.163599923627479     
  0.167359588356535       0.172435682110230       0.177468966209120     
  0.181164159340925       0.183322832970534       0.184419428632660     
  0.149089733485164       0.149838259656644       0.151810524879445     
  0.155261908670896       0.159925718451737       0.164553146453871     
  0.167951693103806       0.169937585423931       0.170946440577335     
  0.137716334552436       0.138386183520489       0.140151342575450     
  0.143242186796628       0.147421206162244       0.151569628837639     
  0.154617149173924       0.156398185082843       0.157302972922238     
  5.806800000000000E-003  5.846700000000000E-003  5.955500000000000E-003
  5.154700000000000E-003  2.862200000000000E-003 -3.575000000000000E-004
 -3.136400000000000E-003 -4.887000000000000E-003 -5.806800000000000E-003
  6.395100000000000E-003  6.417400000000000E-003  6.480000000000000E-003
  5.547100000000000E-003  3.013300000000000E-003 -4.950000000000000E-004
 -3.507400000000000E-003 -5.401000000000000E-003 -6.395100000000000E-003
  6.406000000000000E-003  6.371700000000000E-003  6.284800000000000E-003
  5.216700000000000E-003  2.654400000000000E-003 -7.614000000000000E-004
 -3.653000000000000E-003 -5.459900000000000E-003 -6.406000000000000E-003
  6.173600000000000E-003  6.070000000000000E-003  5.799600000000000E-003
  4.603500000000000E-003  2.104300000000000E-003 -1.064900000000000E-003
 -3.694600000000000E-003 -5.323700000000000E-003 -6.173600000000000E-003
  5.700500000000000E-003  5.636900000000000E-003  5.472000000000000E-003
  4.443200000000000E-003  2.149100000000000E-003 -8.329000000000000E-004
 -3.332400000000000E-003 -4.887600000000000E-003 -5.700500000000000E-003
  5.159100000000000E-003  5.126700000000000E-003  5.043900000000000E-003
  4.172200000000000E-003  2.106600000000000E-003 -6.360000000000000E-004
 -2.954000000000000E-003 -4.401400000000000E-003 -5.159100000000000E-003
  4.585800000000000E-003  4.577700000000000E-003  4.559000000000000E-003
  3.833200000000000E-003  2.006000000000000E-003 -4.679000000000000E-004
 -2.574500000000000E-003 -3.894100000000000E-003 -4.585800000000000E-003
  4.030700000000000E-003  4.040600000000000E-003  4.069300000000000E-003
  3.471600000000000E-003  1.872800000000000E-003 -3.313000000000000E-004
 -2.220800000000000E-003 -3.407700000000000E-003 -4.030700000000000E-003
  3.545600000000000E-003  3.566200000000000E-003  3.623000000000000E-003
  3.125500000000000E-003  1.724200000000000E-003 -2.354000000000000E-004
 -1.924000000000000E-003 -2.987100000000000E-003 -3.545600000000000E-003
  3.123600000000000E-003  3.149200000000000E-003  3.218600000000000E-003
  2.797600000000000E-003  1.566100000000000E-003 -1.730000000000000E-004
 -1.677000000000000E-003 -2.625200000000000E-003 -3.123600000000000E-003
  2.748800000000000E-003  2.774900000000000E-003  2.845700000000000E-003
  2.483700000000000E-003  1.401600000000000E-003 -1.351000000000000E-004
 -1.466800000000000E-003 -2.307000000000000E-003 -2.748800000000000E-003
  2.414800000000000E-003  2.438000000000000E-003  2.500800000000000E-003
  2.183400000000000E-003  1.232800000000000E-003 -1.176000000000000E-004
 -1.288000000000000E-003 -2.026500000000000E-003 -2.414800000000000E-003
  2.085400000000000E-003  2.104900000000000E-003  2.157700000000000E-003
  1.882300000000000E-003  1.061200000000000E-003 -1.041000000000000E-004
 -1.113600000000000E-003 -1.750500000000000E-003 -2.085400000000000E-003
  1.829100000000000E-003  1.839700000000000E-003  1.868800000000000E-003
  1.612000000000000E-003  8.891000000000000E-004 -1.217000000000000E-004
 -9.927000000000000E-004 -1.541000000000000E-003 -1.829100000000000E-003
  1.626300000000000E-003  1.624800000000000E-003  1.622000000000000E-003
  1.367900000000000E-003  7.205000000000000E-004 -1.593000000000000E-004
 -9.095000000000000E-004 -1.379700000000000E-003 -1.626300000000000E-003
  5.654922959174920E-002  0.135754420750056       0.274533522450692     
  0.458762833578427       0.630859590112843       0.743237950509407     
  0.794477703579182       0.809173972288003       8.533941248909520E-002
  0.200177800777289       0.392568685342910       0.640092879650705     
  0.864486344508989        1.00229138804638        1.06163839877323     
   1.07861562070030       0.108514129547979       0.248124106643155     
  0.468942652346844       0.742090321288646       0.983036354056469     
   1.12735095578415        1.18841212151496        1.20600440973647     
  0.122233843944610       0.277559528030921       0.519765459693963     
  0.814739179881355        1.06853232423136        1.21519799585910     
   1.27522503384688        1.29230716138966       0.124105877668533     
  0.284261360513844       0.542320196604128       0.859539469894564     
   1.13188901851383        1.28815605128866        1.35169078678305     
   1.36976576571553       0.126552835409787       0.291951741557062     
  0.564942418703120       0.904380210809610        1.19762103833579     
   1.36634552252555        1.43485272351397        1.45433392192802     
  0.136264087008437       0.314377005897048       0.607712954694503     
  0.972683291494083        1.28869099896606        1.47135488955272     
   1.54602643856669        1.56745248455930       0.157960378663323     
  0.359659837794235       0.678491009003539        1.06688193311814     
   1.39930144239399        1.59067489098814        1.66936901820288     
   1.69220044488847       0.183081403882458       0.410010161767982     
  0.750365735990549        1.15257213756820        1.49070416013662     
   1.68377500124147        1.76318640395189        1.78632640009049     
  0.199251421525575       0.441488110467419       0.791707999564634     
   1.19535196279406        1.52938917839051        1.71907509610943     
   1.79718178696547        1.82000028427753       0.202686139845307     
  0.446243202671492       0.790788012416708        1.18141744751575     
   1.50112823798206        1.68179191204365        1.75608402964976     
   1.77776613276721       0.191368505678486       0.420451719063767     
  0.742683894262422        1.10623406197148        1.40355755676340     
   1.57230936019044        1.64206994297286        1.66246546881226     
  0.167215989166409       0.367342470651875       0.650330935785097     
  0.970682962576184        1.23630572507130        1.39167430777052     
   1.45815487538432        1.47800480217137       0.124110875404940     
  0.271466657776666       0.482240040588462       0.719702443998906     
  0.922171140123456        1.05339487097539        1.11772022177799     
   1.13852479443429     
 Zone I=  101 J=   15 K=1  T="NearWake"
 DATAPACKING=BLOCK
 VARLOCATION=([4]=CELLCENTERED)
 -0.787522209194960      -0.789018285339372      -0.790188483503665     
 -0.790374757818048      -0.789900078875209      -0.788822925214563     
 -0.787162183211114      -0.784930426883403      -0.782139023821804     
 -0.778800302392467      -0.774930633944945      -0.770553428942776     
 -0.765700293352416      -0.760408126084012      -0.754711742001990     
 -0.748639068968841      -0.742213031692734      -0.735458836278355     
 -0.728399904048859      -0.721058434968101      -0.713454056456615     
 -0.705606200993716      -0.697530886683033      -0.689239550539309     
 -0.680736806919652      -0.672014797618581      -0.663045235526216     
 -0.653765955254445      -0.644063020158837      -0.633766845821805     
 -0.622726607501672      -0.611083096917798      -0.599952474153225     
 -0.591640898903205      -0.585562056446483      -0.578672169286412     
 -0.571204052556034      -0.562844633979207      -0.554099980516862     
 -0.542585351220694      -0.534949698525813      -0.530260962118553     
 -0.526376753991717      -0.523150092987723      -0.520506758291364     
 -0.518528431015480      -0.517196060383029      -0.515469540209114     
 -0.514143928681938      -0.513465858336031      -0.513281579632243     
 -0.513671554971520      -0.514745356353889      -0.516343573002086     
 -0.518149827443398      -0.520372386088736      -0.523406424134387     
 -0.527145208602748      -0.531356349929407      -0.536058084427805     
 -0.541327540178952      -0.547131489803168      -0.553222206503810     
 -0.559253902260865      -0.565171595378713      -0.571011831051775     
 -0.576588825035200      -0.581674408106072      -0.586077011437082     
 -0.589615555748187      -0.592287543266364      -0.594104453024902     
 -0.595069178923478      -0.595356509364530      -0.595155854708604     
 -0.594570607676647      -0.593582198341208      -0.592073906253623     
 -0.589952356894529      -0.587201599826951      -0.583855054592417     
 -0.580048501362962      -0.576062327660379      -0.572190371622049     
 -0.579670987774964      -0.571912551993886      -0.579650214947401     
 -0.592026664163426      -0.598683708873866      -0.591721437241411     
 -0.587280219881236      -0.583586958620927      -0.580202105875265     
 -0.576715311197164      -0.572733740080634      -0.567244400382840     
 -0.559527153243026      -0.549946031297386      -0.539734536321648     
 -0.531055516889098      -0.522343381146153      -0.800834852980280     
 -0.803164451471755      -0.804136665187509      -0.804518809407279     
 -0.804310800895657      -0.803459196655446      -0.801931735904601     
 -0.799719436320784      -0.796828068487759      -0.793269809386448     
 -0.789058979334820      -0.784216355863885      -0.778782657396361     
 -0.772822213279549      -0.766403503716212      -0.759577418374108     
 -0.752373746917076      -0.744816161827461      -0.736925696972462     
 -0.728722801266912      -0.720223863055040      -0.711446695225130     
 -0.702410392176605      -0.693136544941340      -0.683647005881277     
 -0.673956879624059      -0.664066181991703      -0.653946060922671     
 -0.643525707710647      -0.632712342334416      -0.621472774956738     
 -0.609877546685148      -0.598752457237492      -0.591706466643268     
 -0.587187592315355      -0.580299685856668      -0.569845570583271     
 -0.558394853361799      -0.548459921611912      -0.540679725355749     
 -0.534395078947545      -0.529979539526478      -0.530420306449683     
 -0.526539360801001      -0.524449435445298      -0.520087264901525     
 -0.521012843425909      -0.519557930568682      -0.518423871426162     
 -0.518816194022693      -0.518154972337227      -0.519176138058158     
 -0.519787890454655      -0.510581581813370      -0.520966178537278     
 -0.521759598775922      -0.517793827453494      -0.530193864216674     
 -0.532111657645413      -0.539003657821188      -0.541832625761321     
 -0.534449518706375      -0.554933737842488      -0.557064423978095     
 -0.557759279228144      -0.568629229129229      -0.574642010726271     
 -0.578240921730444      -0.581825392259184      -0.585209140200567     
 -0.587135012712151      -0.587979437730869      -0.588722599247005     
 -0.588568140348761      -0.587991311735353      -0.587140623751267     
 -0.586100400156686      -0.584895163406146      -0.583509767946633     
 -0.581890258528156      -0.579868400040338      -0.577258832219565     
 -0.573805029934595      -0.569216860145311      -0.563413884718659     
 -0.556850324664252      -0.550268303764538      -0.549299215720689     
 -0.567775757545892      -0.585455780605628      -0.585128571326983     
 -0.578824390392361      -0.571974636382165      -0.566094365195271     
 -0.559077814295365      -0.550346076661988      -0.541573202272020     
 -0.535419947366249      -0.530554973063371      -0.521708021572743     
 -0.497036619807108      -0.813690716789852      -0.816888969830517     
 -0.818519592293214      -0.819492069143387      -0.819769417456057     
 -0.819298360604830      -0.818037632923447      -0.815965019470825     
 -0.813074696068523      -0.809371137605957      -0.804864555968801     
 -0.799572936974193      -0.793538498755973      -0.786840455641051     
 -0.779578323115285      -0.771841954961944      -0.763694790760510     
 -0.755182919113023      -0.746341121274440      -0.737194034096693     
 -0.727748277496714      -0.718005890412517      -0.707973493429549     
 -0.697672033237189      -0.687136067949792      -0.676406434565932     
 -0.665527741263766      -0.654543185207215      -0.643482580795993     
 -0.632383454483818      -0.621459752901962      -0.611433912863567     
 -0.603700073368481      -0.596970263549581      -0.588832594919629     
 -0.579604108709277      -0.568920415535241      -0.557384982037433     
 -0.545271019181934      -0.534932445455458      -0.528172861924365     
 -0.523947308372200      -0.520627222053527      -0.517462035244065     
 -0.514215366087375      -0.510877404743697      -0.507659962286825     
 -0.504786310200637      -0.502310684606832      -0.500301365429710     
 -0.498776800167327      -0.497846607835229      -0.497610443002199     
 -0.498287115396507      -0.500049185647657      -0.502942442512055     
 -0.506891946832586      -0.511774624315237      -0.517415364098079     
 -0.523609803365618      -0.530156908379256      -0.536930469839398     
 -0.543819671012309      -0.550642653845777      -0.557254660122817     
 -0.563516360153614      -0.569193392694435      -0.574130365522219     
 -0.578489014682600      -0.582383280819502      -0.585808612613296     
 -0.588837192419189      -0.591401893376800      -0.593385528744178     
 -0.594970219472763      -0.597039607856333      -0.595455367598705     
 -0.579185939443606      -0.577744479158589      -0.576659208438881     
 -0.573926776301382      -0.571089790610145      -0.568361101268145     
 -0.565562412597176      -0.562350222232045      -0.558507223245238     
 -0.554200888511647      -0.550122708880596      -0.547219155356242     
 -0.546230187311712      -0.546580737149418      -0.553080593937206     
 -0.549525124470605      -0.538108486093803      -0.525142979825813     
 -0.514246739222696      -0.504239271569114      -0.491975872947375     
 -0.472735975594430      -0.461841426973087      -0.463037939050341     
 -0.826151442549979      -0.830248762511543      -0.832748520966017     
 -0.834483829490104      -0.835410162416655      -0.835477018474193     
 -0.834642557272654      -0.832877578615667      -0.830163906386308     
 -0.826491435680675      -0.821858119101780      -0.816271606669365     
 -0.809758262086481      -0.802375783163823      -0.794211989225539     
 -0.785374694985295      -0.775989880746998      -0.766199591877438     
 -0.756121524491411      -0.745813363691323      -0.735260776150358     
 -0.724422787565368      -0.713274870667162      -0.701833786154189     
 -0.690147666357597      -0.678285281353240      -0.666350106101566     
 -0.654488896263549      -0.642860579754560      -0.631591270758483     
 -0.620879331779644      -0.611160251856313      -0.602525798367811     
 -0.593946018098601      -0.584336313433319      -0.574171620379540     
 -0.564757807508548      -0.555355540060306      -0.542528935059590     
 -0.526469325756647      -0.513884558597751      -0.505453818734207     
 -0.499671177391687      -0.495514922344067      -0.491831936250523     
 -0.488091377883876      -0.484485070577220      -0.481376077468817     
 -0.478998955013697      -0.477373992190312      -0.476335652553091     
 -0.475903883563873      -0.476410013606976      -0.478181402155217     
 -0.481350847496544      -0.485981856185224      -0.492014208325234     
 -0.499253518429083      -0.507391522878204      -0.516088490513322     
 -0.525065358920287      -0.534130297196007      -0.543159524199893     
 -0.552065014891948      -0.560765441364945      -0.569164676533167     
 -0.577140560180125      -0.584559042775812      -0.591314607821297     
 -0.597368942488317      -0.602748957199760      -0.607491048642581     
 -0.611561173503405      -0.614799702900214      -0.616954258637583     
 -0.617796485700076      -0.617219602681568      -0.615240439906443     
 -0.611972405198808      -0.607633805665790      -0.602564779376847     
 -0.597188303358830      -0.591935975227355      -0.587091167275161     
 -0.582778708659795      -0.579076923335890      -0.575995578465524     
 -0.573269152482439      -0.569774256461014      -0.563960443534899     
 -0.555899420358654      -0.547506524746957      -0.539910678220725     
 -0.531401684660884      -0.519537151895744      -0.502072678593664     
 -0.478519384866507      -0.455015637194275      -0.435442924626671     
 -0.433719138017749      -0.442979325582206      -0.837859223226965     
 -0.842913539937341      -0.846377429747349      -0.848980254904748     
 -0.850671151781849      -0.851396498492775      -0.851113525659580     
 -0.849791833950094      -0.847404582169920      -0.843930885281863     
 -0.839365272416212      -0.833708380939378      -0.826948692091022     
 -0.819083073265441      -0.810161914725519      -0.800280925377420     
 -0.789571684671350      -0.778246641601466      -0.766576171298781     
 -0.754771057019617      -0.742861801005635      -0.730756306891244     
 -0.718375089872291      -0.705724617901591      -0.692857570142430     
 -0.679838648443115      -0.666781248707568      -0.653870603448794     
 -0.641320799957011      -0.629297603960040      -0.617863233134073     
 -0.606930873076164      -0.596090059095230      -0.584660737769255     
 -0.572709525719554      -0.561533293423295      -0.552402970798034     
 -0.545377229623689      -0.535828835183607      -0.514852392396123     
 -0.498637103437535      -0.487914996863121      -0.477842429401034     
 -0.470330549838437      -0.465069881881549      -0.459895670856273     
 -0.455142104445025      -0.451793743875397      -0.450538988719181     
 -0.451273638779981      -0.452127315318606      -0.452701276766191     
 -0.454784334452319      -0.457975875813990      -0.461993031596032     
 -0.467346883468095      -0.474512130151732      -0.483623993159086     
 -0.494274154055671      -0.505731234458613      -0.517378902136155     
 -0.528889027532462      -0.540134636753799      -0.551065798640397     
 -0.561640963191725      -0.571802126422944      -0.581469435006020     
 -0.590545795709080      -0.598929479756679      -0.606531247199144     
 -0.613290756552211      -0.619182857779119      -0.624204230527038     
 -0.628340063829961      -0.631521136400090      -0.633610246859746     
 -0.634466874503750      -0.634040441837022      -0.632371884109534     
 -0.629528236078568      -0.625587604618012      -0.620710335332974     
 -0.615213964889828      -0.609516582967365      -0.603959674836773     
 -0.598651431616223      -0.593485734451659      -0.588404575520391     
 -0.583532991676015      -0.578895117233628      -0.573947033356870     
 -0.567404821166852      -0.558352498662716      -0.546100209455640     
 -0.530046035156537      -0.508643323283474      -0.477651167569721     
 -0.441727513782537      -0.419512809534884      -0.421375616626648     
 -0.433598385542841      -0.848970944722761      -0.855028117576698     
 -0.859518083883450      -0.863057414839320      -0.865592069396910     
 -0.867055242131191      -0.867390361538032      -0.866586420815964     
 -0.864615179263661      -0.861425160340454      -0.857018486171755     
 -0.851443642417164      -0.844683104775840      -0.836587405556125     
 -0.827136775533780      -0.816483997237521      -0.804731270154610     
 -0.791984468433078      -0.778538737729960      -0.764843379288379     
 -0.751167261325109      -0.737487286129459      -0.723681383664410     
 -0.709725277345844      -0.695654317773462      -0.681481188095259     
 -0.667252116757840      -0.653101359811097      -0.639198256192468     
 -0.625663077963213      -0.612482642580585      -0.599417209226585     
 -0.586000713626390      -0.571936397607617      -0.557768841726534     
 -0.544920345005366      -0.534895418593951      -0.528768326219599     
 -0.524516583510916      -0.503029358848485      -0.486775580540169     
 -0.474769959422945      -0.459857274785671      -0.449021208904103     
 -0.441561394111799      -0.432644075055360      -0.425304212686102     
 -0.421069958455516      -0.420983066824803      -0.426274174263853     
 -0.429393584790571      -0.431906416533665      -0.436299424600380     
 -0.441123852945790      -0.445766387226042      -0.451228908820713     
 -0.458241656411086      -0.467744249767909      -0.480063644043094     
 -0.494206371965003      -0.508737060046563      -0.522870694027511     
 -0.536427839202742      -0.549430720361183      -0.561908754208325     
 -0.573853751059036      -0.585217177269551      -0.595917073120144     
 -0.605849436345585      -0.614900469530055      -0.622957714844423     
 -0.629918764978977      -0.635698253891789      -0.640240238984355     
 -0.643537410870860      -0.645642134472792      -0.646635140805850     
 -0.646561730856988      -0.645424159127412      -0.643231623271095     
 -0.640025055137196      -0.635892573431543      -0.631032014440337     
 -0.625840488420625      -0.620942061289085      -0.617040517372005     
 -0.614465063719633      -0.612640198649312      -0.610288949639167     
 -0.606096672768045      -0.599397200940088      -0.589881589726115     
 -0.577107877197256      -0.561143837517638      -0.542117336896982     
 -0.519049514260582      -0.487344720185315      -0.441203625167851     
 -0.411606712620839      -0.413755161454276      -0.427714103497023     
 -0.859639138811674      -0.866733280389748      -0.872301212649602     
 -0.876808307116858      -0.880210625336776      -0.882450464174472     
 -0.883387359733350      -0.883066292221090      -0.881527134095310     
 -0.878608339714683      -0.874325464019360      -0.868781903553124     
 -0.862183226880456      -0.854163658929046      -0.844387502254673     
 -0.833304498550073      -0.821088230566204      -0.807536503845436     
 -0.792612304245277      -0.776898682324650      -0.761049010913655     
 -0.745336652705370      -0.729741084437090      -0.714232412813287     
 -0.698817449906811      -0.683442150642427      -0.668026398451624     
 -0.652587988059721      -0.637210233900841      -0.621959438926326     
 -0.606807412410764      -0.591572060341231      -0.575972308754729     
 -0.559926291828641      -0.543993191697502      -0.529799580822315     
 -0.519251665080539      -0.513607062735605      -0.512194345621108     
 -0.497216630337700      -0.479419050144495      -0.462562121780934     
 -0.444316863720556      -0.431619079820082      -0.421319521256373     
 -0.408859612365421      -0.400944584988646      -0.397368783616983     
 -0.398812891317100      -0.407786839155155      -0.415806286075492     
 -0.417973732469529      -0.421779155293533      -0.426831283776129     
 -0.432195961650436      -0.438222209864584      -0.445275189351135     
 -0.454047939216163      -0.466146237195422      -0.481989931761639     
 -0.499431690522929      -0.516420938751496      -0.532437401703276     
 -0.547588997920005      -0.562019442074043      -0.575799033278007     
 -0.588925604803122      -0.601337341298441      -0.612930516799820     
 -0.623577088197510      -0.633137684550694      -0.641469585226359     
 -0.648432772829023      -0.653902591570547      -0.657797670535306     
 -0.660125847536969      -0.661025618803840      -0.660739913152213     
 -0.659506983691935      -0.657488258377804      -0.654819407112372     
 -0.651723598625515      -0.648609824884507      -0.646068439077515     
 -0.644604813944812      -0.644155194769130      -0.643870108438971     
 -0.642441468823615      -0.638720834006328      -0.632147211914837     
 -0.622563748485058      -0.609870778890160      -0.594027570950805     
 -0.575242095207148      -0.553614547026139      -0.528848150001200     
 -0.498168594403041      -0.450033223108510      -0.408667988467966     