 Title = "Wing and Wake"
 VARIABLES = "X" "Y" "Z" "GAM"
 Zone I=    9 J=   15 K=1  T="Blade"
 DATAPACKING=BLOCK
 VARLOCATION=([4]=CELLCENTERED)
  -1.34606124017490       -1.34558149017490       -1.34431644017490     
  -1.34235769017490       -1.34002239017490       -1.33794854017490     
  -1.33653204017490       -1.33573699017490       -1.33534094017490     
  -1.36204077258313       -1.36145282258314       -1.35990277258314     
  -1.35740522258314       -1.35429282258314       -1.35140962258314     
  -1.34938197258314       -1.34822467258314       -1.34764337258314     
  -1.37772211838883       -1.37705786838883       -1.37530701838883     
  -1.37239191838883       -1.36863451838883       -1.36504826838883     
  -1.36247661838883       -1.36099296838883       -1.36024381838883     
  -1.39314560079706       -1.39241940079706       -1.39050545079706     
  -1.38724635079706       -1.38295260079706       -1.37877830079706     
  -1.37575030079706       -1.37399250079706       -1.37310230079706     
  -1.40807763320530       -1.40730383320530       -1.40526453320530     
  -1.40177118320530       -1.39714263320530       -1.39262193320530     
  -1.38933328320530       -1.38742123320530       -1.38645223320530     
  -1.42262061561353       -1.42182561561353       -1.41973066561353     
  -1.41612541561353       -1.41132801561353       -1.40662601561353     
  -1.40319811561353       -1.40120296561353       -1.40019121561353     
  -1.43687406141923       -1.43607731141923       -1.43397766141923     
  -1.43035081141923       -1.42550791141923       -1.42074796141923     
  -1.41727191141923       -1.41524686141923       -1.41421956141923     
  -1.45093834382746       -1.45015199382746       -1.44807994382746     
  -1.44448964382746       -1.43968169382746       -1.43494514382746     
  -1.43148144382746       -1.42946204382746       -1.42843724382746     
  -1.46488402623570       -1.46411532623569       -1.46208977623570     
  -1.45857122623569       -1.45384837623570       -1.44918712623569     
  -1.44577467623570       -1.44378402623570       -1.44277352623570     
  -1.47872927204139       -1.47798427204139       -1.47602117204139     
  -1.47260412204139       -1.46800892204139       -1.46346692204139     
  -1.46013872204139       -1.45819632204139       -1.45721007204139     
  -1.49247565444962       -1.49176045444962       -1.48987600444962     
  -1.48659015444962       -1.48216455444963       -1.47778475444962     
  -1.47457305444962       -1.47269790444962       -1.47174565444962     
  -1.50611753685786       -1.50543878685786       -1.50365023685786     
  -1.50052723685786       -1.49631558685786       -1.49214323685786     
  -1.48908183685786       -1.48729383685786       -1.48638573685786     
  -1.51964371926609       -1.51900891926609       -1.51733621926609     
  -1.51441171926610       -1.51046321926609       -1.50654801926609     
  -1.50367366926609       -1.50199451926610       -1.50114151926609     
  -1.53303426507179       -1.53245201507179       -1.53091786507179     
  -1.52823316507179       -1.52460536507179       -1.52100586507179     
  -1.51836226507179       -1.51681751507179       -1.51603276507179     
  -1.54629234748002       -1.54577129748002       -1.54439824748002     
  -1.54199399748002       -1.53874329748002       -1.53551639748002     
  -1.53314584748002       -1.53176044748002       -1.53105664748002     
  0.409815947863809       0.410646899238741       0.412838030112856     
  0.416230684632181       0.420275542883098       0.423867556450373     
  0.426321006419294       0.427698073413852       0.428384052136191     
  0.414795785851555       0.415814145123865       0.418498910478136     
  0.422824793972579       0.428215628906057       0.433209477794438     
  0.436721470614407       0.438725973014007       0.439732814148446     
  0.420291898185036       0.421442412933963       0.424474974090394     
  0.429524075399538       0.436032083103898       0.442243650312542     
  0.446697878771827       0.449267635952475       0.450565201814966     
  0.426234843024329       0.427492658320784       0.430807716963930     
  0.436452643750878       0.443889636905878       0.451119736591913     
  0.456364386437230       0.459408985346776       0.460950856975673     
  0.433029004232999       0.434369265147896       0.437901436359773     
  0.443952096048393       0.451968979813766       0.459799061899543     
  0.465495170787854       0.468806938534467       0.470485295766999     
  0.440497019808357       0.441874000200376       0.445502560039691     
  0.451747036213679       0.460056376757909       0.468200479655100     
  0.474137776618364       0.477593477787085       0.479345880191643     
  0.448466327489966       0.449846338970896       0.453483039449008     
  0.459764927920441       0.468153076776414       0.476397552017902     
  0.482418247227551       0.485925736715419       0.487705072510035     
  0.456763475786906       0.458125473939439       0.461714369815261     
  0.467932951829676       0.476260565509925       0.484464510762516     
  0.490463815144693       0.493961518545499       0.495736524213094     
  0.465266045309625       0.466597472765403       0.470105828278673     
  0.476200135647645       0.484380351804172       0.492453873630952     
  0.498364410409240       0.501812317349327       0.503562554690377     
  0.473942376130882       0.475232753982521       0.478632942922859     
  0.484551447134863       0.492510567005803       0.500377541773781     
  0.506142153271532       0.509506488760152       0.511214723869118     
  0.482790143379550       0.484028906117123       0.487292869261447     
  0.492984128407494       0.500649492461472       0.508235528588462     
  0.513798356167133       0.517046211238945       0.518695556620452     
  0.491818909937609       0.492994539423241       0.496092398895121     
  0.501501593567159       0.508796385350856       0.516023107537816     
  0.521325607880107       0.524422514724040       0.525995390062394     
  0.501048074774099       0.502147580626743       0.505044782012565     
  0.510110164599298       0.516949167212987       0.523730492534779     
  0.528709012773515       0.531617385887043       0.533094825225900     
  0.510511969097559       0.511520455680266       0.514177681426698     
  0.518827718229779       0.525111252149476       0.531345769031321     
  0.535924618546210       0.538600204031203       0.539959430902441     
  0.520205496755561       0.521107981828845       0.523486174190179     
  0.527650457344275       0.533280834904439       0.538869989655384     
  0.542975902697265       0.545375485886072       0.546594503244439     
  5.806800000000000E-003  5.846700000000000E-003  5.955500000000000E-003
  5.154700000000000E-003  2.862200000000000E-003 -3.575000000000000E-004
 -3.136400000000000E-003 -4.887000000000000E-003 -5.806800000000000E-003
  6.395100000000000E-003  6.417400000000000E-003  6.480000000000000E-003
  5.547100000000000E-003  3.013300000000000E-003 -4.950000000000000E-004
 -3.507400000000000E-003 -5.401000000000000E-003 -6.395100000000000E-003
  6.406000000000000E-003  6.371700000000000E-003  6.284800000000000E-003
  5.216700000000000E-003  2.654400000000000E-003 -7.614000000000000E-004
 -3.653000000000000E-003 -5.459900000000000E-003 -6.406000000000000E-003
  6.173600000000000E-003  6.070000000000000E-003  5.799600000000000E-003
  4.603500000000000E-003  2.104300000000000E-003 -1.064900000000000E-003
 -3.694600000000000E-003 -5.323700000000000E-003 -6.173600000000000E-003
  5.700500000000000E-003  5.636900000000000E-003  5.472000000000000E-003
  4.443200000000000E-003  2.149100000000000E-003 -8.329000000000000E-004
 -3.332400000000000E-003 -4.887600000000000E-003 -5.700500000000000E-003
  5.159100000000000E-003  5.126700000000000E-003  5.043900000000000E-003
  4.172200000000000E-003  2.106600000000000E-003 -6.360000000000000E-004
 -2.954000000000000E-003 -4.401400000000000E-003 -5.159100000000000E-003
  4.585800000000000E-003  4.577700000000000E-003  4.559000000000000E-003
  3.833200000000000E-003  2.006000000000000E-003 -4.679000000000000E-004
 -2.574500000000000E-003 -3.894100000000000E-003 -4.585800000000000E-003
  4.030700000000000E-003  4.040600000000000E-003  4.069300000000000E-003
  3.471600000000000E-003  1.872800000000000E-003 -3.313000000000000E-004
 -2.220800000000000E-003 -3.407700000000000E-003 -4.030700000000000E-003
  3.545600000000000E-003  3.566200000000000E-003  3.623000000000000E-003
  3.125500000000000E-003  1.724200000000000E-003 -2.354000000000000E-004
 -1.924000000000000E-003 -2.987100000000000E-003 -3.545600000000000E-003
  3.123600000000000E-003  3.149200000000000E-003  3.218600000000000E-003
  2.797600000000000E-003  1.566100000000000E-003 -1.730000000000000E-004
 -1.677000000000000E-003 -2.625200000000000E-003 -3.123600000000000E-003
  2.748800000000000E-003  2.774900000000000E-003  2.845700000000000E-003
  2.483700000000000E-003  1.401600000000000E-003 -1.351000000000000E-004
 -1.466800000000000E-003 -2.307000000000000E-003 -2.748800000000000E-003
  2.414800000000000E-003  2.438000000000000E-003  2.500800000000000E-003
  2.183400000000000E-003  1.232800000000000E-003 -1.176000000000000E-004
 -1.288000000000000E-003 -2.026500000000000E-003 -2.414800000000000E-003
  2.085400000000000E-003  2.104900000000000E-003  2.157700000000000E-003
  1.882300000000000E-003  1.061200000000000E-003 -1.041000000000000E-004
 -1.113600000000000E-003 -1.750500000000000E-003 -2.085400000000000E-003
  1.829100000000000E-003  1.839700000000000E-003  1.868800000000000E-003
  1.612000000000000E-003  8.891000000000000E-004 -1.217000000000000E-004
 -9.927000000000000E-004 -1.541000000000000E-003 -1.829100000000000E-003
  1.626300000000000E-003  1.624800000000000E-003  1.622000000000000E-003
  1.367900000000000E-003  7.205000000000000E-004 -1.593000000000000E-004
 -9.095000000000000E-004 -1.379700000000000E-003 -1.626300000000000E-003
  8.927117727042519E-002  0.216024448678327       0.445635904084398     
  0.752045500445929        1.03621888471410        1.22011008488361     
   1.30389716894462        1.32799231494028       0.132032601730790     
  0.309087259446463       0.607388001448606       0.989342385564519     
   1.33082518488923        1.53610190753537        1.62296991241911     
   1.64763224879332       0.163242285511420       0.370981517919589     
  0.696471189363230        1.09441931794109        1.43975315790096     
   1.64203914613182        1.72586215318929        1.74974221497417     
  0.177632436413720       0.400715976525662       0.743609490015560     
   1.15577277797287        1.50610584020477        1.70629360993192     
   1.78756229972405        1.81061765976980       0.173405536516954     
  0.394922932468567       0.747103121297896        1.17522083624663     
   1.53941362520023        1.74714705509614        1.83159531350033     
   1.85570786177067       0.169858470354435       0.389482880208006     
  0.746914086778399        1.18529478505278        1.55859035620326     
   1.77037770680694        1.85557706144078        1.87970832204290     
  0.178265922656768       0.406829972201008       0.774558989505842     
   1.22229161055246        1.60160740508637        1.81574753698754     
   1.90129332019890        1.92541353781053       0.202558901729056     
  0.455287005110173       0.843259575498997        1.30431408299798     
   1.69097382447070        1.90939238147243        1.99758669807671     
   2.02281673473585       0.228572334359313       0.507408430645782     
  0.916516826594677        1.39101453735229        1.78450963509222     
   2.00715046249463        2.09828356862571        2.12474958131266     
  0.244144289787782       0.538166277733883       0.957280866274785     
   1.43494540049227        1.82743970173850        2.04963603308029     
   2.14108729451219        2.16780771680122       0.244509295093168     
  0.537217806523607       0.948444736179509        1.41262880295891     
   1.79198677883378        2.00668746703834        2.09524996594204     
   2.12116083548911       0.227780040605269       0.500465804503144     
  0.883302123569570        1.31521860102947        1.66881107077760     
   1.86989094057521        1.95318388859169        1.97756492455554     
  0.197711338594930       0.434431156335624       0.768513473939572     
   1.14678639598604        1.46061875865632        1.64425996404071     
   1.72282445672347        1.74627019550373       0.146058608333890     
  0.319428737282151       0.566477556333124       0.844597266102808     
   1.08165877373082        1.23515380927811        1.31027231239353     
   1.33453661448192     
 Zone I=  301 J=   15 K=1  T="NearWake"
 DATAPACKING=BLOCK
 VARLOCATION=([4]=CELLCENTERED)
  -1.33493218519770       -1.32778649108305       -1.32005300724723     
  -1.31163576843431       -1.30289275130940       -1.29391788412272     
  -1.28476599798556       -1.27548638538423       -1.26613111171995     
  -1.25675561995203       -1.24741507397992       -1.23815832235766     
  -1.22902145164380       -1.22002342781469       -1.21116671325231     
  -1.20244432603823       -1.19385245496432       -1.18540452174299     
  -1.17714008960498       -1.16912491462765       -1.16143413999548     
  -1.15413786201722       -1.14728092386337       -1.14087326506858     
  -1.13489258937918       -1.12929565976821       -1.12403159532200     
  -1.11905688813534       -1.11435362526953       -1.10994426184434     
  -1.10589051648807       -1.10227296199635       -1.09916481002604     
  -1.09661592163331       -1.09464961744666       -1.09326614363311     
  -1.09244793525759       -1.09216537400943       -1.09238268878004     
  -1.09306342834670       -1.09417415406827       -1.09568575031727     
  -1.09757346195368       -1.09981707269607       -1.10240111807880     
  -1.10531348701271       -1.10854187434754       -1.11206751646177     
  -1.11585739492807       -1.11985650539439       -1.12398326814189     
  -1.12813016528864       -1.13216998690630       -1.13596565208468     
  -1.13938065940169       -1.14228852069060       -1.14458222588656     
  -1.14618362270997       -1.14705147606252       -1.14718541467373     
  -1.14661881645251       -1.14539170461332       -1.14349618705182     
  -1.14080563493788       -1.13705339491074       -1.13198236861607     
  -1.12564529269028       -1.11853830081367       -1.11132447079579     
  -1.10448881718007       -1.09827897280364       -1.09279086034065     
  -1.08799228620712       -1.08365759276506       -1.07934309534227     
  -1.07452619497891       -1.06882173983322       -1.06212579797107     
  -1.05464762094073       -1.04684522386450       -1.03924589931453     
  -1.03222172604084       -1.02589682756795       -1.02020259512811     
  -1.01497134802607       -1.01000419059179       -1.00511200962673     
  -1.00014319431019      -0.995003268055836      -0.989663597633463     
 -0.984156973708048      -0.978562561903505      -0.972979703583336     
 -0.967491466252573      -0.962124087151739      -0.956814142781081     
 -0.951393585657462      -0.945597784129368      -0.939095563563938     
 -0.931529842631354      -0.922549142583738      -0.911862483103738     
 -0.899391529694339      -0.885518065155529      -0.871316137774281     
 -0.858106272724215      -0.847263782227439      -0.840012343895569     
 -0.835930126018023      -0.833611759646983      -0.832199436117585     
 -0.831191446174819      -0.830683008073205      -0.830912316180796     
 -0.831960387728899      -0.833799365908650      -0.836397179455316     
 -0.839766922331801      -0.843945352468873      -0.848945907304544     
 -0.854764570402457      -0.861426883054810      -0.868983330683333     
 -0.877403063844828      -0.886295307471325      -0.894668320510093     
 -0.901397991732401      -0.906010711632210      -0.909011984029966     
 -0.911539832652332      -0.914696001641230      -0.918972404515472     
 -0.923876272298030      -0.928101141317081      -0.930470868724868     
 -0.930610123576408      -0.928374539874907      -0.923023898094028     
 -0.914811294013249      -0.904058908042643      -0.892727828676855     
 -0.881770932084152      -0.870330138360093      -0.858323932684912     
 -0.846757926793993      -0.836705336814516      -0.828070916049682     
 -0.819791996109025      -0.810902334336730      -0.801013662578257     
 -0.789844416176674      -0.775917354671748      -0.762009459134959     
 -0.756249269711521      -0.757690337419704      -0.764658639061609     
 -0.776258514044073      -0.791301647957541      -0.806521594844155     
 -0.818298210090147      -0.824767366334839      -0.826312025896602     
 -0.824441191958726      -0.820558169386770      -0.815832280948246     
 -0.811230421682720      -0.807588607448217      -0.805777051068596     
 -0.806623458842457      -0.810184775235461      -0.814834171043564     
 -0.816795364778364      -0.813278629146908      -0.804051584797975     
 -0.787257092170454      -0.770339093711768      -0.753122389365270     
 -0.740631199405411      -0.726751910944759      -0.708478364622182     
 -0.683394486318549      -0.660824233198096      -0.647860303784953     
 -0.641921464287189      -0.638798621260895      -0.637153080726030     
 -0.637469231109954      -0.640278366432085      -0.645126636955105     
 -0.651302868254741      -0.658169599003905      -0.665290708857872     
 -0.672313867302444      -0.679323518314161      -0.687066087099336     
 -0.695264703071772      -0.701464548164244      -0.703248865028613     
 -0.702583488186321      -0.710985120502940      -0.734183875871291     
 -0.759322725483614      -0.772409696243733      -0.781416854673382     
 -0.791207495527003      -0.801536730264367      -0.811734620182452     
 -0.819298327088554      -0.817657707645458      -0.793982420361025     
 -0.773666826020458      -0.766349410734730      -0.747987503267935     
 -0.724201661562884      -0.705116757541639      -0.690531827873265     
 -0.679035109429044      -0.669253216394647      -0.660743746410134     
 -0.652966331680773      -0.644771233685301      -0.635126237387145     
 -0.626521520414655      -0.616149432197907      -0.589195370481912     
 -0.563322560441890      -0.553002583248396      -0.546794248192114     
 -0.536271214680706      -0.522667394559705      -0.520679032177784     
 -0.596975391331969      -0.617059009361102      -0.507800678583906     
 -0.585308957194816      -0.549092262808404      -0.526379583113711     
 -0.565617488054390      -0.553671392741550      -0.473969935046267     
 -0.475388197305338      -0.474384533822104      -0.514637239556612     
 -0.525109218038384      -0.506824595308377      -0.480875893330075     
 -0.463639859826308      -0.448068242349025      -0.435285014941052     
 -0.431616911436694      -0.430571130438905      -0.433950622089314     
 -0.438784918929567      -0.444242070446506      -0.444711425411673     
 -0.440527999657146      -0.435781330042477      -0.432142658223427     
 -0.427056204769739      -0.420653781639023      -0.417451516626648     
 -0.418854484693159      -0.424512869718050      -0.431357961336730     
 -0.436751225285789      -0.445560933005243      -0.457769380172686     
 -0.467097307203768      -0.475096744446036      -0.482884534057786     
 -0.485170037823925      -0.487527731866324      -0.493848379010685     
 -0.497000447392143      -0.491744578738249      -0.501236038223165     
 -0.516219761048923      -0.533794272641363      -0.523548711202931     
 -0.507023561985227      -0.485818447164050      -0.474716306547911     
 -0.472986150220692      -0.513115449683260      -0.589740110333471     
 -0.564785866784719      -0.507978556798260      -0.469815349257595     
 -0.566463326608195      -0.485483667843097      -0.486631523211517     
 -0.483922276975983      -0.480980311580273      -0.492905125184105     
 -0.487891916236344      -0.472163733751562      -0.515195766916911     
 -0.603867636064077      -0.584494948127047      -0.545214545866859     
 -0.578388514276290       -1.34723461760593       -1.33905299923932     
  -1.33019408584704       -1.32070549716263       -1.31083123586878     
  -1.30068542654965       -1.29033171967280       -1.27981992879159     
  -1.26920298452814       -1.25854259374149       -1.24790698209184     
  -1.23736398525537       -1.22697219415115       -1.21677316908762     
  -1.20678827056281       -1.19702215111774       -1.18747315354125     
  -1.17814775972328       -1.16907248323269       -1.16029742267440     
  -1.15188436246849       -1.14389516036459       -1.13637036447880     
  -1.12931948851522       -1.12272569931273       -1.11655993828205     
  -1.11079798349350       -1.10543907547319       -1.10051929077608     
  -1.09610494454220       -1.09226430102460       -1.08904162263675     
  -1.08645512758407       -1.08450705706643       -1.08318746660691     
  -1.08247527461278       -1.08234394684042       -1.08276890584162     
  -1.08372979690518       -1.08520498013130       -1.08716196842197     
  -1.08955219008633       -1.09231632846372       -1.09539806014357     
  -1.09875772570949       -1.10237789762254       -1.10625782222560     
  -1.11039698538950       -1.11477333544767       -1.11932559567448     
  -1.12394975017780       -1.12851172259017       -1.13286749621578     
  -1.13687904647778       -1.14042113970239       -1.14338118601715     
  -1.14565779841818       -1.14716329802046       -1.14783260962095     
  -1.14763685209652       -1.14659324345354       -1.14475953613205     
  -1.14219691980759       -1.13889525755749       -1.13469910896033     
  -1.12935926884404       -1.12276268390576       -1.11517957699530     
  -1.10734768667324       -1.10016031961291       -1.09420902011116     
  -1.08953310595771       -1.08557528066644       -1.08148552174761     
  -1.07655991759112       -1.07046148425798       -1.06320134030511     
  -1.05501716672838       -1.04632207004125       -1.03766166470063     
  -1.02951438068691       -1.02212388095274       -1.01550032957692     
  -1.00951041648899       -1.00397225964028      -0.998729458538055     
 -0.993682792584874      -0.988779530771227      -0.983994111552316     
 -0.979320119848056      -0.974766257567324      -0.970346758042125     
 -0.966063961490446      -0.961886402335668      -0.957723273326708     
 -0.953395837193712      -0.948616281508213      -0.943003136331435     
 -0.936158516923847      -0.927756882837299      -0.917473033753722     
 -0.904884106045328      -0.890026001023230      -0.873832579887395     
 -0.858632773665182      -0.846647177554850      -0.839500091557846     
 -0.837242253665180      -0.836695392087729      -0.836058881369226     
 -0.835095836632726      -0.834137802122895      -0.833636380656500     
 -0.833942425017212      -0.835156540907666      -0.837142349345994     
 -0.839695040787543      -0.842678348443680      -0.846053815337960     
 -0.849846437599363      -0.854103435297746      -0.858842150272731     
 -0.863981618796017      -0.869373961892010      -0.874997772196334     
 -0.880926657020001      -0.886807575078028      -0.891791516323621     
 -0.895183100128391      -0.896792291890448      -0.897286598990661     
 -0.897602145203634      -0.898196909301828      -0.898918919971944     
 -0.899104081804965      -0.898124459726847      -0.896073824468159     
 -0.893377194905139      -0.888132915350390      -0.875288371120236     
 -0.857422454375055      -0.839804240411561      -0.826188945869152     
 -0.816983456976278      -0.810879342095207      -0.806005978529501     
 -0.800830989922424      -0.794791178050039      -0.787859909523824     
 -0.778840883580638      -0.764289528444178      -0.749265286353374     
 -0.741450318890586      -0.739291639120692      -0.741682600217993     
 -0.747236406350768      -0.753878396574718      -0.759665575476317     
 -0.763759275014612      -0.766458262019464      -0.768454019131825     
 -0.770067289605091      -0.771151102552953      -0.771450376564245     
 -0.770904452684610      -0.769772575231485      -0.768684117021932     
 -0.768615305725848      -0.770809825581233      -0.777072814447025     
 -0.790993665429644      -0.812466408734548      -0.824094763718838     
 -0.823443265284294      -0.807246482616939      -0.779931528879523     
 -0.753714254942818      -0.734333254016106      -0.713347569633329     
 -0.683659085358589      -0.656814712839405      -0.642960695699106     
 -0.637679813162067      -0.635391756842167      -0.634889090952152     
 -0.636601644901487      -0.639626028136198      -0.643553062393605     
 -0.648085759466292      -0.652880186964520      -0.657682674284815     
 -0.662365195390376      -0.666817979306212      -0.670955029317967     
 -0.674679822684249      -0.677233627040780      -0.678358088171826     
 -0.681607573834062      -0.686511214221802      -0.689154081333466     
 -0.690875596049325      -0.704302712453954      -0.732139425769099     
 -0.757017046683514      -0.771357362517625      -0.784126160575453     
 -0.797504238556512      -0.810802462900353      -0.809462814320763     
 -0.792283552506657      -0.757447652240099      -0.718320897598200     
 -0.686316684227787      -0.659311139623531      -0.643672851738318     
 -0.634989225409601      -0.629225683193259      -0.624862366005371     
 -0.621545810792295      -0.614995830505107      -0.606652313191549     
 -0.589878872079943      -0.574541334117124      -0.564795364063047     
 -0.560871374738852      -0.557287899645571      -0.552220089322439     
 -0.542148083073659      -0.526929063333432      -0.519345003950300     
 -0.536854746357118      -0.585988112327025      -0.616537919510661     
 -0.476941522498267      -0.485950063269645      -0.581887518453890     
 -0.565790903618448      -0.505352820496387      -0.580155657522964     
 -0.584410737617012      -0.475508740181581      -0.449823170587816     
 -0.469125397413806      -0.529377021727251      -0.499794707609233     
 -0.462557290401440      -0.448808690246157      -0.439742397138893     
 -0.439930860472540      -0.446496757205957      -0.447836412960537     
 -0.454607106427232      -0.455246620614075      -0.436562370517079     
 -0.441260533759621      -0.439113402297122      -0.451491575467270     
 -0.432035120761297      -0.430166287762108      -0.424087743503953     
 -0.423076280790644      -0.456953057437418      -0.433817822869568     
 -0.435616210993421      -0.436100601579327      -0.457957898889356     
 -0.462765675899327      -0.466983915712153      -0.471937584680927     
 -0.478738919698818      -0.481810560166826      -0.483197469305107     
 -0.484193724455374      -0.484570323837364      -0.484536971394946     
 -0.485013777936434      -0.483759855198981      -0.494861895321613     
 -0.514347791002147      -0.536981834766912      -0.536863180279556     
 -0.523808848932433      -0.509816469870465      -0.498508603144785     
 -0.486656251804242      -0.469582692632810      -0.463823716645317     
 -0.468239781366821      -0.568185425778029      -0.479516367986853     
 -0.467907504832062      -0.511180910567508      -0.535371159199920     
 -0.558290839294772      -0.595916464591255      -0.563802553480419     
 -0.528994789950894      -0.589991651275452      -0.607435052744137     
 -0.606430230784440      -0.531918261923258       -1.35983506341163     
  -1.35066139175174       -1.34045713196046       -1.32970842468048     
  -1.31856445987122       -1.30713487979890       -1.29548934996657     
  -1.28367189057403       -1.27172269828255       -1.25969485750964     
  -1.24765890457982       -1.23569728910332       -1.22389325995761     
  -1.21231851106211       -1.20102360419265       -1.19003460543401     
  -1.17935907253501       -1.16899967495458       -1.15896903734843     
  -1.14930124797845       -1.14004553879848       -1.13125921634000     
  -1.12298276113228       -1.11522835798767       -1.10799047668788     
  -1.10127398809218       -1.09511807742063       -1.08959410881926     
  -1.08477504056162       -1.08069530311022       -1.07733466999615     
  -1.07465033202626       -1.07262192268005       -1.07125740043880     
  -1.07057086403055       -1.07056887809211       -1.07125008405426     
  -1.07260465029197       -1.07460734703082       -1.07720945683930     
  -1.08033744696348       -1.08390204583919       -1.08781599886373     
  -1.09201475661173       -1.09647206719738       -1.10120329399880     
  -1.10625252659355       -1.11166054156467       -1.11742147722784     
  -1.12345180419242       -1.12959533986276       -1.13566092806796     
  -1.14146374810567       -1.14684473471342       -1.15166655168151     
  -1.15580100541752       -1.15912048208462       -1.16149909665405     
  -1.16282256770590       -1.16300471110905       -1.16200276590771     
  -1.15982891842890       -1.15654871213289       -1.15227784450404     
  -1.14712708387344       -1.14113650507638       -1.13432382546139     
  -1.12694549441621       -1.11978731820042       -1.11383202108439     
  -1.10949236745136       -1.10658245642311       -1.10390314934104     
  -1.10024327408730       -1.09467909379559       -1.08685437416232     
  -1.07721858639476       -1.06657665563398       -1.05581178649399     
  -1.04566168540439       -1.03641913245959       -1.02795619987786     
  -1.01996788254033       -1.01219296300587       -1.00454149618382     
 -0.997089655724750      -0.989961537981787      -0.983224891940321     
 -0.976873994431679      -0.970874224001790      -0.965212612984184     
 -0.959910932596491      -0.954996128298048      -0.950449779319369     
 -0.946152350991579      -0.941839956235856      -0.937089034873712     
 -0.931346650048897      -0.924061758149609      -0.914945403901933     
 -0.903912710448654      -0.890601042932388      -0.875403897117915     