 Title = "Wing and Wake"
 VARIABLES = "X" "Y" "Z" "GAM" "skew"
 Zone I=   11 J=   26 K=1  T="Blade"
 DATAPACKING=BLOCK
 VARLOCATION=([4]=CELLCENTERED,[5]=CELLCENTERED)
  0.263065969324354       0.252339927574369       0.241613885824383     
  0.230887844074397       0.220161802324411       0.209435760574424     
  0.198709718824439       0.187983677074453       0.177257635324467     
  0.166531593574481       0.155805551824495       0.266136665610263     
  0.255410623860277       0.244684582110291       0.233958540360306     
  0.223232498610319       0.212506456860333       0.201780415110347     
  0.191054373360361       0.180328331610375       0.169602289860389     
  0.158876248110403       0.275300327753214       0.264574286003228     
  0.253848244253242       0.243122202503256       0.232396160753270     
  0.221670119003284       0.210944077253298       0.200218035503313     
  0.189491993753326       0.178765952003340       0.168039910253354     
  0.290412439327108       0.279686397577122       0.268960355827136     
  0.258234314077150       0.247508272327164       0.236782230577178     
  0.226056188827192       0.215330147077206       0.204604105327220     
  0.193878063577234       0.183152021827248       0.311234673304885     
  0.300508631554899       0.289782589804913       0.279056548054927     
  0.268330506304941       0.257604464554956       0.246878422804970     
  0.236152381054984       0.225426339304997       0.214700297555012     
  0.203974255805025       0.337438650618117       0.326712608868132     
  0.315986567118145       0.305260525368159       0.294534483618174     
  0.283808441868188       0.273082400118201       0.262356358368216     
  0.251630316618230       0.240904274868243       0.230178233118258     
  0.368611118891077       0.357885077141091       0.347159035391106     
  0.336432993641120       0.325706951891133       0.314980910141148     
  0.304254868391162       0.293528826641175       0.282802784891190     
  0.272076743141203       0.261350701391217       0.404260469677571     
  0.393534427927584       0.382808386177599       0.372082344427613     
  0.361356302677627       0.350630260927641       0.339904219177655     
  0.329178177427669       0.318452135677683       0.307726093927697     
  0.297000052177712       0.443824491419805       0.433098449669819     
  0.422372407919833       0.411646366169847       0.400920324419862     
  0.390194282669875       0.379468240919888       0.368742199169903     
  0.358016157419917       0.347290115669931       0.336564073919945     
  0.486679235860503       0.475953194110517       0.465227152360531     
  0.454501110610545       0.443775068860560       0.433049027110573     
  0.422322985360587       0.411596943610602       0.400870901860615     
  0.390144860110628       0.379418818360643       0.532148858079654     
  0.521422816329667       0.510696774579681       0.499970732829695     
  0.489244691079709       0.478518649329724       0.467792607579736     
  0.457066565829751       0.446340524079764       0.435614482329778     
  0.424888440579792       0.579516274972621       0.568790233222635     
  0.558064191472650       0.547338149722661       0.536612107972677     
  0.525886066222692       0.515160024472706       0.504433982722719     
  0.493707940972733       0.482981899222747       0.472255857472761     
  0.628034474079084       0.617308432329098       0.606582390579111     
  0.595856348829126       0.585130307079141       0.574404265329154     
  0.563678223579168       0.552952181829182       0.542226140079197     
  0.531500098329210       0.520774056579224       0.676938294415766     
  0.666212252665779       0.655486210915793       0.644760169165806     
  0.634034127415821       0.623308085665835       0.612582043915849     
  0.601856002165863       0.591129960415879       0.580403918665891     
  0.569677876915905       0.725456493522227       0.714730451772241     
  0.704004410022256       0.693278368272268       0.682552326522283     
  0.671826284772299       0.661100243022312       0.650374201272325     
  0.639648159522339       0.628922117772352       0.618196076022369     
  0.772823910415197       0.762097868665210       0.751371826915225     
  0.740645785165239       0.729919743415253       0.719193701665267     
  0.708467659915280       0.697741618165295       0.687015576415308     
  0.676289534665321       0.665563492915337       0.818293532634346     
  0.807567490884360       0.796841449134373       0.786115407384388     
  0.775389365634401       0.764663323884416       0.753937282134430     
  0.743211240384445       0.732485198634458       0.721759156884472     
  0.711033115134487       0.861148277075044       0.850422235325057     
  0.839696193575072       0.828970151825086       0.818244110075100     
  0.807518068325115       0.796792026575128       0.786065984825141     
  0.775339943075156       0.764613901325169       0.753887859575184     
  0.900712298817276       0.889986257067290       0.879260215317305     
  0.868534173567319       0.857808131817334       0.847082090067348     
  0.836356048317360       0.825630006567376       0.814903964817391     
  0.804177923067403       0.793451881317417       0.936361649603772     
  0.925635607853784       0.914909566103798       0.904183524353813     
  0.893457482603828       0.882731440853839       0.872005399103856     
  0.861279357353871       0.850553315603882       0.839827273853898     
  0.829101232103911       0.967534117876731       0.956808076126747     
  0.946082034376757       0.935355992626770       0.924629950876787     
  0.913903909126802       0.903177867376816       0.892451825626829     
  0.881725783876844       0.870999742126857       0.860273700376870     
  0.993738095189962       0.983012053439978       0.972286011689990     
  0.961559969940005       0.950833928190020       0.940107886440035     
  0.929381844690047       0.918655802940062       0.907929761190077     
  0.897203719440089       0.886477677690104        1.01456032916774     
   1.00383428741775       0.993108245667767       0.982382203917783     
  0.971656162167798       0.960930120417810       0.950204078667826     
  0.939478036917840       0.928751995167853       0.918025953417868     
  0.907299911667879        1.02967244074163        1.01894639899165     
   1.00822035724166       0.997494315491676       0.986768273741691     
  0.976042231991704       0.965316190241720       0.954590148491732     
  0.943864106741745       0.933138064991759       0.922412023241774     
   1.03883610288458        1.02811006113460        1.01738401938461     
   1.00665797763463       0.995931935884641       0.985205894134655     
  0.974479852384668       0.963753810634683       0.953027768884698     
  0.942301727134711       0.931575685384725        1.04190679917049     
   1.03118075742051        1.02045471567052        1.00972867392054     
  0.999002632170551       0.988276590420564       0.977550548670580     
  0.966824506920591       0.956098465170606       0.945372423420619     
  0.934646381670636     
  4.269174225952620E-002  2.745470699676530E-002  1.221767173400421E-002
 -3.019363528757070E-003 -1.825639879151836E-002 -3.349343405427919E-002
 -4.873046931704034E-002 -6.396750457980142E-002 -7.920453984256219E-002
 -9.444157510532356E-002 -0.109678610368085       4.053013955951294E-002
  2.529310429675176E-002  1.005606903399074E-002 -5.180966228770238E-003
 -2.041800149153137E-002 -3.565503675429243E-002 -5.089207201705356E-002
 -6.612910727981441E-002 -8.136614254257583E-002 -9.660317780533670E-002
 -0.111840213068098       3.407942122533163E-002  1.884238596257062E-002
  3.605350699809364E-003 -1.163168456295175E-002 -2.686871982571267E-002
 -4.210575508847383E-002 -5.734279035123514E-002 -7.257982561399595E-002
 -8.781686087675672E-002 -0.103053896139518      -0.118290931402279     
  2.344131893858414E-002  8.204283675822904E-003 -7.032751586938438E-003
 -2.226978684969914E-002 -3.750682211246020E-002 -5.274385737522121E-002
 -6.798089263798220E-002 -8.321792790074341E-002 -9.845496316350462E-002
 -0.113691998426266      -0.128929033689026       8.783601927227306E-003
 -6.453433335533325E-003 -2.169046859829483E-002 -3.692750386105595E-002
 -5.216453912381690E-002 -6.740157438657822E-002 -8.263860964933950E-002
 -9.787564491210018E-002 -0.113112680174861      -0.128349715437622     
 -0.143586750700383      -9.662568855374355E-003 -2.489960411813557E-002
 -4.013663938089653E-002 -5.537367464365765E-002 -7.061070990641853E-002
 -8.584774516918027E-002 -0.101084780431941      -0.116321815694702     
 -0.131558850957463      -0.146795886220224      -0.162032921482985     
 -3.160628627677092E-002 -4.684332153953196E-002 -6.208035680229286E-002
 -7.731739206505413E-002 -9.255442732781495E-002 -0.107791462590577     
 -0.123028497853337      -0.138265533116098      -0.153502568378859     
 -0.168739603641620      -0.183976638904381      -5.670148480468556E-002
 -7.193852006744655E-002 -8.717555533020802E-002 -0.102412590592969     
 -0.117649625855730      -0.132886661118491      -0.148123696381252     
 -0.163360731644013      -0.178597766906774      -0.193834802169535     
 -0.209071837432296      -8.455239816718770E-002 -9.978943342994984E-002
 -0.115026468692710      -0.130263503955471      -0.145500539218232     
 -0.160737574480993      -0.175974609743754      -0.191211645006515     
 -0.206448680269277      -0.221685715532038      -0.236922750794798     
 -0.114719800823222      -0.129956836085983      -0.145193871348745     
 -0.160430906611506      -0.175667941874267      -0.190904977137027     
 -0.206142012399789      -0.221379047662550      -0.236616082925311     
 -0.251853118188071      -0.267090153450833      -0.146727934811771     
 -0.161964970074532      -0.177202005337292      -0.192439040600053     
 -0.207676075862815      -0.222913111125576      -0.238150146388336     
 -0.253387181651099      -0.268624216913858      -0.283861252176620     
 -0.299098287439381      -0.180072012739100      -0.195309048001861     
 -0.210546083264623      -0.225783118527383      -0.241020153790144     
 -0.256257189052905      -0.271494224315667      -0.286731259578428     
 -0.301968294841188      -0.317205330103949      -0.332442365366710     
 -0.214226178577511      -0.229463213840272      -0.244700249103033     
 -0.259937284365794      -0.275174319628555      -0.290411354891315     
 -0.305648390154078      -0.320885425416839      -0.336122460679599     
 -0.351359495942360      -0.366596531205121      -0.248651800729022     
 -0.263888835991783      -0.279125871254542      -0.294362906517304     
 -0.309599941780065      -0.324836977042827      -0.340074012305589     
 -0.355311047568347      -0.370548082831111      -0.385785118093871     
 -0.401022153356631      -0.282805966567432      -0.298043001830192     
 -0.313280037092954      -0.328517072355714      -0.343754107618476     
 -0.358991142881237      -0.374228178143998      -0.389465213406760     
 -0.404702248669519      -0.419939283932280      -0.435176319195043     
 -0.316150044494761      -0.331387079757523      -0.346624115020284     
 -0.361861150283043      -0.377098185545806      -0.392335220808567     
 -0.407572256071327      -0.422809291334088      -0.438046326596849     
 -0.453283361859609      -0.468520397122373      -0.348158178483309     
 -0.363395213746070      -0.378632249008831      -0.393869284271592     
 -0.409106319534353      -0.424343354797115      -0.439580390059876     
 -0.454817425322638      -0.470054460585398      -0.485291495848160     
 -0.500528531110920      -0.378325581139344      -0.393562616402105     
 -0.408799651664866      -0.424036686927627      -0.439273722190388     
 -0.454510757453150      -0.469747792715910      -0.484984827978672     
 -0.500221863241432      -0.515458898504193      -0.530695933766953     
 -0.406176494501847      -0.421413529764607      -0.436650565027369     
 -0.451887600290129      -0.467124635552890      -0.482361670815652     
 -0.497598706078411      -0.512835741341173      -0.528072776603935     
 -0.543309811866696      -0.558546847129456      -0.431271693029761     
 -0.446508728292522      -0.461745763555282      -0.476982798818045     
 -0.492219834080804      -0.507456869343566      -0.522693904606326     
 -0.537930939869089      -0.553167975131850      -0.568405010394611     
 -0.583642045657370      -0.453215410451158      -0.468452445713919     
 -0.483689480976679      -0.498926516239439      -0.514163551502201     
 -0.529400586764962      -0.544637622027724      -0.559874657290485     
 -0.575111692553245      -0.590348727816008      -0.605585763078767     
 -0.471661581233758      -0.486898616496519      -0.502135651759282     
 -0.517372687022042      -0.532609722284802      -0.547846757547565     
 -0.563083792810326      -0.578320828073086      -0.593557863335847     
 -0.608794898598609      -0.624031933861372      -0.486319298245116     
 -0.501556333507876      -0.516793368770637      -0.532030404033399     
 -0.547267439296161      -0.562504474558921      -0.577741509821682     
 -0.592978545084444      -0.608215580347204      -0.623452615609965     
 -0.638689650872726      -0.496957400531863      -0.512194435794623     
 -0.527431471057385      -0.542668506320146      -0.557905541582908     
 -0.573142576845669      -0.588379612108430      -0.603616647371192     
 -0.618853682633950      -0.634090717896714      -0.649327753159474     
 -0.503408118866044      -0.518645154128805      -0.533882189391565     
 -0.549119224654327      -0.564356259917088      -0.579593295179851     
 -0.594830330442611      -0.610067365705371      -0.625304400968134     
 -0.640541436230894      -0.655778471493654      -0.505569721566056     
 -0.520806756828820      -0.536043792091579      -0.551280827354341     
 -0.566517862617102      -0.581754897879864      -0.596991933142625     
 -0.612228968405384      -0.627466003668146      -0.642703038930907     
 -0.657940074193671     
  3.960717710078315E-002  3.564645939070483E-002  3.168574168062652E-002
  2.772502397054821E-002  2.376430626046989E-002  1.980358855039158E-002
  1.584287084031326E-002  1.188215313023495E-002  7.921435420156629E-003
  3.960717710078312E-003  0.000000000000000E+000  3.960717710078315E-002
  3.564645939070483E-002  3.168574168062652E-002  2.772502397054821E-002
  2.376430626046989E-002  1.980358855039158E-002  1.584287084031326E-002
  1.188215313023495E-002  7.921435420156629E-003  3.960717710078312E-003
  0.000000000000000E+000  3.960717710078315E-002  3.564645939070483E-002
  3.168574168062652E-002  2.772502397054821E-002  2.376430626046989E-002
  1.980358855039158E-002  1.584287084031326E-002  1.188215313023495E-002
  7.921435420156629E-003  3.960717710078312E-003  0.000000000000000E+000
  3.960717710078315E-002  3.564645939070483E-002  3.168574168062652E-002
  2.772502397054821E-002  2.376430626046989E-002  1.980358855039158E-002
  1.584287084031326E-002  1.188215313023495E-002  7.921435420156629E-003
  3.960717710078312E-003  0.000000000000000E+000  3.960717710078315E-002
  3.564645939070483E-002  3.168574168062652E-002  2.772502397054821E-002
  2.376430626046989E-002  1.980358855039158E-002  1.584287084031326E-002
  1.188215313023495E-002  7.921435420156629E-003  3.960717710078312E-003
  0.000000000000000E+000  3.960717710078315E-002  3.564645939070483E-002
  3.168574168062652E-002  2.772502397054821E-002  2.376430626046989E-002
  1.980358855039158E-002  1.584287084031326E-002  1.188215313023495E-002
  7.921435420156629E-003  3.960717710078312E-003  0.000000000000000E+000
  3.960717710078315E-002  3.564645939070483E-002  3.168574168062652E-002
  2.772502397054821E-002  2.376430626046989E-002  1.980358855039158E-002
  1.584287084031326E-002  1.188215313023495E-002  7.921435420156629E-003
  3.960717710078312E-003  0.000000000000000E+000  3.960717710078315E-002
  3.564645939070483E-002  3.168574168062652E-002  2.772502397054821E-002
  2.376430626046989E-002  1.980358855039158E-002  1.584287084031326E-002
  1.188215313023495E-002  7.921435420156629E-003  3.960717710078312E-003
  0.000000000000000E+000  3.960717710078315E-002  3.564645939070483E-002
  3.168574168062652E-002  2.772502397054821E-002  2.376430626046989E-002
  1.980358855039158E-002  1.584287084031326E-002  1.188215313023495E-002
  7.921435420156629E-003  3.960717710078312E-003  0.000000000000000E+000
  3.960717710078315E-002  3.564645939070483E-002  3.168574168062652E-002
  2.772502397054821E-002  2.376430626046989E-002  1.980358855039158E-002
  1.584287084031326E-002  1.188215313023495E-002  7.921435420156629E-003
  3.960717710078312E-003  0.000000000000000E+000  3.960717710078315E-002
  3.564645939070483E-002  3.168574168062652E-002  2.772502397054821E-002
  2.376430626046989E-002  1.980358855039158E-002  1.584287084031326E-002
  1.188215313023495E-002  7.921435420156629E-003  3.960717710078312E-003
  0.000000000000000E+000  3.960717710078315E-002  3.564645939070483E-002
  3.168574168062652E-002  2.772502397054821E-002  2.376430626046989E-002
  1.980358855039158E-002  1.584287084031326E-002  1.188215313023495E-002
  7.921435420156629E-003  3.960717710078312E-003  0.000000000000000E+000
  3.960717710078315E-002  3.564645939070483E-002  3.168574168062652E-002
  2.772502397054821E-002  2.376430626046989E-002  1.980358855039158E-002
  1.584287084031326E-002  1.188215313023495E-002  7.921435420156629E-003
  3.960717710078312E-003  0.000000000000000E+000  3.960717710078315E-002
  3.564645939070483E-002  3.168574168062652E-002  2.772502397054821E-002
  2.376430626046989E-002  1.980358855039158E-002  1.584287084031326E-002
  1.188215313023495E-002  7.921435420156629E-003  3.960717710078312E-003
  0.000000000000000E+000  3.960717710078315E-002  3.564645939070483E-002
  3.168574168062652E-002  2.772502397054821E-002  2.376430626046989E-002
  1.980358855039158E-002  1.584287084031326E-002  1.188215313023495E-002
  7.921435420156629E-003  3.960717710078312E-003  0.000000000000000E+000
  3.960717710078315E-002  3.564645939070483E-002  3.168574168062652E-002
  2.772502397054821E-002  2.376430626046989E-002  1.980358855039158E-002
  1.584287084031326E-002  1.188215313023495E-002  7.921435420156629E-003
  3.960717710078312E-003  0.000000000000000E+000  3.960717710078315E-002
  3.564645939070483E-002  3.168574168062652E-002  2.772502397054821E-002
  2.376430626046989E-002  1.980358855039158E-002  1.584287084031326E-002
  1.188215313023495E-002  7.921435420156629E-003  3.960717710078312E-003
  0.000000000000000E+000  3.960717710078315E-002  3.564645939070483E-002
  3.168574168062652E-002  2.772502397054821E-002  2.376430626046989E-002
  1.980358855039158E-002  1.584287084031326E-002  1.188215313023495E-002
  7.921435420156629E-003  3.960717710078312E-003  0.000000000000000E+000
  3.960717710078315E-002  3.564645939070483E-002  3.168574168062652E-002
  2.772502397054821E-002  2.376430626046989E-002  1.980358855039158E-002
  1.584287084031326E-002  1.188215313023495E-002  7.921435420156629E-003
  3.960717710078312E-003  0.000000000000000E+000  3.960717710078315E-002
  3.564645939070483E-002  3.168574168062652E-002  2.772502397054821E-002
  2.376430626046989E-002  1.980358855039158E-002  1.584287084031326E-002
  1.188215313023495E-002  7.921435420156629E-003  3.960717710078312E-003
  0.000000000000000E+000  3.960717710078315E-002  3.564645939070483E-002
  3.168574168062652E-002  2.772502397054821E-002  2.376430626046989E-002
  1.980358855039158E-002  1.584287084031326E-002  1.188215313023495E-002
  7.921435420156629E-003  3.960717710078312E-003  0.000000000000000E+000
  3.960717710078315E-002  3.564645939070483E-002  3.168574168062652E-002
  2.772502397054821E-002  2.376430626046989E-002  1.980358855039158E-002
  1.584287084031326E-002  1.188215313023495E-002  7.921435420156629E-003
  3.960717710078312E-003  0.000000000000000E+000  3.960717710078315E-002
  3.564645939070483E-002  3.168574168062652E-002  2.772502397054821E-002
  2.376430626046989E-002  1.980358855039158E-002  1.584287084031326E-002
  1.188215313023495E-002  7.921435420156629E-003  3.960717710078312E-003
  0.000000000000000E+000  3.960717710078315E-002  3.564645939070483E-002
  3.168574168062652E-002  2.772502397054821E-002  2.376430626046989E-002
  1.980358855039158E-002  1.584287084031326E-002  1.188215313023495E-002
  7.921435420156629E-003  3.960717710078312E-003  0.000000000000000E+000
  3.960717710078315E-002  3.564645939070483E-002  3.168574168062652E-002
  2.772502397054821E-002  2.376430626046989E-002  1.980358855039158E-002
  1.584287084031326E-002  1.188215313023495E-002  7.921435420156629E-003
  3.960717710078312E-003  0.000000000000000E+000  3.960717710078315E-002
  3.564645939070483E-002  3.168574168062652E-002  2.772502397054821E-002
  2.376430626046989E-002  1.980358855039158E-002  1.584287084031326E-002
  1.188215313023495E-002  7.921435420156629E-003  3.960717710078312E-003
  0.000000000000000E+000
  0.233662402446941       0.327793424093199       0.395537479437371     
  0.447461869289463       0.484889524388587       0.508681934835304     
  0.518900603124863       0.516302967365469       0.502462985454575     
  0.480639763116650       0.381548159477675       0.543708651982995     
  0.658975919453389       0.747021476927501       0.810660583437921     
  0.851343110709761       0.869406283285619       0.865892653469822     
  0.843614413631673       0.809951769327908       0.486939765544683     
  0.711413781616604       0.870100946238116       0.990686047831364     
   1.07835544724172        1.13497985606659        1.16194247227960     
   1.15984878558771        1.13213651995383        1.08830632599022     
  0.536943608746402       0.797625188761788       0.983395356673548     
   1.12455838911635        1.22836380982356        1.29599111050298     
   1.32944312776021        1.32948907752868        1.29868024000245     
   1.24592817794677       0.539092703985667       0.808268838527895     
   1.00104447468613        1.14749492650768        1.25596713097987     
   1.32784963702545        1.36460717640651        1.36891532213454     
   1.34274830797311        1.29207621457729       0.518999109081782     
  0.779082956258397       0.964913647754331        1.10620508119465     
   1.21186016340141        1.28548633434366        1.32963728078230     
   1.34679007469935        1.33762322394607        1.30339210765573     
  0.519450338614305       0.776211242781294       0.958252972691798     
   1.09646859311690        1.20160895747519        1.27893111162693     
   1.33200025694536        1.36296606622084        1.37223302941374     
   1.35959461809478       0.561079168366737       0.835652812823956     
   1.03072774849377        1.17967633587326        1.29496666831044     
   1.38316020407148        1.44842209718716        1.49326676500095     
   1.51839808569159        1.52249907537325       0.651601486818412     
  0.965401799893113        1.18771297038923        1.35879497541184     
   1.49358315176226        1.59965992416857        1.68150003395919     
   1.74165453395150        1.78082451423120        1.79715972051785     
  0.779964602480557        1.15107066199665        1.41266765812239     
   1.61448892844377        1.77502131037443        1.90337344563345     
   2.00463010975459        2.08152586919598        2.13470422022230     
   2.16174356667318       0.935218610491931        1.37702640525585     
   1.68719416730515        1.92634739543842        2.11716126072278     
   2.27077209235215        2.39330013918794        2.48796098267324     
   2.55547829613537        2.59288588618776        1.11024143983289     
   1.63222281233846        1.99745690185495        2.27861484610678     
   2.50300299445597        2.68406157442650        2.82917540208501     
   2.94224338736882        3.02423929772238        3.07179439972922     
   1.29985171808440        1.90865580209336        2.33332102103110     
   2.65949588806646        2.91948476723956        3.12924994413811     
   3.29760676036627        3.42927975729308        3.52562503100067     
   3.58300990080664        1.50038117506019        2.20061690100189     
   2.68746112109421        3.06030145253582        3.35675761607314     
   3.59551483875080        3.78697858385257        3.93683808178713     
   4.04696167765119        4.11360176069341        1.71127259532498     
   2.50669600726573        3.05746357623731        3.47755942179684     
   3.81031155149951        4.07738599844912        4.29098126010200     
   4.45792328120732        4.58074769218331        4.65577218033403     
   1.93876785798742        2.83447851552150        3.45087498046400     
   3.91819598893431        4.28625532135425        4.58016456382587     
   4.81422889012119        4.99664484855897        5.13080996272469     
   5.21330541026964        2.19473212951879        3.19841743456702     
   3.88243003799138        4.39648374608173        4.79831878921096     
   5.11724803843817        5.37009228378062        5.56666084648116     
   5.71138867327460        5.80124409653042        2.46900360863008     
   3.58242775964433        4.33158239567239        4.88849600078398     
   5.32005246295674        5.66033402627752        5.92894496002829     
   6.13746232442574        6.29151140674938        6.38863109755153     
   2.70072736970837        3.89977515121615        4.69496958936681     
   5.27871121479352        5.72626821305885        6.07606920900369     
   6.35029685180868        6.56223828852223        6.71881728434813     
   6.81874040638980        2.81093035121811        4.03676091709768     
   4.83564405634811        5.41274594562690        5.84900559365727     
   6.18587779664406        6.44723499142088        6.64735871882792     
   6.79399067749700        6.88737172436342        2.76411199363558     
   3.93862289228494        4.68579760196035        5.21465505419263     
   5.60802036198422        5.90800705956902        6.13847611788855     
   6.31341739124606        6.44038056583786        6.52045345931590     
   2.56243711326107        3.60289159911066        4.24222072630773     
   4.68474996938479        5.00952290517511        5.25529481535401     
   5.44340208121242        5.58623348065400        5.69065095459084     
   5.75784437651853        2.20842425107748        3.03457352457845     
   3.52296550401859        3.85629960630040        4.09990757031361     
   4.28428467931001        4.42598116164566        4.53505704523395     
   4.61877398827303        4.68329227820454        1.68658503598764     
   2.24391526628311        2.56898877581723        2.79143430184451     
   2.95468032267518        3.07874342178484        3.17452239175947     
   3.24871019494103        3.30630369613689        3.35426050934533     
   1.02492234748613        1.33699813437955        1.52073561476030     
   1.64717383724421        1.74028778504335        1.81120451873658     
   1.86597246555674        1.90815203263932        1.93977994244786     
   1.96038214567223     
  0.000000000000000E+000  0.000000000000000E+000  0.000000000000000E+000
  0.000000000000000E+000  0.000000000000000E+000  0.000000000000000E+000
  0.000000000000000E+000  0.000000000000000E+000  0.000000000000000E+000
  0.000000000000000E+000  0.000000000000000E+000  0.000000000000000E+000
  0.000000000000000E+000  0.000000000000000E+000  0.000000000000000E+000
  0.000000000000000E+000  0.000000000000000E+000  0.000000000000000E+000
  0.000000000000000E+000  0.000000000000000E+000  0.000000000000000E+000
  0.000000000000000E+000  0.000000000000000E+000  0.000000000000000E+000
  0.000000000000000E+000  0.000000000000000E+000  0.000000000000000E+000
  0.000000000000000E+000  0.000000000000000E+000  0.000000000000000E+000
  0.000000000000000E+000  0.000000000000000E+000  0.000000000000000E+000
  0.000000000000000E+000  0.000000000000000E+000  0.000000000000000E+000
  0.000000000000000E+000  0.000000000000000E+000  0.000000000000000E+000
  0.000000000000000E+000  0.000000000000000E+000  0.000000000000000E+000
  0.000000000000000E+000  0.000000000000000E+000  0.000000000000000E+000
  0.000000000000000E+000  0.000000000000000E+000  0.000000000000000E+000
  0.000000000000000E+000  0.000000000000000E+000  0.000000000000000E+000
  0.000000000000000E+000  0.000000000000000E+000  0.000000000000000E+000
  0.000000000000000E+000  0.000000000000000E+000  0.000000000000000E+000
  0.000000000000000E+000  0.000000000000000E+000  0.000000000000000E+000
  0.000000000000000E+000  0.000000000000000E+000  0.000000000000000E+000
  0.000000000000000E+000  0.000000000000000E+000  0.000000000000000E+000
  0.000000000000000E+000  0.000000000000000E+000  0.000000000000000E+000
  0.000000000000000E+000  0.000000000000000E+000  0.000000000000000E+000
  0.000000000000000E+000  0.000000000000000E+000  0.000000000000000E+000
  0.000000000000000E+000  0.000000000000000E+000  0.000000000000000E+000
  0.000000000000000E+000  0.000000000000000E+000  0.000000000000000E+000
  0.000000000000000E+000  0.000000000000000E+000  0.000000000000000E+000
  0.000000000000000E+000  0.000000000000000E+000  0.000000000000000E+000
  0.000000000000000E+000  0.000000000000000E+000  0.000000000000000E+000
  0.000000000000000E+000  0.000000000000000E+000  0.000000000000000E+000
  0.000000000000000E+000  0.000000000000000E+000  0.000000000000000E+000
  0.000000000000000E+000  0.000000000000000E+000  0.000000000000000E+000
  0.000000000000000E+000  0.000000000000000E+000  0.000000000000000E+000
  0.000000000000000E+000  0.000000000000000E+000  0.000000000000000E+000
  0.000000000000000E+000  0.000000000000000E+000  0.000000000000000E+000
  0.000000000000000E+000  0.000000000000000E+000  0.000000000000000E+000
  0.000000000000000E+000  0.000000000000000E+000  0.000000000000000E+000
  0.000000000000000E+000  0.000000000000000E+000  0.000000000000000E+000