 Title = "Wing and Wake"
 VARIABLES = "X" "Y" "Z" "GAM" "skew"
 Zone I=   11 J=   26 K=1  T="Blade"
 DATAPACKING=BLOCK
 VARLOCATION=([4]=CELLCENTERED,[5]=CELLCENTERED)
 -6.126063971658562E-002 -7.123122372989567E-002 -8.120180774320573E-002
 -9.117239175651583E-002 -0.101142975769826      -0.111113559783136     
 -0.121084143796446      -0.131054727809756      -0.141025311823066     
 -0.150995895836376      -0.160966479849687      -6.443305023753398E-002
 -7.440363425084413E-002 -8.437421826415414E-002 -9.434480227746436E-002
 -0.104315386290774      -0.114285970304084      -0.124256554317394     
 -0.134227138330704      -0.144197722344015      -0.154168306357325     
 -0.164138890370635      -7.390025099135722E-002 -8.387083500466730E-002
 -9.384141901797745E-002 -0.103812003031287      -0.113782587044597     
 -0.123753171057908      -0.133723755071218      -0.143694339084528     
 -0.153664923097838      -0.163635507111148      -0.173606091124458     
 -8.951293856673627E-002 -9.948352258004650E-002 -0.109454106593357     
 -0.119424690606667      -0.129395274619976      -0.139365858633287     
 -0.149336442646597      -0.159307026659907      -0.169277610673217     
 -0.179248194686527      -0.189218778699837      -0.111024891554039     
 -0.120995475567349      -0.130966059580659      -0.140936643593970     
 -0.150907227607279      -0.160877811620590      -0.170848395633900     
 -0.180818979647210      -0.190789563660520      -0.200760147673830     
 -0.210730731687140      -0.138096853604039      -0.148067437617350     
 -0.158038021630659      -0.168008605643970      -0.177979189657280     
 -0.187949773670590      -0.197920357683900      -0.207890941697210     
 -0.217861525710521      -0.227832109723830      -0.237802693737140     
 -0.170301883703201      -0.180272467716512      -0.190243051729822     
 -0.200213635743132      -0.210184219756442      -0.220154803769752     
 -0.230125387783062      -0.240095971796372      -0.250066555809682     
 -0.260037139822992      -0.270007723836302      -0.207132089288510     
 -0.217102673301819      -0.227073257315130      -0.237043841328440     
 -0.247014425341750      -0.256985009355060      -0.266955593368370     
 -0.276926177381680      -0.286896761394990      -0.296867345408300     
 -0.306837929421611      -0.248006636016585      -0.257977220029895     
 -0.267947804043205      -0.277918388056515      -0.287888972069825     
 -0.297859556083135      -0.307830140096445      -0.317800724109755     
 -0.327771308123066      -0.337741892136375      -0.347712476149685     
 -0.292280907868255      -0.302251491881564      -0.312222075894875     
 -0.322192659908185      -0.332163243921495      -0.342133827934804     
 -0.352104411948114      -0.362074995961425      -0.372045579974735     
 -0.382016163988045      -0.391986748001355      -0.339256673128250     
 -0.349227257141561      -0.359197841154870      -0.369168425168180     
 -0.379139009181490      -0.389109593194801      -0.399080177208110     
 -0.409050761221421      -0.419021345234730      -0.428991929248041     
 -0.438962513261351      -0.388193095916460      -0.398163679929769     
 -0.408134263943080      -0.418104847956389      -0.428075431969700     
 -0.438046015983010      -0.448016599996320      -0.457987184009630     
 -0.467957768022940      -0.477928352036250      -0.487898936049560     
 -0.438318419612311      -0.448289003625621      -0.458259587638931     
 -0.468230171652241      -0.478200755665551      -0.488171339678861     
 -0.498141923692172      -0.508112507705482      -0.518083091718791     
 -0.528053675732101      -0.538024259745412      -0.488842137917704     
 -0.498812721931013      -0.508783305944323      -0.518753889957633     
 -0.528724473970944      -0.538695057984254      -0.548665641997565     
 -0.558636226010873      -0.568606810024185      -0.578577394037495     
 -0.588547978050804      -0.538967461613555      -0.548938045626865     
 -0.558908629640176      -0.568879213653484      -0.578849797666794     
 -0.588820381680105      -0.598790965693414      -0.608761549706725     
 -0.618732133720035      -0.628702717733344      -0.638673301746656     
 -0.587903884401764      -0.597874468415074      -0.607845052428385     
 -0.617815636441694      -0.627786220455005      -0.637756804468315     
 -0.647727388481624      -0.657697972494934      -0.667668556508244     
 -0.677639140521553      -0.687609724534865      -0.634879649661760     
 -0.644850233675070      -0.654820817688380      -0.664791401701691     
 -0.674761985715000      -0.684732569728310      -0.694703153741621     
 -0.704673737754931      -0.714644321768241      -0.724614905781551     
 -0.734585489794861      -0.679153921513430      -0.689124505526740     
 -0.699095089540050      -0.709065673553359      -0.719036257566669     
 -0.729006841579981      -0.738977425593290      -0.748948009606600     
 -0.758918593619910      -0.768889177633220      -0.778859761646530     
 -0.720028468241505      -0.729999052254814      -0.739969636268125     
 -0.749940220281434      -0.759910804294745      -0.769881388308055     
 -0.779851972321364      -0.789822556334675      -0.799793140347986     
 -0.809763724361295      -0.819734308374605      -0.756858673826812     
 -0.766829257840123      -0.776799841853432      -0.786770425866744     
 -0.796741009880052      -0.806711593893363      -0.816682177906672     
 -0.826652761919984      -0.836623345933293      -0.846593929946604     
 -0.856564513959913      -0.789063703925976      -0.799034287939286     
 -0.809004871952594      -0.818975455965904      -0.828946039979215     
 -0.838916623992524      -0.848887208005836      -0.858857792019145     
 -0.868828376032456      -0.878798960045765      -0.888769544059074     
 -0.816135665975974      -0.826106249989285      -0.836076834002595     
 -0.846047418015905      -0.856018002029215      -0.865988586042526     
 -0.875959170055835      -0.885929754069145      -0.895900338082455     
 -0.905870922095766      -0.915841506109077      -0.837647618963278     
 -0.847618202976587      -0.857588786989898      -0.867559371003207     
 -0.877529955016519      -0.887500539029828      -0.897471123043139     
 -0.907441707056449      -0.917412291069759      -0.927382875083068     
 -0.937353459096378      -0.853260306538656      -0.863230890551965     
 -0.873201474565277      -0.883172058578586      -0.893142642591898     
 -0.903113226605207      -0.913083810618517      -0.923054394631828     
 -0.933024978645136      -0.942995562658448      -0.952966146671757     
 -0.862727507292480      -0.872698091305789      -0.882668675319099     
 -0.892639259332409      -0.902609843345720      -0.912580427359031     
 -0.922551011372339      -0.932521595385650      -0.942492179398961     
 -0.952462763412271      -0.962433347425580      -0.865899917813427     
 -0.875870501826738      -0.885841085840048      -0.895811669853359     
 -0.905782253866668      -0.915752837879979      -0.925723421893290     
 -0.935694005906598      -0.945664589919909      -0.955635173933218     
 -0.965605757946530     
 -0.259371207143798      -0.243629457887296      -0.227887708630794     
 -0.212145959374291      -0.196404210117789      -0.180662460861286     
 -0.164920711604784      -0.149178962348282      -0.133437213091779     
 -0.117695463835277      -0.101953714578774      -0.261380563607837     
 -0.245638814351335      -0.229897065094832      -0.214155315838330     
 -0.198413566581827      -0.182671817325325      -0.166930068068822     
 -0.151188318812320      -0.135446569555818      -0.119704820299315     
 -0.103963071042813      -0.267376944248182      -0.251635194991680     
 -0.235893445735178      -0.220151696478675      -0.204409947222173     
 -0.188668197965670      -0.172926448709168      -0.157184699452666     
 -0.141442950196163      -0.125701200939661      -0.109959451683158     
 -0.277265782560073      -0.261524033303571      -0.245782284047068     
 -0.230040534790566      -0.214298785534064      -0.198557036277561     
 -0.182815287021059      -0.167073537764556      -0.151331788508054     
 -0.135590039251551      -0.119848289995049      -0.290891125656024     
 -0.275149376399522      -0.259407627143020      -0.243665877886517     
 -0.227924128630015      -0.212182379373513      -0.196440630117010     
 -0.180698880860508      -0.164957131604005      -0.149215382347503     
 -0.133473633091000      -0.308038093736028      -0.292296344479526     
 -0.276554595223023      -0.260812845966521      -0.245071096710019     
 -0.229329347453516      -0.213587598197014      -0.197845848940511     
 -0.182104099684009      -0.166362350427506      -0.150620601171004     
 -0.328436268870359      -0.312694519613858      -0.296952770357355     
 -0.281211021100853      -0.265469271844350      -0.249727522587848     
 -0.233985773331345      -0.218244024074843      -0.202502274818341     
 -0.186760525561838      -0.171018776305336      -0.351763959651873     
 -0.336022210395370      -0.320280461138868      -0.304538711882365     
 -0.288796962625863      -0.273055213369361      -0.257313464112858     
 -0.241571714856356      -0.225829965599853      -0.210088216343351     
 -0.194346467086849      -0.377653274461655      -0.361911525205152     
 -0.346169775948650      -0.330428026692148      -0.314686277435645     
 -0.298944528179143      -0.283202778922640      -0.267461029666138     
 -0.251719280409635      -0.235977531153133      -0.220235781896631     
 -0.405695923339628      -0.389954174083126      -0.374212424826624     
 -0.358470675570121      -0.342728926313619      -0.326987177057116     
 -0.311245427800614      -0.295503678544112      -0.279761929287609     
 -0.264020180031107      -0.248278430774604      -0.435449656961122     
 -0.419707907704620      -0.403966158448118      -0.388224409191615     
 -0.372482659935113      -0.356740910678610      -0.340999161422108     
 -0.325257412165605      -0.309515662909103      -0.293773913652600     
 -0.278032164396098      -0.466445241172906      -0.450703491916403     
 -0.434961742659902      -0.419219993403398      -0.403478244146896     
 -0.387736494890394      -0.371994745633891      -0.356252996377389     
 -0.340511247120886      -0.324769497864384      -0.309027748607882     
 -0.498193857096096      -0.482452107839593      -0.466710358583089     
 -0.450968609326588      -0.435226860070085      -0.419485110813583     
 -0.403743361557081      -0.388001612300578      -0.372259863044076     
 -0.356518113787573      -0.340776364531071      -0.530194810091879     
 -0.514453060835375      -0.498711311578873      -0.482969562322370     
 -0.467227813065868      -0.451486063809365      -0.435744314552863     
 -0.420002565296361      -0.404260816039859      -0.388519066783356     
 -0.372777317526853      -0.561943426015067      -0.546201676758565     
 -0.530459927502063      -0.514718178245560      -0.498976428989056     
 -0.483234679732556      -0.467492930476052      -0.451751181219549     
 -0.436009431963047      -0.420267682706545      -0.404525933450043     
 -0.592939010226851      -0.577197260970347      -0.561455511713846     
 -0.545713762457344      -0.529972013200842      -0.514230263944338     
 -0.498488514687836      -0.482746765431333      -0.467005016174831     
 -0.451263266918328      -0.435521517661827      -0.622692743848345     
 -0.606950994591842      -0.591209245335339      -0.575467496078838     
 -0.559725746822334      -0.543983997565833      -0.528242248309330     
 -0.512500499052828      -0.496758749796325      -0.481017000539823     
 -0.465275251283321      -0.650735392726318      -0.634993643469815     
 -0.619251894213313      -0.603510144956811      -0.587768395700308     
 -0.572026646443807      -0.556284897187303      -0.540543147930801     
 -0.524801398674299      -0.509059649417796      -0.493317900161294     
 -0.676624707536100      -0.660882958279597      -0.645141209023094     
 -0.629399459766593      -0.613657710510090      -0.597915961253588     
 -0.582174211997085      -0.566432462740583      -0.550690713484081     
 -0.534948964227578      -0.519207214971076      -0.699952398317612     
 -0.684210649061111      -0.668468899804607      -0.652727150548106     
 -0.636985401291604      -0.621243652035099      -0.605501902778599     
 -0.589760153522096      -0.574018404265593      -0.558276655009091     
 -0.542534905752588      -0.720350573451944      -0.704608824195442     
 -0.688867074938939      -0.673125325682437      -0.657383576425936     
 -0.641641827169432      -0.625900077912930      -0.610158328656427     
 -0.594416579399926      -0.578674830143422      -0.562933080886920     
 -0.737497541531948      -0.721755792275446      -0.706014043018942     
 -0.690272293762440      -0.674530544505939      -0.658788795249437     
 -0.643047045992933      -0.627305296736431      -0.611563547479929     
 -0.595821798223426      -0.580080048966923      -0.751122884627899     
 -0.735381135371397      -0.719639386114894      -0.703897636858392     
 -0.688155887601890      -0.672414138345387      -0.656672389088885     
 -0.640930639832382      -0.625188890575880      -0.609447141319378     
 -0.593705392062875      -0.761011722939791      -0.745269973683288     
 -0.729528224426785      -0.713786475170282      -0.698044725913781     
 -0.682302976657277      -0.666561227400776      -0.650819478144272     
 -0.635077728887771      -0.619335979631268      -0.603594230374765     
 -0.767008103580135      -0.751266354323634      -0.735524605067133     
 -0.719782855810628      -0.704041106554126      -0.688299357297623     
 -0.672557608041120      -0.656815858784618      -0.641074109528117     
 -0.625332360271614      -0.609590611015111      -0.769017460044173     
 -0.753275710787670      -0.737533961531170      -0.721792212274667     
 -0.706050463018164      -0.690308713761663      -0.674566964505160     
 -0.658825215248656      -0.643083465992155      -0.627341716735651     
 -0.611599967479150     
  3.960717710078315E-002  3.564645939070483E-002  3.168574168062652E-002
  2.772502397054821E-002  2.376430626046989E-002  1.980358855039158E-002
  1.584287084031326E-002  1.188215313023495E-002  7.921435420156629E-003
  3.960717710078312E-003  0.000000000000000E+000  3.960717710078315E-002
  3.564645939070483E-002  3.168574168062652E-002  2.772502397054821E-002
  2.376430626046989E-002  1.980358855039158E-002  1.584287084031326E-002
  1.188215313023495E-002  7.921435420156629E-003  3.960717710078312E-003
  0.000000000000000E+000  3.960717710078315E-002  3.564645939070483E-002
  3.168574168062652E-002  2.772502397054821E-002  2.376430626046989E-002
  1.980358855039158E-002  1.584287084031326E-002  1.188215313023495E-002
  7.921435420156629E-003  3.960717710078312E-003  0.000000000000000E+000
  3.960717710078315E-002  3.564645939070483E-002  3.168574168062652E-002
  2.772502397054821E-002  2.376430626046989E-002  1.980358855039158E-002
  1.584287084031326E-002  1.188215313023495E-002  7.921435420156629E-003
  3.960717710078312E-003  0.000000000000000E+000  3.960717710078315E-002
  3.564645939070483E-002  3.168574168062652E-002  2.772502397054821E-002
  2.376430626046989E-002  1.980358855039158E-002  1.584287084031326E-002
  1.188215313023495E-002  7.921435420156629E-003  3.960717710078312E-003
  0.000000000000000E+000  3.960717710078315E-002  3.564645939070483E-002
  3.168574168062652E-002  2.772502397054821E-002  2.376430626046989E-002
  1.980358855039158E-002  1.584287084031326E-002  1.188215313023495E-002
  7.921435420156629E-003  3.960717710078312E-003  0.000000000000000E+000
  3.960717710078315E-002  3.564645939070483E-002  3.168574168062652E-002
  2.772502397054821E-002  2.376430626046989E-002  1.980358855039158E-002
  1.584287084031326E-002  1.188215313023495E-002  7.921435420156629E-003
  3.960717710078312E-003  0.000000000000000E+000  3.960717710078315E-002
  3.564645939070483E-002  3.168574168062652E-002  2.772502397054821E-002
  2.376430626046989E-002  1.980358855039158E-002  1.584287084031326E-002
  1.188215313023495E-002  7.921435420156629E-003  3.960717710078312E-003
  0.000000000000000E+000  3.960717710078315E-002  3.564645939070483E-002
  3.168574168062652E-002  2.772502397054821E-002  2.376430626046989E-002
  1.980358855039158E-002  1.584287084031326E-002  1.188215313023495E-002
  7.921435420156629E-003  3.960717710078312E-003  0.000000000000000E+000
  3.960717710078315E-002  3.564645939070483E-002  3.168574168062652E-002
  2.772502397054821E-002  2.376430626046989E-002  1.980358855039158E-002
  1.584287084031326E-002  1.188215313023495E-002  7.921435420156629E-003
  3.960717710078312E-003  0.000000000000000E+000  3.960717710078315E-002
  3.564645939070483E-002  3.168574168062652E-002  2.772502397054821E-002
  2.376430626046989E-002  1.980358855039158E-002  1.584287084031326E-002
  1.188215313023495E-002  7.921435420156629E-003  3.960717710078312E-003
  0.000000000000000E+000  3.960717710078315E-002  3.564645939070483E-002
  3.168574168062652E-002  2.772502397054821E-002  2.376430626046989E-002
  1.980358855039158E-002  1.584287084031326E-002  1.188215313023495E-002
  7.921435420156629E-003  3.960717710078312E-003  0.000000000000000E+000
  3.960717710078315E-002  3.564645939070483E-002  3.168574168062652E-002
  2.772502397054821E-002  2.376430626046989E-002  1.980358855039158E-002
  1.584287084031326E-002  1.188215313023495E-002  7.921435420156629E-003
  3.960717710078312E-003  0.000000000000000E+000  3.960717710078315E-002
  3.564645939070483E-002  3.168574168062652E-002  2.772502397054821E-002
  2.376430626046989E-002  1.980358855039158E-002  1.584287084031326E-002
  1.188215313023495E-002  7.921435420156629E-003  3.960717710078312E-003
  0.000000000000000E+000  3.960717710078315E-002  3.564645939070483E-002
  3.168574168062652E-002  2.772502397054821E-002  2.376430626046989E-002
  1.980358855039158E-002  1.584287084031326E-002  1.188215313023495E-002
  7.921435420156629E-003  3.960717710078312E-003  0.000000000000000E+000
  3.960717710078315E-002  3.564645939070483E-002  3.168574168062652E-002
  2.772502397054821E-002  2.376430626046989E-002  1.980358855039158E-002
  1.584287084031326E-002  1.188215313023495E-002  7.921435420156629E-003
  3.960717710078312E-003  0.000000000000000E+000  3.960717710078315E-002
  3.564645939070483E-002  3.168574168062652E-002  2.772502397054821E-002
  2.376430626046989E-002  1.980358855039158E-002  1.584287084031326E-002
  1.188215313023495E-002  7.921435420156629E-003  3.960717710078312E-003
  0.000000000000000E+000  3.960717710078315E-002  3.564645939070483E-002
  3.168574168062652E-002  2.772502397054821E-002  2.376430626046989E-002
  1.980358855039158E-002  1.584287084031326E-002  1.188215313023495E-002
  7.921435420156629E-003  3.960717710078312E-003  0.000000000000000E+000
  3.960717710078315E-002  3.564645939070483E-002  3.168574168062652E-002
  2.772502397054821E-002  2.376430626046989E-002  1.980358855039158E-002
  1.584287084031326E-002  1.188215313023495E-002  7.921435420156629E-003
  3.960717710078312E-003  0.000000000000000E+000  3.960717710078315E-002
  3.564645939070483E-002  3.168574168062652E-002  2.772502397054821E-002
  2.376430626046989E-002  1.980358855039158E-002  1.584287084031326E-002
  1.188215313023495E-002  7.921435420156629E-003  3.960717710078312E-003
  0.000000000000000E+000  3.960717710078315E-002  3.564645939070483E-002
  3.168574168062652E-002  2.772502397054821E-002  2.376430626046989E-002
  1.980358855039158E-002  1.584287084031326E-002  1.188215313023495E-002
  7.921435420156629E-003  3.960717710078312E-003  0.000000000000000E+000
  3.960717710078315E-002  3.564645939070483E-002  3.168574168062652E-002
  2.772502397054821E-002  2.376430626046989E-002  1.980358855039158E-002
  1.584287084031326E-002  1.188215313023495E-002  7.921435420156629E-003
  3.960717710078312E-003  0.000000000000000E+000  3.960717710078315E-002
  3.564645939070483E-002  3.168574168062652E-002  2.772502397054821E-002
  2.376430626046989E-002  1.980358855039158E-002  1.584287084031326E-002
  1.188215313023495E-002  7.921435420156629E-003  3.960717710078312E-003
  0.000000000000000E+000  3.960717710078315E-002  3.564645939070483E-002
  3.168574168062652E-002  2.772502397054821E-002  2.376430626046989E-002
  1.980358855039158E-002  1.584287084031326E-002  1.188215313023495E-002
  7.921435420156629E-003  3.960717710078312E-003  0.000000000000000E+000
  3.960717710078315E-002  3.564645939070483E-002  3.168574168062652E-002
  2.772502397054821E-002  2.376430626046989E-002  1.980358855039158E-002
  1.584287084031326E-002  1.188215313023495E-002  7.921435420156629E-003
  3.960717710078312E-003  0.000000000000000E+000  3.960717710078315E-002
  3.564645939070483E-002  3.168574168062652E-002  2.772502397054821E-002
  2.376430626046989E-002  1.980358855039158E-002  1.584287084031326E-002
  1.188215313023495E-002  7.921435420156629E-003  3.960717710078312E-003
  0.000000000000000E+000
  0.133113140937709       0.195640141767449       0.239527036022839     
  0.268780535442284       0.285316472968103       0.291237292074446     
  0.288980221103190       0.280323517142416       0.266972361528578     
  0.250871692602691       0.216587394447753       0.322617151876631     
  0.396943026367307       0.447483101359558       0.476964067470214     
  0.488422396654742       0.485901827629007       0.472486768001672     
  0.451172359200986       0.426148486325807       0.275459782374033     
  0.417514346743167       0.518250494870101       0.590230737123948     
  0.635400696189558       0.656213583872604       0.657804133927681     
  0.644273453360324       0.619471065013529       0.588619073809274     
  0.309189783578249       0.470781143272950       0.587246694297076     
  0.674785118109159       0.734875012940925       0.768241372364747     
  0.779537004435790       0.772597257955043       0.750569502066514     
  0.717769863419331       0.331765944585894       0.505013179678792     
  0.631737114752187       0.728900811865900       0.800018637329557     
  0.845807886508626       0.869414629387598       0.873718036545259     
  0.860778097262221       0.833358879784099       0.367948732496561     
  0.555320531510545       0.691926358614878       0.797213370162012     
  0.877445752438979       0.935154993928241       0.972080870118692     
  0.989864604388782       0.989715275279964       0.972698910157861     
  0.430054738776355       0.642824712560100       0.796176389009592     
  0.914911702544872        1.00753421786726        1.07790278485387     
   1.12813210054402        1.15958916541444        1.17290344572888     
   1.16778129977870       0.521371531975521       0.773564473576001     
  0.953045934902841        1.09179080531357        1.20137360392210     
   1.28726639546329        1.35236875567154        1.39820157941748     
   1.42514964494932        1.43200613676335       0.641288254045176     
  0.946301445189172        1.16112108161530        1.32657919486897     
   1.45786760047679        1.56243782630276        1.64435390306583     
   1.70568770089537        1.74680518764191        1.76568927086296     
  0.786356498907134        1.15606904908499        1.41443675634370     
   1.61276917994077        1.77040058942213        1.89693897022058     
   1.99770543447449        2.07549783053669        2.13093266738338     
   2.16141540262949       0.951986047921788        1.39626192504975     
   1.70504216273672        1.94149108257337        2.12956887182655     
   2.28115882245641        2.40284288909045        2.49813655556712     
   2.56796781756007        2.60937602218791        1.13318053560990     
   1.66017404331864        2.02548259185339        2.30472776031087     
   2.52669681665790        2.70574032110888        2.84984210278607     
   2.96332609847024        3.04749640520127        3.09911769219862     
   1.32511087845524        1.94056308444808        2.36669986612908     
   2.69209817931984        2.95051066160903        3.15881598780942     
   3.32646593330361        3.45865414093935        3.55711025715574     
   3.61839108936579        1.52465173533167        2.23214281936738     
   2.72152146698237        3.09477903193045        3.39080302530262     
   3.62908586800897        3.82060768826069        3.97149299048496     
   4.08395782558937        4.15442515843355        1.73167252956578     
   2.53376646205327        3.08745052879355        3.50878573043074     
   3.84210032667598        4.10970038396012        4.32425005081252     
   4.49293781727489        4.61859427207754        4.69765817084261     
   1.95094952253656        2.85077648539533        3.46916593893397     
   3.93761476506032        4.30655874706127        4.60153027471939     
   4.83716841515400        5.02195883145129        5.15955859729978     
   5.24664510746395        2.19044749740362        3.19222363526621     
   3.87505219932297        4.38843055751760        4.79010398537047     
   5.10950080333667        5.36362767044427        5.56252755249787     
   5.71090894987560        5.80591185328596        2.44099385076749     
   3.54320333066328        4.28565933950689        4.83817524649779     
   5.26687164271633        5.60560659351362        5.87400867135348     
   6.08381077763137        6.24091039646572        6.34313873827380     
   2.65199848904376        3.83128334948216        4.61441104437537     
   5.18995580346754        5.63186801352517        5.97810400632968     
   6.25068168320642        6.46287975864699        6.62177686985095     
   6.72632376758956        2.75384370076907        3.95615872938102     
   4.74057290467634        5.30785311135386        5.73734323101613     
   6.06983015350918        6.32887788604541        6.52864971059442     
   6.67693844560478        6.77410690584642        2.70872108577302     
   3.86014526446307        4.59305959888056        5.11227731571614     
   5.49901288682476        5.79462246218017        6.02259054056803     
   6.19674614361168        6.32463716209870        6.40739822821237     
   2.51363660123808        3.53405282443163        4.16113610804039     
   4.59542622643641        4.91451915707291        5.15648124343564     
   5.34229722497960        5.48419281148246        5.58899914685900     
   5.65792800462600        2.16832277194760        2.97891949240673     
   3.45800679432914        3.78509206416688        4.02436118394205     
   4.20578005675935        4.34562674753830        4.45382273537588     
   4.53756717485427        4.60295600023037        1.65691737553908     
   2.20385702586296        2.52274226721310        2.74099915540328     
   2.90130930248436        3.02334569767698        3.11782816693722     
   3.19135591675801        3.24887868561641        3.29726652367444     
   1.00711240023576        1.31337258065069        1.49360861256783     
   1.61766080398837        1.70909396920114        1.77884470971644     
   1.83286207092616        1.87465648681927        1.90624929498101     
   1.92718442373693     
  0.000000000000000E+000  0.000000000000000E+000  0.000000000000000E+000
  0.000000000000000E+000  0.000000000000000E+000  0.000000000000000E+000
  0.000000000000000E+000  0.000000000000000E+000  0.000000000000000E+000
  0.000000000000000E+000  0.000000000000000E+000  0.000000000000000E+000
  0.000000000000000E+000  0.000000000000000E+000  0.000000000000000E+000
  0.000000000000000E+000  0.000000000000000E+000  0.000000000000000E+000
  0.000000000000000E+000  0.000000000000000E+000  0.000000000000000E+000
  0.000000000000000E+000  0.000000000000000E+000  0.000000000000000E+000
  0.000000000000000E+000  0.000000000000000E+000  0.000000000000000E+000
  0.000000000000000E+000  0.000000000000000E+000  0.000000000000000E+000
  0.000000000000000E+000  0.000000000000000E+000  0.000000000000000E+000
  0.000000000000000E+000  0.000000000000000E+000  0.000000000000000E+000
  0.000000000000000E+000  0.000000000000000E+000  0.000000000000000E+000
  0.000000000000000E+000  0.000000000000000E+000  0.000000000000000E+000
  0.000000000000000E+000  0.000000000000000E+000  0.000000000000000E+000
  0.000000000000000E+000  0.000000000000000E+000  0.000000000000000E+000
  0.000000000000000E+000  0.000000000000000E+000  0.000000000000000E+000
  0.000000000000000E+000  0.000000000000000E+000  0.000000000000000E+000
  0.000000000000000E+000  0.000000000000000E+000  0.000000000000000E+000
  0.000000000000000E+000  0.000000000000000E+000  0.000000000000000E+000
  0.000000000000000E+000  0.000000000000000E+000  0.000000000000000E+000
  0.000000000000000E+000  0.000000000000000E+000  0.000000000000000E+000
  0.000000000000000E+000  0.000000000000000E+000  0.000000000000000E+000
  0.000000000000000E+000  0.000000000000000E+000  0.000000000000000E+000
  0.000000000000000E+000  0.000000000000000E+000  0.000000000000000E+000
  0.000000000000000E+000  0.000000000000000E+000  0.000000000000000E+000
  0.000000000000000E+000  0.000000000000000E+000  0.000000000000000E+000
  0.000000000000000E+000  0.000000000000000E+000  0.000000000000000E+000
  0.000000000000000E+000  0.000000000000000E+000  0.000000000000000E+000
  0.000000000000000E+000  0.000000000000000E+000  0.000000000000000E+000
  0.000000000000000E+000  0.000000000000000E+000  0.000000000000000E+000
  0.000000000000000E+000  0.000000000000000E+000  0.000000000000000E+000
  0.000000000000000E+000  0.000000000000000E+000  0.000000000000000E+000
  0.000000000000000E+000  0.000000000000000E+000  0.000000000000000E+000
  0.000000000000000E+000  0.000000000000000E+000  0.000000000000000E+000
  0.000000000000000E+000  0.000000000000000E+000  0.000000000000000E+000
  0.000000000000000E+000  0.000000000000000E+000  0.000000000000000E+000
  0.000000000000000E+000  0.000000000000000E+000  0.000000000000000E+000
  0.000000000000000E+000  0.000000000000000E+000  0.000000000000000E+000