 Title = "Wing and Wake"
 VARIABLES = "X" "Y" "Z" "GAM" "skew"
 Zone I=   11 J=   26 K=1  T="Blade"
 DATAPACKING=BLOCK
 VARLOCATION=([4]=CELLCENTERED,[5]=CELLCENTERED)
  0.249152281329965       0.232243463775838       0.215334646221711     
  0.198425828667583       0.181517011113456       0.164608193559328     
  0.147699376005201       0.130790558451074       0.113881740896946     
  9.697292334281879E-002  8.006410578869148E-002  0.250730226078409     
  0.233821408524282       0.216912590970155       0.200003773416028     
  0.183094955861900       0.166186138307773       0.149277320753645     
  0.132368503199518       0.115459685645391       9.855086809126327E-002
  8.164205053713564E-002  0.255439175192440       0.238530357638314     
  0.221621540084186       0.204712722530058       0.187803904975931     
  0.170895087421804       0.153986269867676       0.137077452313549     
  0.120168634759422       0.103259817205294       8.635099965116681E-002
  0.263204865731541       0.246296048177413       0.229387230623286     
  0.212478413069158       0.195569595515031       0.178660777960904     
  0.161751960406776       0.144843142852649       0.127934325298521     
  0.111025507744394       9.411669019026681E-002  0.273904828116909     
  0.256996010562782       0.240087193008654       0.223178375454527     
  0.206269557900399       0.189360740346272       0.172451922792145     
  0.155543105238017       0.138634287683890       0.121725470129763     
  0.104816652575635       0.287370317549881       0.270461499995754     
  0.253552682441626       0.236643864887499       0.219735047333372     
  0.202826229779244       0.185917412225117       0.169008594670989     
  0.152099777116862       0.135190959562734       0.118282142008607     
  0.303388975218205       0.286480157664077       0.269571340109950     
  0.252662522555823       0.235753705001695       0.218844887447568     
  0.201936069893440       0.185027252339313       0.168118434785186     
  0.151209617231058       0.134300799676931       0.321708177321369     
  0.304799359767241       0.287890542213114       0.270981724658987     
  0.254072907104860       0.237164089550733       0.220255271996605     
  0.203346454442478       0.186437636888350       0.169528819334223     
  0.152620001780096       0.342039019098846       0.325130201544719     
  0.308221383990592       0.291312566436465       0.274403748882337     
  0.257494931328209       0.240586113774082       0.223677296219955     
  0.206768478665827       0.189859661111700       0.172950843557573     
  0.364060871030749       0.347152053476622       0.330243235922494     
  0.313334418368367       0.296425600814239       0.279516783260112     
  0.262607965705985       0.245699148151857       0.228790330597730     
  0.211881513043603       0.194972695489475       0.387426435356894     
  0.370517617802767       0.353608800248640       0.336699982694512     
  0.319791165140385       0.302882347586258       0.285973530032130     
  0.269064712478003       0.252155894923875       0.235247077369748     
  0.218338259815621       0.411767223169947       0.394858405615820     
  0.377949588061693       0.361040770507565       0.344131952953438     
  0.327223135399311       0.310314317845184       0.293405500291056     
  0.276496682736929       0.259587865182802       0.242679047628674     
  0.436699365705616       0.419790548151488       0.402881730597360     
  0.385972913043233       0.369064095489105       0.352155277934979     
  0.335246460380850       0.318337642826724       0.301428825272597     
  0.284520007718469       0.267611190164341       0.461829668182370     
  0.444920850628242       0.428012033074115       0.411103215519987     
  0.394194397965860       0.377285580411732       0.360376762857605     
  0.343467945303478       0.326559127749351       0.309650310195223     
  0.292741492641096       0.486761810718037       0.469852993163910     
  0.452944175609783       0.436035358055655       0.419126540501527     
  0.402217722947400       0.385308905393272       0.368400087839145     
  0.351491270285018       0.334582452730891       0.317673635176764     
  0.511102598531091       0.494193780976962       0.477284963422836     
  0.460376145868709       0.443467328314581       0.426558510760454     
  0.409649693206326       0.392740875652199       0.375832058098072     
  0.358923240543944       0.342014422989817       0.534468162857236     
  0.517559345303108       0.500650527748981       0.483741710194854     
  0.466832892640726       0.449924075086599       0.433015257532472     
  0.416106439978344       0.399197622424217       0.382288804870090     
  0.365379987315962       0.556490014789139       0.539581197235011     
  0.522672379680884       0.505763562126756       0.488854744572628     
  0.471945927018502       0.455037109464374       0.438128291910247     
  0.421219474356119       0.404310656801992       0.387401839247865     
  0.576820856566615       0.559912039012488       0.543003221458360     
  0.526094403904233       0.509185586350106       0.492276768795979     
  0.475367951241852       0.458459133687724       0.441550316133596     
  0.424641498579469       0.407732681025342       0.595140058669780     
  0.578231241115653       0.561322423561525       0.544413606007398     
  0.527504788453271       0.510595970899142       0.493687153345016     
  0.476778335790889       0.459869518236760       0.442960700682633     
  0.426051883128506       0.611158716338103       0.594249898783977     
  0.577341081229849       0.560432263675722       0.543523446121595     
  0.526614628567467       0.509705811013339       0.492796993459212     
  0.475888175905085       0.458979358350957       0.442070540796830     
  0.624624205771077       0.607715388216949       0.590806570662820     
  0.573897753108694       0.556988935554567       0.540080118000440     
  0.523171300446311       0.506262482892185       0.489353665338057     
  0.472444847783929       0.455536030229801       0.635324168156443     
  0.618415350602317       0.601506533048189       0.584597715494062     
  0.567688897939935       0.550780080385807       0.533871262831680     
  0.516962445277553       0.500053627723425       0.483144810169298     
  0.466235992615169       0.643089858695545       0.626181041141418     
  0.609272223587289       0.592363406033162       0.575454588479035     
  0.558545770924907       0.541636953370780       0.524728135816651     
  0.507819318262525       0.490910500708397       0.474001683154270     
  0.647798807809574       0.630889990255448       0.613981172701322     
  0.597072355147192       0.580163537593065       0.563254720038938     
  0.546345902484809       0.529437084930683       0.512528267376557     
  0.495619449822429       0.478710632268301       0.649376752558018     
  0.632467935003891       0.615559117449766       0.598650299895637     
  0.581741482341509       0.564832664787383       0.547923847233255     
  0.531015029679127       0.514106212125001       0.497197394570873     
  0.480288577016746     
 -9.460142589723780E-002 -0.102431311218384      -0.110261196539531     
 -0.118091081860677      -0.125920967181824      -0.133750852502970     
 -0.141580737824116      -0.149410623145263      -0.157240508466409     
 -0.165070393787555      -0.172900279108702      -9.800903389755897E-002
 -0.105838919218706      -0.113668804539852      -0.121498689860998     
 -0.129328575182145      -0.137158460503291      -0.144988345824437     
 -0.152818231145584      -0.160648116466730      -0.168478001787877     
 -0.176307887109023      -0.108178117884751      -0.116008003205898     
 -0.123837888527044      -0.131667773848191      -0.139497659169337     
 -0.147327544490483      -0.155157429811630      -0.162987315132776     
 -0.170817200453922      -0.178647085775069      -0.186476971096215     
 -0.124948305329621      -0.132778190650767      -0.140608075971913     
 -0.148437961293060      -0.156267846614206      -0.164097731935352     
 -0.171927617256499      -0.179757502577645      -0.187587387898792     
 -0.195417273219938      -0.203247158541084      -0.148055120358136     
 -0.155885005679283      -0.163714891000429      -0.171544776321575     
 -0.179374661642721      -0.187204546963868      -0.195034432285015     
 -0.202864317606161      -0.210694202927307      -0.218524088248454     
 -0.226353973569600      -0.177134154693956      -0.184964040015103     
 -0.192793925336249      -0.200623810657396      -0.208453695978542     
 -0.216283581299689      -0.224113466620835      -0.231943351941981     
 -0.239773237263128      -0.247603122584274      -0.255433007905421     
 -0.211726814594633      -0.219556699915779      -0.227386585236926     
 -0.235216470558072      -0.243046355879219      -0.250876241200365     
 -0.258706126521511      -0.266536011842657      -0.274365897163803     
 -0.282195782484950      -0.290025667806096      -0.251287553148878     
 -0.259117438470024      -0.266947323791171      -0.274777209112317     
 -0.282607094433463      -0.290436979754610      -0.298266865075757     
 -0.306096750396903      -0.313926635718049      -0.321756521039195     
 -0.329586406360343      -0.295192473877252      -0.303022359198398     
 -0.310852244519545      -0.318682129840691      -0.326512015161838     
 -0.334341900482984      -0.342171785804130      -0.350001671125277     
 -0.357831556446423      -0.365661441767569      -0.373491327088716     
 -0.342749169952340      -0.350579055273486      -0.358408940594632     
 -0.366238825915779      -0.374068711236925      -0.381898596558071     
 -0.389728481879217      -0.397558367200364      -0.405388252521510     
 -0.413218137842657      -0.421048023163803      -0.393207643868044     
 -0.401037529189190      -0.408867414510336      -0.416697299831483     
 -0.424527185152629      -0.432357070473776      -0.440186955794922     
 -0.448016841116069      -0.455846726437214      -0.463676611758361     
 -0.471506497079507      -0.445772135348282      -0.453602020669429     
 -0.461431905990576      -0.469261791311721      -0.477091676632868     
 -0.484921561954014      -0.492751447275161      -0.500581332596307     
 -0.508411217917453      -0.516241103238600      -0.524070988559746     
 -0.499613670961908      -0.507443556283054      -0.515273441604199     
 -0.523103326925346      -0.530933212246493      -0.538763097567639     
 -0.546592982888786      -0.554422868209932      -0.562252753531078     
 -0.570082638852224      -0.577912524173371      -0.553883137528917     
 -0.561713022850063      -0.569542908171209      -0.577372793492356     
 -0.585202678813503      -0.593032564134649      -0.600862449455796     
 -0.608692334776941      -0.616522220098089      -0.624352105419235     
 -0.632181990740381      -0.607724673142542      -0.615554558463688     
 -0.623384443784835      -0.631214329105980      -0.639044214427127     
 -0.646874099748273      -0.654703985069419      -0.662533870390566     
 -0.670363755711712      -0.678193641032858      -0.686023526354006     
 -0.660289164622781      -0.668119049943926      -0.675948935265073     
 -0.683778820586219      -0.691608705907366      -0.699438591228512     
 -0.707268476549658      -0.715098361870805      -0.722928247191951     
 -0.730758132513097      -0.738588017834244      -0.710747638538485     
 -0.718577523859631      -0.726407409180777      -0.734237294501924     
 -0.742067179823070      -0.749897065144216      -0.757726950465363     
 -0.765556835786509      -0.773386721107656      -0.781216606428803     
 -0.789046491749949      -0.758304334613573      -0.766134219934718     
 -0.773964105255865      -0.781793990577010      -0.789623875898157     
 -0.797453761219305      -0.805283646540450      -0.813113531861596     
 -0.820943417182743      -0.828773302503889      -0.836603187825035     
 -0.802209255341946      -0.810039140663091      -0.817869025984238     
 -0.825698911305384      -0.833528796626531      -0.841358681947678     
 -0.849188567268823      -0.857018452589970      -0.864848337911117     
 -0.872678223232264      -0.880508108553409      -0.841769993896190     
 -0.849599879217338      -0.857429764538482      -0.865259649859631     
 -0.873089535180776      -0.880919420501923      -0.888749305823068     
 -0.896579191144216      -0.904409076465362      -0.912238961786509     
 -0.920068847107654      -0.876362653796867      -0.884192539118014     
 -0.892022424439159      -0.899852309760306      -0.907682195081453     
 -0.915512080402598      -0.923341965723747      -0.931171851044892     
 -0.939001736366039      -0.946831621687184      -0.954661507008331     
 -0.905441688132687      -0.913271573453834      -0.921101458774980     
 -0.928931344096127      -0.936761229417273      -0.944591114738421     
 -0.952421000059566      -0.960250885380713      -0.968080770701858     
 -0.975910656023005      -0.983740541344152      -0.928548503161203     
 -0.936378388482349      -0.944208273803496      -0.952038159124641     
 -0.959868044445789      -0.967697929766935      -0.975527815088082     
 -0.983357700409229      -0.991187585730374      -0.999017471051520     
  -1.00684735637267      -0.945318690606073      -0.953148575927219     
 -0.960978461248365      -0.968808346569511      -0.976638231890658     
 -0.984468117211805      -0.992298002532950       -1.00012788785410     
  -1.00795777317524       -1.01578765849639       -1.02361754381754     
 -0.955487774593263      -0.963317659914410      -0.971147545235557     
 -0.978977430556702      -0.986807315877850      -0.994637201198997     
  -1.00246708652014       -1.01029697184129       -1.01812685716244     
  -1.02595674248358       -1.03378662780473      -0.958895382593584     
 -0.966725267914732      -0.974555153235878      -0.982385038557026     
 -0.990214923878171      -0.998044809199318       -1.00587469452047     
  -1.01370457984161       -1.02153446516276       -1.02936435048390     
  -1.03719423580505     
  3.960717710078315E-002  3.564645939070483E-002  3.168574168062652E-002
  2.772502397054821E-002  2.376430626046989E-002  1.980358855039158E-002
  1.584287084031326E-002  1.188215313023495E-002  7.921435420156629E-003
  3.960717710078312E-003  0.000000000000000E+000  3.960717710078315E-002
  3.564645939070483E-002  3.168574168062652E-002  2.772502397054821E-002
  2.376430626046989E-002  1.980358855039158E-002  1.584287084031326E-002
  1.188215313023495E-002  7.921435420156629E-003  3.960717710078312E-003
  0.000000000000000E+000  3.960717710078315E-002  3.564645939070483E-002
  3.168574168062652E-002  2.772502397054821E-002  2.376430626046989E-002
  1.980358855039158E-002  1.584287084031326E-002  1.188215313023495E-002
  7.921435420156629E-003  3.960717710078312E-003  0.000000000000000E+000
  3.960717710078315E-002  3.564645939070483E-002  3.168574168062652E-002
  2.772502397054821E-002  2.376430626046989E-002  1.980358855039158E-002
  1.584287084031326E-002  1.188215313023495E-002  7.921435420156629E-003
  3.960717710078312E-003  0.000000000000000E+000  3.960717710078315E-002
  3.564645939070483E-002  3.168574168062652E-002  2.772502397054821E-002
  2.376430626046989E-002  1.980358855039158E-002  1.584287084031326E-002
  1.188215313023495E-002  7.921435420156629E-003  3.960717710078312E-003
  0.000000000000000E+000  3.960717710078315E-002  3.564645939070483E-002
  3.168574168062652E-002  2.772502397054821E-002  2.376430626046989E-002
  1.980358855039158E-002  1.584287084031326E-002  1.188215313023495E-002
  7.921435420156629E-003  3.960717710078312E-003  0.000000000000000E+000
  3.960717710078315E-002  3.564645939070483E-002  3.168574168062652E-002
  2.772502397054821E-002  2.376430626046989E-002  1.980358855039158E-002
  1.584287084031326E-002  1.188215313023495E-002  7.921435420156629E-003
  3.960717710078312E-003  0.000000000000000E+000  3.960717710078315E-002
  3.564645939070483E-002  3.168574168062652E-002  2.772502397054821E-002
  2.376430626046989E-002  1.980358855039158E-002  1.584287084031326E-002
  1.188215313023495E-002  7.921435420156629E-003  3.960717710078312E-003
  0.000000000000000E+000  3.960717710078315E-002  3.564645939070483E-002
  3.168574168062652E-002  2.772502397054821E-002  2.376430626046989E-002
  1.980358855039158E-002  1.584287084031326E-002  1.188215313023495E-002
  7.921435420156629E-003  3.960717710078312E-003  0.000000000000000E+000
  3.960717710078315E-002  3.564645939070483E-002  3.168574168062652E-002
  2.772502397054821E-002  2.376430626046989E-002  1.980358855039158E-002
  1.584287084031326E-002  1.188215313023495E-002  7.921435420156629E-003
  3.960717710078312E-003  0.000000000000000E+000  3.960717710078315E-002
  3.564645939070483E-002  3.168574168062652E-002  2.772502397054821E-002
  2.376430626046989E-002  1.980358855039158E-002  1.584287084031326E-002
  1.188215313023495E-002  7.921435420156629E-003  3.960717710078312E-003
  0.000000000000000E+000  3.960717710078315E-002  3.564645939070483E-002
  3.168574168062652E-002  2.772502397054821E-002  2.376430626046989E-002
  1.980358855039158E-002  1.584287084031326E-002  1.188215313023495E-002
  7.921435420156629E-003  3.960717710078312E-003  0.000000000000000E+000
  3.960717710078315E-002  3.564645939070483E-002  3.168574168062652E-002
  2.772502397054821E-002  2.376430626046989E-002  1.980358855039158E-002
  1.584287084031326E-002  1.188215313023495E-002  7.921435420156629E-003
  3.960717710078312E-003  0.000000000000000E+000  3.960717710078315E-002
  3.564645939070483E-002  3.168574168062652E-002  2.772502397054821E-002
  2.376430626046989E-002  1.980358855039158E-002  1.584287084031326E-002
  1.188215313023495E-002  7.921435420156629E-003  3.960717710078312E-003
  0.000000000000000E+000  3.960717710078315E-002  3.564645939070483E-002
  3.168574168062652E-002  2.772502397054821E-002  2.376430626046989E-002
  1.980358855039158E-002  1.584287084031326E-002  1.188215313023495E-002
  7.921435420156629E-003  3.960717710078312E-003  0.000000000000000E+000
  3.960717710078315E-002  3.564645939070483E-002  3.168574168062652E-002
  2.772502397054821E-002  2.376430626046989E-002  1.980358855039158E-002
  1.584287084031326E-002  1.188215313023495E-002  7.921435420156629E-003
  3.960717710078312E-003  0.000000000000000E+000  3.960717710078315E-002
  3.564645939070483E-002  3.168574168062652E-002  2.772502397054821E-002
  2.376430626046989E-002  1.980358855039158E-002  1.584287084031326E-002
  1.188215313023495E-002  7.921435420156629E-003  3.960717710078312E-003
  0.000000000000000E+000  3.960717710078315E-002  3.564645939070483E-002
  3.168574168062652E-002  2.772502397054821E-002  2.376430626046989E-002
  1.980358855039158E-002  1.584287084031326E-002  1.188215313023495E-002
  7.921435420156629E-003  3.960717710078312E-003  0.000000000000000E+000
  3.960717710078315E-002  3.564645939070483E-002  3.168574168062652E-002
  2.772502397054821E-002  2.376430626046989E-002  1.980358855039158E-002
  1.584287084031326E-002  1.188215313023495E-002  7.921435420156629E-003
  3.960717710078312E-003  0.000000000000000E+000  3.960717710078315E-002
  3.564645939070483E-002  3.168574168062652E-002  2.772502397054821E-002
  2.376430626046989E-002  1.980358855039158E-002  1.584287084031326E-002
  1.188215313023495E-002  7.921435420156629E-003  3.960717710078312E-003
  0.000000000000000E+000  3.960717710078315E-002  3.564645939070483E-002
  3.168574168062652E-002  2.772502397054821E-002  2.376430626046989E-002
  1.980358855039158E-002  1.584287084031326E-002  1.188215313023495E-002
  7.921435420156629E-003  3.960717710078312E-003  0.000000000000000E+000
  3.960717710078315E-002  3.564645939070483E-002  3.168574168062652E-002
  2.772502397054821E-002  2.376430626046989E-002  1.980358855039158E-002
  1.584287084031326E-002  1.188215313023495E-002  7.921435420156629E-003
  3.960717710078312E-003  0.000000000000000E+000  3.960717710078315E-002
  3.564645939070483E-002  3.168574168062652E-002  2.772502397054821E-002
  2.376430626046989E-002  1.980358855039158E-002  1.584287084031326E-002
  1.188215313023495E-002  7.921435420156629E-003  3.960717710078312E-003
  0.000000000000000E+000  3.960717710078315E-002  3.564645939070483E-002
  3.168574168062652E-002  2.772502397054821E-002  2.376430626046989E-002
  1.980358855039158E-002  1.584287084031326E-002  1.188215313023495E-002
  7.921435420156629E-003  3.960717710078312E-003  0.000000000000000E+000
  3.960717710078315E-002  3.564645939070483E-002  3.168574168062652E-002
  2.772502397054821E-002  2.376430626046989E-002  1.980358855039158E-002
  1.584287084031326E-002  1.188215313023495E-002  7.921435420156629E-003
  3.960717710078312E-003  0.000000000000000E+000  3.960717710078315E-002
  3.564645939070483E-002  3.168574168062652E-002  2.772502397054821E-002
  2.376430626046989E-002  1.980358855039158E-002  1.584287084031326E-002
  1.188215313023495E-002  7.921435420156629E-003  3.960717710078312E-003
  0.000000000000000E+000
  0.132009947593004       0.173912101721748       0.197769032711826     
  0.213405380678157       0.224257039834253       0.231786932233348     
  0.237112525988704       0.240988182106206       0.243767331397560     
  0.245289341699759       0.211408062696097       0.285201284074280     
  0.327756722344494       0.356132414517694       0.376261789385067     
  0.390735325760742       0.401388172302713       0.409509116935293     
  0.415871575972302       0.421094679277922       0.260885355297148     
  0.366887745825424       0.431848695701253       0.477310827117624     
  0.511161839954278       0.537126464411347       0.557581963076708     
  0.574197782263316       0.588075597984231       0.599397277236497     
  0.288231591140682       0.418881632416938       0.506134952844213     
  0.571359134374744       0.622833663885334       0.664645509904449     
  0.699245860834960       0.728200734211941       0.752122724328581     
  0.769552703556595       0.316110725309938       0.469307370818201     
  0.578317080985005       0.664009122396908       0.734642256409120     
  0.794317422313679       0.845255670085219       0.888538670774354     
  0.924093623125879       0.949497746186594       0.359453201921360     
  0.539981164705207       0.673136562064420       0.780893721978931     
  0.871675531512874       0.949605779597612        1.01680883893466     
   1.07415563109579        1.12123108426404        1.15497501176989     
  0.427399725676977       0.643604821871627       0.804977391226259     
  0.936954771017608        1.04888762182203        1.14525776077798     
   1.22833007582447        1.29896775882210        1.35665786379702     
   1.39796286322765       0.523601596421400       0.785841763634032     
  0.980555940026569        1.13929594593270        1.27348051904361     
   1.38846032631986        1.48694907983716        1.57008727683170     
   1.63745381990434        1.68532374492672       0.646375234283425     
  0.965152644871039        1.19893819708345        1.38756450933188     
   1.54555630102250        1.67979365909665        1.79382508318023     
   1.88922182470304        1.96571148721799        2.01936789777473     
  0.791921432292152        1.17670545941722        1.45522193263527     
   1.67735409878923        1.86148590742641        2.01641922891510     
   2.14676940210722        2.25471381035217        2.34026211641689     
   2.39934587171091       0.956443863964330        1.41554166041662     
   1.74412556392560        2.00346759785767        2.21633430392227     
   2.39374145441032        2.54157686275225        2.66277187094826     
   2.75769875353129        2.82217234029801        1.13655034634918     
   1.67697295304926        2.06025029991300        2.36010081763872     
   2.60410203955509        2.80572443436680        2.97228013248602     
   3.10755011461862        3.21232841802260        3.28234582930012     
   1.32901965203685        1.95631016284895        2.39791886036087     
   2.74086055403962        3.01786738094663        3.24505234103468     
   3.43126906239583        3.58123030196037        3.69622094292134     
   3.77194293605281        1.53132616730727        2.24965400695959     
   2.75214529741297        3.13982477879484        3.45087510532274     
   3.70422624172371        3.91040020864532        4.07514309904288     
   4.20031912755163        4.28169134527400        1.74337479585313     
   2.55624978359893        3.12128206649873        3.55433504387091     
   3.89942076078859        4.17852906505316        4.40403309273607     
   4.58286115497116        4.71758725541275        4.80417867041488     
   1.96987051667905        2.88147848794727        3.51023421452958     
   3.98834364308393        4.36635106638827        4.66972482558404     
   4.91297131929910        5.10441042256799        5.24750237296271     
   5.33859857215597        2.21663556309645        3.23154106233041     
   3.92424728414768        4.44579315127248        4.85438753601753     
   5.17958432609902        5.43836282417060        5.64064315971515     
   5.79092952314650        5.88609515706673        2.46789645940951     
   3.58265618379853        4.33385808101554        4.89299179670535     
   5.32668675967811        5.66895482616241        5.93942037006074     
   6.14969505892801        6.30542971337846        6.40418566217161     
   2.66897286424601        3.85661436975282        4.64563007582167     
   5.22541732756703        5.67010722079540        6.01769052912699     
   6.29014913172015        6.50062329718600        6.65591595424997     
   6.75473039613625        2.75569269975444        3.96029293153311     
   4.74680975628044        5.31560050986514        5.74574027557988     
   6.07787172877706        6.33545607733983        6.53249955258949     
   6.67653400718116        6.76772797747348        2.69875418467955     
   3.84758971770928        4.57957044986346        5.09823343990832     
   5.48420909332518        5.77854439077307        6.00453492105744     
   6.17583837894464        6.29979321918052        6.37741786994577     
   2.49792754800552        3.51343853415702        4.13815961564230     
   4.57095600885009        4.88872866077271        5.12918771400344     
   5.31310478511775        5.45254040297544        5.55416164280381     
   5.61911728645713        2.15178561172908        2.95742329728881     
   3.43410385584654        3.75965994926293        3.99765220311545     
   4.17774371206856        4.31603507891582        4.42231257408065     
   4.50363817771188        4.56602388652376        1.64314715355174     
   2.18646647737514        2.50359138672413        2.72070942200702     
   2.88007169059188        3.00114573894820        3.09453111846894     
   3.16673661999256        3.22262147946409        3.26897280592354     
  0.998513670949542        1.30271958042362        1.48193872080487     
   1.60532415477278        1.69620016227855        1.76538783913766     
   1.81876885581019        1.85980499029237        1.89047548330536     
   1.91032255871869     
  0.000000000000000E+000  0.000000000000000E+000  0.000000000000000E+000
  0.000000000000000E+000  0.000000000000000E+000  0.000000000000000E+000
  0.000000000000000E+000  0.000000000000000E+000  0.000000000000000E+000
  0.000000000000000E+000  0.000000000000000E+000  0.000000000000000E+000
  0.000000000000000E+000  0.000000000000000E+000  0.000000000000000E+000
  0.000000000000000E+000  0.000000000000000E+000  0.000000000000000E+000
  0.000000000000000E+000  0.000000000000000E+000  0.000000000000000E+000
  0.000000000000000E+000  0.000000000000000E+000  0.000000000000000E+000
  0.000000000000000E+000  0.000000000000000E+000  0.000000000000000E+000
  0.000000000000000E+000  0.000000000000000E+000  0.000000000000000E+000
  0.000000000000000E+000  0.000000000000000E+000  0.000000000000000E+000
  0.000000000000000E+000  0.000000000000000E+000  0.000000000000000E+000
  0.000000000000000E+000  0.000000000000000E+000  0.000000000000000E+000
  0.000000000000000E+000  0.000000000000000E+000  0.000000000000000E+000
  0.000000000000000E+000  0.000000000000000E+000  0.000000000000000E+000
  0.000000000000000E+000  0.000000000000000E+000  0.000000000000000E+000
  0.000000000000000E+000  0.000000000000000E+000  0.000000000000000E+000
  0.000000000000000E+000  0.000000000000000E+000  0.000000000000000E+000
  0.000000000000000E+000  0.000000000000000E+000  0.000000000000000E+000
  0.000000000000000E+000  0.000000000000000E+000  0.000000000000000E+000
  0.000000000000000E+000  0.000000000000000E+000  0.000000000000000E+000
  0.000000000000000E+000  0.000000000000000E+000  0.000000000000000E+000
  0.000000000000000E+000  0.000000000000000E+000  0.000000000000000E+000
  0.000000000000000E+000  0.000000000000000E+000  0.000000000000000E+000
  0.000000000000000E+000  0.000000000000000E+000  0.000000000000000E+000
  0.000000000000000E+000  0.000000000000000E+000  0.000000000000000E+000
  0.000000000000000E+000  0.000000000000000E+000  0.000000000000000E+000
  0.000000000000000E+000  0.000000000000000E+000  0.000000000000000E+000
  0.000000000000000E+000  0.000000000000000E+000  0.000000000000000E+000
  0.000000000000000E+000  0.000000000000000E+000  0.000000000000000E+000
  0.000000000000000E+000  0.000000000000000E+000  0.000000000000000E+000
  0.000000000000000E+000  0.000000000000000E+000  0.000000000000000E+000
  0.000000000000000E+000  0.000000000000000E+000  0.000000000000000E+000
  0.000000000000000E+000  0.000000000000000E+000  0.000000000000000E+000
  0.000000000000000E+000  0.000000000000000E+000  0.000000000000000E+000
  0.000000000000000E+000  0.000000000000000E+000  0.000000000000000E+000
  0.000000000000000E+000  0.000000000000000E+000  0.000000000000000E+000
  0.000000000000000E+000  0.000000000000000E+000  0.000000000000000E+000
  0.000000000000000E+000  0.000000000000000E+000  0.000000000000000E+000