 Title = "Wing and Wake"
 VARIABLES = "X" "Y" "Z" "GAM" "skew"
 Zone I=   11 J=   26 K=1  T="Blade"
 DATAPACKING=BLOCK
 VARLOCATION=([4]=CELLCENTERED,[5]=CELLCENTERED)
 -9.458403710566508E-002 -0.102415102489286      -0.110246167872906     
 -0.118077233256526      -0.125908298640147      -0.133739364023767     
 -0.141570429407388      -0.149401494791008      -0.157232560174628     
 -0.165063625558249      -0.172894690941870      -9.799153497150848E-002
 -0.105822600355129      -0.113653665738749      -0.121484731122370     
 -0.129315796505990      -0.137146861889611      -0.144977927273231     
 -0.152808992656851      -0.160640058040472      -0.168471123424092     
 -0.176302188807713      -0.108160290292153      -0.115991355675773     
 -0.123822421059394      -0.131653486443014      -0.139484551826634     
 -0.147315617210255      -0.155146682593875      -0.162977747977496     
 -0.170808813361116      -0.178639878744736      -0.186470944128357     
 -0.124929935721672      -0.132761001105293      -0.140592066488913     
 -0.148423131872534      -0.156254197256154      -0.164085262639774     
 -0.171916328023395      -0.179747393407015      -0.187578458790635     
 -0.195409524174256      -0.203240589557876      -0.148036003933942     
 -0.155867069317562      -0.163698134701183      -0.171529200084803     
 -0.179360265468424      -0.187191330852044      -0.195022396235665     
 -0.202853461619285      -0.210684527002905      -0.218515592386526     
 -0.226346657770146      -0.177114098430359      -0.184945163813980     
 -0.192776229197599      -0.200607294581220      -0.208438359964841     
 -0.216269425348462      -0.224100490732081      -0.231931556115702     
 -0.239762621499323      -0.247593686882943      -0.255424752266563     
 -0.211705640290302      -0.219536705673923      -0.227367771057544     
 -0.235198836441164      -0.243029901824784      -0.250860967208405     
 -0.258692032592025      -0.266523097975645      -0.274354163359266     
 -0.282185228742886      -0.290016294126506      -0.251265100234657     
 -0.259096165618277      -0.266927231001898      -0.274758296385518     
 -0.282589361769138      -0.290420427152759      -0.298251492536379     
 -0.306082557919999      -0.313913623303620      -0.321744688687240     
 -0.329575754070861      -0.295168601948422      -0.302999667332044     
 -0.310830732715663      -0.318661798099284      -0.326492863482904     
 -0.334323928866525      -0.342154994250144      -0.349986059633765     
 -0.357817125017386      -0.365648190401006      -0.373479255784627     
 -0.342723760982893      -0.350554826366513      -0.358385891750134     
 -0.366216957133754      -0.374048022517375      -0.381879087900995     
 -0.389710153284615      -0.397541218668236      -0.405372284051856     
 -0.413203349435476      -0.421034414819097      -0.393180604072021     
 -0.401011669455641      -0.408842734839261      -0.416673800222881     
 -0.424504865606502      -0.432335930990123      -0.440166996373742     
 -0.447998061757364      -0.455829127140983      -0.463660192524604     
 -0.471491257908224      -0.445743396658831      -0.453574462042451     
 -0.461405527426073      -0.469236592809691      -0.477067658193313     
 -0.484898723576934      -0.492729788960554      -0.500560854344174     
 -0.508391919727795      -0.516222985111414      -0.524054050495035     
 -0.499583192104742      -0.507414257488362      -0.515245322871982     
 -0.523076388255602      -0.530907453639223      -0.538738519022843     
 -0.546569584406464      -0.554400649790085      -0.562231715173705     
 -0.570062780557325      -0.577893845940946      -0.553850904673235     
 -0.561681970056855      -0.569513035440474      -0.577344100824095     
 -0.585175166207716      -0.593006231591337      -0.600837296974958     
 -0.608668362358576      -0.616499427742199      -0.624330493125818     
 -0.632161558509439      -0.607690700119145      -0.615521765502765     
 -0.623352830886387      -0.631183896270005      -0.639014961653626     
 -0.646846027037247      -0.654677092420866      -0.662508157804488     
 -0.670339223188107      -0.678170288571727      -0.686001353955349     
 -0.660253492705956      -0.668084558089575      -0.675915623473197     
 -0.683746688856817      -0.691577754240437      -0.699408819624058     
 -0.707239885007677      -0.715070950391298      -0.722902015774918     
 -0.730733081158538      -0.738564146542160      -0.710710335795083     
 -0.718541401178703      -0.726372466562323      -0.734203531945944     
 -0.742034597329564      -0.749865662713185      -0.757696728096806     
 -0.765527793480426      -0.773358858864046      -0.781189924247667     
 -0.789020989631287      -0.758265494829554      -0.766096560213174     
 -0.773927625596794      -0.781758690980414      -0.789589756364034     
 -0.797420821747656      -0.805251887131276      -0.813082952514896     
 -0.820914017898516      -0.828745083282136      -0.836576148665757     
 -0.802168996543319      -0.810000061926938      -0.817831127310560     
 -0.825662192694179      -0.833493258077800      -0.841324323461421     
 -0.849155388845040      -0.856986454228662      -0.864817519612283     
 -0.872648584995903      -0.880479650379522      -0.841728456487672     
 -0.849559521871294      -0.857390587254912      -0.865221652638535     
 -0.873052718022154      -0.880883783405775      -0.888714848789394     
 -0.896545914173017      -0.904376979556636      -0.912208044940258     
 -0.920039110323876      -0.876319998347618      -0.884151063731238     
 -0.891982129114856      -0.899813194498477      -0.907644259882098     
 -0.915475325265718      -0.923306390649340      -0.931137456032960     
 -0.938968521416580      -0.946799586800199      -0.954630652183819     
 -0.905398092844033      -0.913229158227654      -0.921060223611274     
 -0.928891288994894      -0.936722354378514      -0.944553419762136     
 -0.952384485145755      -0.960215550529376      -0.968046615912997     
 -0.975877681296618      -0.983708746680239      -0.928504161056304     
 -0.936335226439923      -0.944166291823543      -0.951997357207164     
 -0.959828422590785      -0.967659487974405      -0.975490553358026     
 -0.983321618741648      -0.991152684125267      -0.998983749508887     
  -1.00681481489251      -0.945273806485822      -0.953104871869441     
 -0.960935937253063      -0.968767002636684      -0.976598068020304     
 -0.984429133403925      -0.992260198787545       -1.00009126417117     
  -1.00792232955478       -1.01575339493841       -1.02358446032203     
 -0.955442561806466      -0.963273627190086      -0.971104692573707     
 -0.978935757957326      -0.986766823340948      -0.994597888724569     
  -1.00242895410819       -1.01026001949181       -1.01809108487543     
  -1.02592215025905       -1.03375321564267      -0.958850059672308     
 -0.966681125055930      -0.974512190439550      -0.982343255823172     
 -0.990174321206792      -0.998005386590413       -1.00583645197403     
  -1.01366751735765       -1.02149858274127       -1.02932964812489     
  -1.03716071350852     
 -0.249158883041545      -0.232250611983317      -0.215342340925088     
 -0.198434069866860      -0.181525798808631      -0.164617527750403     
 -0.147709256692174      -0.130800985633945      -0.113892714575717     
 -9.698444351748808E-002 -8.007617245925971E-002 -0.250737065606166     
 -0.233828794547937      -0.216920523489708      -0.200012252431480     
 -0.183103981373251      -0.166195710315023      -0.149287439256794     
 -0.132379168198565      -0.115470897140337      -9.856262608210843E-002
 -8.165435502387955E-002 -0.255446724418221      -0.238538453359992     
 -0.221630182301763      -0.204721911243535      -0.187813640185306     
 -0.170905369127078      -0.153997098068849      -0.137088827010621     
 -0.120180555952392      -0.103272284894163      -8.636401383593491E-002
 -0.263213585344832      -0.246305314286603      -0.229397043228374     
 -0.212488772170146      -0.195580501111917      -0.178672230053688     
 -0.161763958995460      -0.144855687937231      -0.127947416879003     
 -0.111039145820774      -9.413087476254554E-002 -0.273915160349486     
 -0.257006889291258      -0.240098618233029      -0.223190347174801     
 -0.206282076116572      -0.189373805058344      -0.172465534000115     
 -0.155557262941887      -0.138648991883658      -0.121740720825430     
 -0.104832449767201      -0.287382679201552      -0.270474408143324     
 -0.253566137085095      -0.236657866026867      -0.219749594968639     
 -0.202841323910410      -0.185933052852181      -0.169024781793953     
 -0.152116510735724      -0.135208239677495      -0.118299968619267     
 -0.303403751083625      -0.286495480025397      -0.269587208967169     
 -0.252678937908940      -0.235770666850712      -0.218862395792483     
 -0.201954124734255      -0.185045853676026      -0.168137582617798     
 -0.151229311559569      -0.134321040501340      -0.321725714121602     
 -0.304817443063373      -0.287909172005145      -0.271000900946917     
 -0.254092629888688      -0.237184358830459      -0.220276087772231     
 -0.203367816714003      -0.186459545655774      -0.169551274597545     
 -0.152643003539317      -0.342059620013362      -0.325151348955134     
 -0.308243077896905      -0.291334806838677      -0.274426535780449     
 -0.257518264722220      -0.240609993663990      -0.223701722605762     
 -0.206793451547534      -0.189885180489305      -0.172976909431077     
 -0.364084790916106      -0.347176519857878      -0.330268248799650     
 -0.313359977741421      -0.296451706683192      -0.279543435624964     
 -0.262635164566735      -0.245726893508507      -0.228818622450278     
 -0.211910351392049      -0.195002080333821      -0.387453876727499     
 -0.370545605669271      -0.353637334611042      -0.336729063552814     
 -0.319820792494585      -0.302912521436357      -0.286004250378128     
 -0.269095979319899      -0.252187708261671      -0.235279437203442     
 -0.218371166145213      -0.411798333004279      -0.394890061946051     
 -0.377981790887823      -0.361073519829593      -0.344165248771365     
 -0.327256977713137      -0.310348706654908      -0.293440435596679     
 -0.276532164538450      -0.259623893480222      -0.242715622421994     
 -0.436734233128290      -0.419825962070060      -0.402917691011831     
 -0.386009419953604      -0.369101148895374      -0.352192877837146     
 -0.335284606778917      -0.318376335720689      -0.301468064662460     
 -0.284559793604232      -0.267651522546003      -0.461868323058589     
 -0.444960052000359      -0.428051780942131      -0.411143509883902     
 -0.394235238825674      -0.377326967767445      -0.360418696709216     
 -0.343510425650988      -0.326602154592760      -0.309693883534531     
 -0.292785612476302      -0.486804223182597      -0.469895952124369     
 -0.452987681066141      -0.436079410007912      -0.419171138949682     
 -0.402262867891455      -0.385354596833226      -0.368446325774996     
 -0.351538054716768      -0.334629783658540      -0.317721512600312     
 -0.511148679459378      -0.494240408401148      -0.477332137342921     
 -0.460423866284693      -0.443515595226464      -0.426607324168235     
 -0.409699053110006      -0.392790782051778      -0.375882510993549     
 -0.358974239935320      -0.342065968877092      -0.534517765270770     
 -0.517609494212542      -0.500701223154313      -0.483792952096085     
 -0.466884681037856      -0.449976409979628      -0.433068138921399     
 -0.416159867863171      -0.399251596804941      -0.382343325746713     
 -0.365435054688485      -0.556542936173515      -0.539634665115285     
 -0.522726394057056      -0.505818122998829      -0.488909851940600     
 -0.472001580882372      -0.455093309824143      -0.438185038765914     
 -0.421276767707686      -0.404368496649457      -0.387460225591229     
 -0.576876842065274      -0.559968571007045      -0.543060299948816     
 -0.526152028890589      -0.509243757832360      -0.492335486774132     
 -0.475427215715903      -0.458518944657675      -0.441610673599446     
 -0.424702402541217      -0.407794131482989      -0.595198805103251     
 -0.578290534045023      -0.561382262986793      -0.544473991928565     
 -0.527565720870337      -0.510657449812107      -0.493749178753880     
 -0.476840907695651      -0.459932636637421      -0.443024365579193     
 -0.426116094520965      -0.611219876985324      -0.594311605927096     
 -0.577403334868866      -0.560495063810638      -0.543586792752410     
 -0.526678521694181      -0.509770250635952      -0.492861979577724     
 -0.475953708519496      -0.459045437461266      -0.442137166403038     
 -0.624687395837391      -0.607779124779163      -0.590870853720932     
 -0.573962582662704      -0.557054311604477      -0.540146040546248     
 -0.523237769488018      -0.506329498429790      -0.489421227371562     
 -0.472512956313332      -0.455604685255103      -0.635388970842045     
 -0.618480699783817      -0.601572428725588      -0.584664157667360     
 -0.567755886609131      -0.550847615550903      -0.533939344492674     
 -0.517031073434446      -0.500122802376217      -0.483214531317990     
 -0.466306260259759      -0.643155831768657      -0.626247560710428     
 -0.609339289652198      -0.592431018593970      -0.575522747535742     
 -0.558614476477512      -0.541706205419285      -0.524797934361054     
 -0.507889663302827      -0.490981392244597      -0.474073121186369     
 -0.647865490580711      -0.630957219522483      -0.614048948464256     
 -0.597140677406025      -0.580232406347796      -0.563324135289567     
 -0.546415864231338      -0.529507593173110      -0.512599322114883     
 -0.495691051056654      -0.478782779998425      -0.649443673145331     
 -0.632535402087101      -0.615627131028875      -0.598718859970645     
 -0.581810588912417      -0.564902317854189      -0.547994046795960     
 -0.531085775737730      -0.514177504679503      -0.497269233621273     
 -0.480360962563045     
  3.960717710078315E-002  3.564645939070483E-002  3.168574168062652E-002
  2.772502397054821E-002  2.376430626046989E-002  1.980358855039158E-002
  1.584287084031326E-002  1.188215313023495E-002  7.921435420156629E-003
  3.960717710078312E-003  0.000000000000000E+000  3.960717710078315E-002
  3.564645939070483E-002  3.168574168062652E-002  2.772502397054821E-002
  2.376430626046989E-002  1.980358855039158E-002  1.584287084031326E-002
  1.188215313023495E-002  7.921435420156629E-003  3.960717710078312E-003
  0.000000000000000E+000  3.960717710078315E-002  3.564645939070483E-002
  3.168574168062652E-002  2.772502397054821E-002  2.376430626046989E-002
  1.980358855039158E-002  1.584287084031326E-002  1.188215313023495E-002
  7.921435420156629E-003  3.960717710078312E-003  0.000000000000000E+000
  3.960717710078315E-002  3.564645939070483E-002  3.168574168062652E-002
  2.772502397054821E-002  2.376430626046989E-002  1.980358855039158E-002
  1.584287084031326E-002  1.188215313023495E-002  7.921435420156629E-003
  3.960717710078312E-003  0.000000000000000E+000  3.960717710078315E-002
  3.564645939070483E-002  3.168574168062652E-002  2.772502397054821E-002
  2.376430626046989E-002  1.980358855039158E-002  1.584287084031326E-002
  1.188215313023495E-002  7.921435420156629E-003  3.960717710078312E-003
  0.000000000000000E+000  3.960717710078315E-002  3.564645939070483E-002
  3.168574168062652E-002  2.772502397054821E-002  2.376430626046989E-002
  1.980358855039158E-002  1.584287084031326E-002  1.188215313023495E-002
  7.921435420156629E-003  3.960717710078312E-003  0.000000000000000E+000
  3.960717710078315E-002  3.564645939070483E-002  3.168574168062652E-002
  2.772502397054821E-002  2.376430626046989E-002  1.980358855039158E-002
  1.584287084031326E-002  1.188215313023495E-002  7.921435420156629E-003
  3.960717710078312E-003  0.000000000000000E+000  3.960717710078315E-002
  3.564645939070483E-002  3.168574168062652E-002  2.772502397054821E-002
  2.376430626046989E-002  1.980358855039158E-002  1.584287084031326E-002
  1.188215313023495E-002  7.921435420156629E-003  3.960717710078312E-003
  0.000000000000000E+000  3.960717710078315E-002  3.564645939070483E-002
  3.168574168062652E-002  2.772502397054821E-002  2.376430626046989E-002
  1.980358855039158E-002  1.584287084031326E-002  1.188215313023495E-002
  7.921435420156629E-003  3.960717710078312E-003  0.000000000000000E+000
  3.960717710078315E-002  3.564645939070483E-002  3.168574168062652E-002
  2.772502397054821E-002  2.376430626046989E-002  1.980358855039158E-002
  1.584287084031326E-002  1.188215313023495E-002  7.921435420156629E-003
  3.960717710078312E-003  0.000000000000000E+000  3.960717710078315E-002
  3.564645939070483E-002  3.168574168062652E-002  2.772502397054821E-002
  2.376430626046989E-002  1.980358855039158E-002  1.584287084031326E-002
  1.188215313023495E-002  7.921435420156629E-003  3.960717710078312E-003
  0.000000000000000E+000  3.960717710078315E-002  3.564645939070483E-002
  3.168574168062652E-002  2.772502397054821E-002  2.376430626046989E-002
  1.980358855039158E-002  1.584287084031326E-002  1.188215313023495E-002
  7.921435420156629E-003  3.960717710078312E-003  0.000000000000000E+000
  3.960717710078315E-002  3.564645939070483E-002  3.168574168062652E-002
  2.772502397054821E-002  2.376430626046989E-002  1.980358855039158E-002
  1.584287084031326E-002  1.188215313023495E-002  7.921435420156629E-003
  3.960717710078312E-003  0.000000000000000E+000  3.960717710078315E-002
  3.564645939070483E-002  3.168574168062652E-002  2.772502397054821E-002
  2.376430626046989E-002  1.980358855039158E-002  1.584287084031326E-002
  1.188215313023495E-002  7.921435420156629E-003  3.960717710078312E-003
  0.000000000000000E+000  3.960717710078315E-002  3.564645939070483E-002
  3.168574168062652E-002  2.772502397054821E-002  2.376430626046989E-002
  1.980358855039158E-002  1.584287084031326E-002  1.188215313023495E-002
  7.921435420156629E-003  3.960717710078312E-003  0.000000000000000E+000
  3.960717710078315E-002  3.564645939070483E-002  3.168574168062652E-002
  2.772502397054821E-002  2.376430626046989E-002  1.980358855039158E-002
  1.584287084031326E-002  1.188215313023495E-002  7.921435420156629E-003
  3.960717710078312E-003  0.000000000000000E+000  3.960717710078315E-002
  3.564645939070483E-002  3.168574168062652E-002  2.772502397054821E-002
  2.376430626046989E-002  1.980358855039158E-002  1.584287084031326E-002
  1.188215313023495E-002  7.921435420156629E-003  3.960717710078312E-003
  0.000000000000000E+000  3.960717710078315E-002  3.564645939070483E-002
  3.168574168062652E-002  2.772502397054821E-002  2.376430626046989E-002
  1.980358855039158E-002  1.584287084031326E-002  1.188215313023495E-002
  7.921435420156629E-003  3.960717710078312E-003  0.000000000000000E+000
  3.960717710078315E-002  3.564645939070483E-002  3.168574168062652E-002
  2.772502397054821E-002  2.376430626046989E-002  1.980358855039158E-002
  1.584287084031326E-002  1.188215313023495E-002  7.921435420156629E-003
  3.960717710078312E-003  0.000000000000000E+000  3.960717710078315E-002
  3.564645939070483E-002  3.168574168062652E-002  2.772502397054821E-002
  2.376430626046989E-002  1.980358855039158E-002  1.584287084031326E-002
  1.188215313023495E-002  7.921435420156629E-003  3.960717710078312E-003
  0.000000000000000E+000  3.960717710078315E-002  3.564645939070483E-002
  3.168574168062652E-002  2.772502397054821E-002  2.376430626046989E-002
  1.980358855039158E-002  1.584287084031326E-002  1.188215313023495E-002
  7.921435420156629E-003  3.960717710078312E-003  0.000000000000000E+000
  3.960717710078315E-002  3.564645939070483E-002  3.168574168062652E-002
  2.772502397054821E-002  2.376430626046989E-002  1.980358855039158E-002
  1.584287084031326E-002  1.188215313023495E-002  7.921435420156629E-003
  3.960717710078312E-003  0.000000000000000E+000  3.960717710078315E-002
  3.564645939070483E-002  3.168574168062652E-002  2.772502397054821E-002
  2.376430626046989E-002  1.980358855039158E-002  1.584287084031326E-002
  1.188215313023495E-002  7.921435420156629E-003  3.960717710078312E-003
  0.000000000000000E+000  3.960717710078315E-002  3.564645939070483E-002
  3.168574168062652E-002  2.772502397054821E-002  2.376430626046989E-002
  1.980358855039158E-002  1.584287084031326E-002  1.188215313023495E-002
  7.921435420156629E-003  3.960717710078312E-003  0.000000000000000E+000
  3.960717710078315E-002  3.564645939070483E-002  3.168574168062652E-002
  2.772502397054821E-002  2.376430626046989E-002  1.980358855039158E-002
  1.584287084031326E-002  1.188215313023495E-002  7.921435420156629E-003
  3.960717710078312E-003  0.000000000000000E+000  3.960717710078315E-002
  3.564645939070483E-002  3.168574168062652E-002  2.772502397054821E-002
  2.376430626046989E-002  1.980358855039158E-002  1.584287084031326E-002
  1.188215313023495E-002  7.921435420156629E-003  3.960717710078312E-003
  0.000000000000000E+000
  0.108200375402290       0.172483619075902       0.231534550131587     
  0.287423593689088       0.338336813113178       0.382256681007982     
  0.417943796117070       0.444839314542336       0.462693781587165     
  0.470691717084489       0.181797483653295       0.291753819435391     
  0.391647781147406       0.486098384306999       0.572526020008507     
  0.647591444830202       0.708934865158124       0.755400702743977     
  0.786750582090820       0.803298348092519       0.249081204003765     
  0.402157565837282       0.538735892629983       0.667237552211536     
  0.785991065476377       0.891104641527896       0.978501565038523     
   1.04555238964957        1.09146020126221        1.11538133769925     
  0.306566100353243       0.491942903787707       0.653578256878625     
  0.803228861171033       0.942663173483644        1.06899340817299     
   1.17626141663958        1.25939043753233        1.31559352642262     
   1.34060397710394       0.359038295232289       0.566153880406164     
  0.740598918554080       0.898613665056840        1.04403853664596     
   1.17543527909008        1.28724257622333        1.37550748142060     
   1.43666929771811        1.46375658951961       0.417907751699643     
  0.645094102077671       0.827561699922685       0.987367049588836     
   1.13039767578607        1.25630669063863        1.36221846530012     
   1.44664893716204        1.50727553034309        1.53730332563285     
  0.494146348868025       0.750032570453038       0.946176222801929     
   1.11063969644624        1.25252139457997        1.37490567351772     
   1.47823928190412        1.56159864696973        1.62261975645705     
   1.65614598145350       0.591257157544503       0.887873604187866     
   1.10865054570383        1.28885714960642        1.44079983599670     
   1.56978028718011        1.67800155570360        1.76584700949503     
   1.83201455946194        1.87210841920460       0.707921138219967     
   1.05606028995407        1.31066614259495        1.51538520003500     
   1.68593962677561        1.82950960396110        1.94952528081585     
   2.04723171453916        2.12189510983868        2.16921645560343     
  0.843099631680186        1.25204819340537        1.54744876267480     
   1.78239181169894        1.97631377666660        2.13844569520793     
   2.27351898707580        2.38353824667236        2.46811489617246     
   2.52280421424187       0.995016654471126        1.47279526513491     
   1.81469872343713        2.08432773992765        2.30523735230627     
   2.48874993861198        2.64081524779345        2.76423995355524     
   2.85910333765781        2.92089249024400        1.16177068205971     
   1.71518851833666        2.10824491306648        2.41601353219565     
   2.66647044779948        2.87319557443065        3.04347835055140     
   3.18098503669176        3.28630001511734        3.35490672417882     
   1.34175989923048        1.97652038844411        2.42430278245364     
   2.77261090235771        3.05424485810402        3.28526602886104     
   3.47443104169982        3.62632574559874        3.74206848858707     
   3.81717680187942        1.53373080985037        2.25468871045477     
   2.76000685202039        3.15053495102027        3.46428623331030     
   3.72002878509821        3.92813320531018        4.09420259200003     
   4.21995644431113        4.30102448372255        1.73814645961231     
   2.54992630794153        3.11509515734777        3.54887528543828     
   3.89494946998907        4.17507984006856        4.40145971454738     
   4.58086824971524        4.71575346015350        4.80199425490104     
   1.96026917590254        2.86853551433331        3.49570990934316     
   3.97310738250175        4.35086852853424        4.65421313841883     
   4.89746946127079        5.08882261600223        5.23163365127887     
   5.32221199586720        2.20864206682603        3.22040244302125     
   3.91130875206436        4.43174253389535        4.83962580215085     
   5.16433071331322        5.42270409743936        5.62457412979591     
   5.77439400213063        5.86904841047709        2.47062457916429     
   3.58608852503367        4.33752589090476        4.89676235753640     
   5.33053983755736        5.67287852414753        5.94337850269878     
   6.15364203314563        6.30934669773890        6.40811824198622     
   2.68844403966373        3.88324888307175        4.67628970470760     
   5.25873517916162        5.70536631970526        6.05442898352370     
   6.32803896631726        6.53945890788963        6.69563001097980     
   6.79537443394393        2.78916930053342        4.00658872987803     
   4.80054058395862        5.37428014804406        5.80799951610737     
   6.14284297756027        6.40254696367300        6.60132723863452     
   6.74691399170600        6.83963067743319        2.73872538780393     
   3.90315255291662        4.64428356594326        5.16902193323148     
   5.55934548273747        5.85696521882000        6.08554691661248     
   6.25899293990553        6.38483727423922        6.46423385946512     
   2.53774521444846        3.56853602458191        4.20212961641598     
   4.64078460855231        4.96273604518085        5.20635075561480     
   5.39276798412949        5.53428434578523        5.63774281478924     
   5.70439538949644        2.18698625619106        3.00527120917470     
   3.48911533646278        3.81939457568131        4.06077891178999     
   4.24345739350318        4.38382417095916        4.49186073860910     
   4.57479656036983        4.63880035832275        1.67025905838711     
   2.22224621520838        2.54425261536600        2.76462375311294     
   2.92635018352835        3.04924733188293        3.14411040285969     
   3.21757957707724        3.27462909237187        3.32219809523356     
   1.01502311554637        1.32410203697468        1.50609993974182     
   1.63135347904790        1.72359593123714        1.79384237824646     
   1.84808358219498        1.88985209572082        1.92117909975258     
   1.94162054114441     
  0.000000000000000E+000  0.000000000000000E+000  0.000000000000000E+000
  0.000000000000000E+000  0.000000000000000E+000  0.000000000000000E+000
  0.000000000000000E+000  0.000000000000000E+000  0.000000000000000E+000
  0.000000000000000E+000  0.000000000000000E+000  0.000000000000000E+000
  0.000000000000000E+000  0.000000000000000E+000  0.000000000000000E+000
  0.000000000000000E+000  0.000000000000000E+000  0.000000000000000E+000
  0.000000000000000E+000  0.000000000000000E+000  0.000000000000000E+000
  0.000000000000000E+000  0.000000000000000E+000  0.000000000000000E+000
  0.000000000000000E+000  0.000000000000000E+000  0.000000000000000E+000
  0.000000000000000E+000  0.000000000000000E+000  0.000000000000000E+000
  0.000000000000000E+000  0.000000000000000E+000  0.000000000000000E+000
  0.000000000000000E+000  0.000000000000000E+000  0.000000000000000E+000
  0.000000000000000E+000  0.000000000000000E+000  0.000000000000000E+000
  0.000000000000000E+000  0.000000000000000E+000  0.000000000000000E+000
  0.000000000000000E+000  0.000000000000000E+000  0.000000000000000E+000
  0.000000000000000E+000  0.000000000000000E+000  0.000000000000000E+000
  0.000000000000000E+000  0.000000000000000E+000  0.000000000000000E+000
  0.000000000000000E+000  0.000000000000000E+000  0.000000000000000E+000
  0.000000000000000E+000  0.000000000000000E+000  0.000000000000000E+000
  0.000000000000000E+000  0.000000000000000E+000  0.000000000000000E+000
  0.000000000000000E+000  0.000000000000000E+000  0.000000000000000E+000
  0.000000000000000E+000  0.000000000000000E+000  0.000000000000000E+000
  0.000000000000000E+000  0.000000000000000E+000  0.000000000000000E+000
  0.000000000000000E+000  0.000000000000000E+000  0.000000000000000E+000
  0.000000000000000E+000  0.000000000000000E+000  0.000000000000000E+000
  0.000000000000000E+000  0.000000000000000E+000  0.000000000000000E+000
  0.000000000000000E+000  0.000000000000000E+000  0.000000000000000E+000
  0.000000000000000E+000  0.000000000000000E+000  0.000000000000000E+000
  0.000000000000000E+000  0.000000000000000E+000  0.000000000000000E+000
  0.000000000000000E+000  0.000000000000000E+000  0.000000000000000E+000
  0.000000000000000E+000  0.000000000000000E+000  0.000000000000000E+000
  0.000000000000000E+000  0.000000000000000E+000  0.000000000000000E+000
  0.000000000000000E+000  0.000000000000000E+000  0.000000000000000E+000
  0.000000000000000E+000  0.000000000000000E+000  0.000000000000000E+000
  0.000000000000000E+000  0.000000000000000E+000  0.000000000000000E+000
  0.000000000000000E+000  0.000000000000000E+000  0.000000000000000E+000
  0.000000000000000E+000  0.000000000000000E+000  0.000000000000000E+000
  0.000000000000000E+000  0.000000000000000E+000  0.000000000000000E+000
  0.000000000000000E+000  0.000000000000000E+000  0.000000000000000E+000