 Title = "Wing and Wake"
 VARIABLES = "X" "Y" "Z" "GAM" "skew"
 Zone I=   11 J=   26 K=1  T="Blade"
 DATAPACKING=BLOCK
 VARLOCATION=([4]=CELLCENTERED,[5]=CELLCENTERED)
 -0.216208788821204      -0.197850232324100      -0.179491675826995     
 -0.161133119329891      -0.142774562832786      -0.124416006335682     
 -0.106057449838577      -8.769889334147284E-002 -6.934033684436869E-002
 -5.098178034726388E-002 -3.262322385015969E-002 -0.216851744166106     
 -0.198493187669002      -0.180134631171897      -0.161776074674794     
 -0.143417518177688      -0.125058961680584      -0.106700405183480     
 -8.834184868637544E-002 -6.998329218927113E-002 -5.162473569216678E-002
 -3.326617919506220E-002 -0.218770470410942      -0.200411913913838     
 -0.182053357416733      -0.163694800919629      -0.145336244422524     
 -0.126977687925420      -0.108619131428315      -9.026057493121113E-002
 -7.190201843410671E-002 -5.354346193700203E-002 -3.518490543989763E-002
 -0.221934708096638      -0.203576151599533      -0.185217595102429     
 -0.166859038605325      -0.148500482108220      -0.130141925611116     
 -0.111783369114012      -9.342481261690690E-002 -7.506625611980247E-002
 -5.670769962269789E-002 -3.834914312559379E-002 -0.226294555304667     
 -0.207935998807563      -0.189577442310458      -0.171218885813354     
 -0.152860329316249      -0.134501772819145      -0.116143216322040     
 -9.778465982493594E-002 -7.942610332783143E-002 -6.106754683072715E-002
 -4.270899033362254E-002 -0.231781254640111      -0.213422698143007     
 -0.195064141645903      -0.176705585148798      -0.158347028651694     
 -0.139988472154589      -0.121629915657485      -0.103271359160381     
 -8.491280266327600E-002 -6.655424616617163E-002 -4.819568966906696E-002
 -0.238308277576857      -0.219949721079753      -0.201591164582649     
 -0.183232608085544      -0.164874051588439      -0.146515495091335     
 -0.128156938594231      -0.109798382097126      -9.143982560002216E-002
 -7.308126910291747E-002 -5.472271260581304E-002 -0.245772689064136     
 -0.227414132567032      -0.209055576069928      -0.190697019572824     
 -0.172338463075719      -0.153979906578614      -0.135621350081510     
 -0.117262793584406      -9.890423708730056E-002 -8.054568059019691E-002
 -6.218712409309251E-002 -0.254056770873772      -0.235698214376667     
 -0.217339657879563      -0.198981101382459      -0.180622544885355     
 -0.162263988388250      -0.143905431891145      -0.125546875394041     
 -0.107188318896936      -8.882976239983169E-002 -7.047120590272758E-002
 -0.263029878086954      -0.244671321589850      -0.226312765092746     
 -0.207954208595641      -0.189595652098537      -0.171237095601432     
 -0.152878539104328      -0.134519982607224      -0.116161426110119     
 -9.780286961301454E-002 -7.944431311591008E-002 -0.272550499442659     
 -0.254191942945554      -0.235833386448450      -0.217474829951346     
 -0.199116273454241      -0.180757716957137      -0.162399160460032     
 -0.144040603962927      -0.125682047465823      -0.107323490968718     
 -8.896493447161397E-002 -0.282468489054760      -0.264109932557656     
 -0.245751376060551      -0.227392819563446      -0.209034263066342     
 -0.190675706569239      -0.172317150072134      -0.153958593575029     
 -0.135600037077924      -0.117241480580821      -9.888292408371664E-002
 -0.292627434302358      -0.274268877805253      -0.255910321308148     
 -0.237551764811045      -0.219193208313940      -0.200834651816836     
 -0.182476095319731      -0.164117538822627      -0.145758982325523     
 -0.127400425828418      -0.109041869331314      -0.302867122550237     
 -0.284508566053131      -0.266150009556028      -0.247791453058923     
 -0.229432896561819      -0.211074340064714      -0.192715783567609     
 -0.174357227070506      -0.155998670573401      -0.137640114076296     
 -0.119281557579192      -0.313026067797833      -0.294667511300730     
 -0.276308954803625      -0.257950398306520      -0.239591841809416     
 -0.221233285312313      -0.202874728815208      -0.184516172318101     
 -0.166157615820998      -0.147799059323894      -0.129440502826790     
 -0.322944057409936      -0.304585500912831      -0.286226944415727     
 -0.267868387918624      -0.249509831421519      -0.231151274924414     
 -0.212792718427310      -0.194434161930205      -0.176075605433101     
 -0.157717048935996      -0.139358492438892      -0.332464678765639     
 -0.314106122268535      -0.295747565771430      -0.277389009274327     
 -0.259030452777222      -0.240671896280118      -0.222313339783012     
 -0.203954783285909      -0.185596226788804      -0.167237670291699     
 -0.148879113794596      -0.341437785978823      -0.323079229481717     
 -0.304720672984613      -0.286362116487509      -0.268003559990405     
 -0.249645003493300      -0.231286446996196      -0.212927890499090     
 -0.194569334001987      -0.176210777504882      -0.157852221007779     
 -0.349721867788457      -0.331363311291352      -0.313004754794248     
 -0.294646198297145      -0.276287641800040      -0.257929085302935     
 -0.239570528805831      -0.221211972308727      -0.202853415811623     
 -0.184494859314517      -0.166136302817413      -0.357186279275737     
 -0.338827722778631      -0.320469166281528      -0.302110609784423     
 -0.283752053287320      -0.265393496790213      -0.247034940293112     
 -0.228676383796006      -0.210317827298900      -0.191959270801797     
 -0.173600714304693      -0.363713302212482      -0.345354745715378     
 -0.326996189218273      -0.308637632721168      -0.290279076224064     
 -0.271920519726961      -0.253561963229856      -0.235203406732751     
 -0.216844850235648      -0.198486293738542      -0.180127737241438     
 -0.369200001547927      -0.350841445050824      -0.332482888553716     
 -0.314124332056613      -0.295765775559511      -0.277407219062406     
 -0.259048662565300      -0.240690106068197      -0.222331549571093     
 -0.203972993073986      -0.185614436576882      -0.373559848755956     
 -0.355201292258852      -0.336842735761747      -0.318484179264643     
 -0.300125622767539      -0.281767066270434      -0.263408509773330     
 -0.245049953276225      -0.226691396779121      -0.208332840282017     
 -0.189974283784911      -0.376724086441653      -0.358365529944549     
 -0.340006973447443      -0.321648416950339      -0.303289860453234     
 -0.284931303956129      -0.266572747459026      -0.248214190961920     
 -0.229855634464817      -0.211497077967711      -0.193138521470607     
 -0.378642812686487      -0.360284256189384      -0.341925699692280     
 -0.323567143195174      -0.305208586698070      -0.286850030200964     
 -0.268491473703859      -0.250132917206757      -0.231774360709653     
 -0.213415804212547      -0.195057247715443      -0.379285768031391     
 -0.360927211534285      -0.342568655037182      -0.324210098540076     
 -0.305851542042972      -0.287492985545868      -0.269134429048764     
 -0.250775872551659      -0.232417316054554      -0.214058759557449     
 -0.195700203060345     
  0.155820565748504       0.159010960483281       0.162201355218057     
  0.165391749952834       0.168582144687611       0.171772539422387     
  0.174962934157164       0.178153328891940       0.181343723626717     
  0.184534118361493       0.187724513096270       0.159520337408682     
  0.162710732143459       0.165901126878235       0.169091521613013     
  0.172281916347788       0.175472311082565       0.178662705817342     
  0.181853100552118       0.185043495286895       0.188233890021672     
  0.191424284756449       0.170561304779999       0.173751699514776     
  0.176942094249552       0.180132488984329       0.183322883719105     
  0.186513278453882       0.189703673188659       0.192894067923436     
  0.196084462658212       0.199274857392988       0.202465252127765     
  0.188769345211455       0.191959739946231       0.195150134681009     
  0.198340529415785       0.201530924150562       0.204721318885338     
  0.207911713620115       0.211102108354891       0.214292503089668     
  0.217482897824445       0.220673292559220       0.213857307028489     
  0.217047701763265       0.220238096498042       0.223428491232819     
  0.226618885967595       0.229809280702372       0.232999675437149     
  0.236190070171925       0.239380464906702       0.242570859641479     
  0.245761254376255       0.245429538086425       0.248619932821202     
  0.251810327555978       0.255000722290755       0.258191117025532     
  0.261381511760309       0.264571906495085       0.267762301229862     
  0.270952695964639       0.274143090699415       0.277333485434192     
  0.282988125441143       0.286178520175920       0.289368914910697     
  0.292559309645474       0.295749704380249       0.298940099115027     
  0.302130493849804       0.305320888584580       0.308511283319356     
  0.311701678054132       0.314892072788909       0.325940747733647     
  0.329131142468423       0.332321537203201       0.335511931937977     
  0.338702326672753       0.341892721407530       0.345083116142307     
  0.348273510877084       0.351463905611860       0.354654300346636     
  0.357844695081414       0.373610016451730       0.376800411186508     
  0.379990805921284       0.383181200656061       0.386371595390838     
  0.389561990125613       0.392752384860390       0.395942779595167     
  0.399133174329944       0.402323569064720       0.405513963799496     
  0.425244158751469       0.428434553486245       0.431624948221022     
  0.434815342955799       0.438005737690575       0.441196132425351     
  0.444386527160128       0.447576921894905       0.450767316629681     
  0.453957711364457       0.457148106099234       0.480028873364054     
  0.483219268098831       0.486409662833606       0.489600057568383     
  0.492790452303160       0.495980847037937       0.499171241772711     
  0.502361636507489       0.505552031242265       0.508742425977042     
  0.511932820711819       0.537100172613241       0.540290567348017     
  0.543480962082796       0.546671356817569       0.549861751552348     
  0.553052146287125       0.556242541021901       0.559432935756678     
  0.562623330491453       0.565813725226230       0.569004119961006     
  0.595558008017132       0.598748402751908       0.601938797486684     
  0.605129192221461       0.608319586956238       0.611509981691014     
  0.614700376425791       0.617890771160568       0.621081165895345     
  0.624271560630121       0.627461955364897       0.654480464590388     
  0.657670859325164       0.660861254059939       0.664051648794715     
  0.667242043529493       0.670432438264270       0.673622832999046     
  0.676813227733822       0.680003622468602       0.683194017203376     
  0.686384411938152       0.712938299994276       0.716128694729053     
  0.719319089463831       0.722509484198606       0.725699878933383     
  0.728890273668161       0.732080668402936       0.735271063137713     
  0.738461457872488       0.741651852607264       0.744842247342044     
  0.770009599243465       0.773199993978241       0.776390388713018     
  0.779580783447794       0.782771178182572       0.785961572917348     
  0.789151967652123       0.792342362386901       0.795532757121677     
  0.798723151856452       0.801913546591232       0.824794313856050     
  0.827984708590825       0.831175103325602       0.834365498060380     
  0.837555892795155       0.840746287529933       0.843936682264709     
  0.847127076999487       0.850317471734262       0.853507866469040     
  0.856698261203817       0.876428456155787       0.879618850890564     
  0.882809245625341       0.885999640360117       0.889190035094894     
  0.892380429829672       0.895570824564447       0.898761219299223     
  0.901951614033999       0.905142008768776       0.908332403503553     
  0.924097724873870       0.927288119608646       0.930478514343423     
  0.933668909078200       0.936859303812977       0.940049698547754     
  0.943240093282528       0.946430488017306       0.949620882752084     
  0.952811277486860       0.956001672221635       0.967050347166375     
  0.970240741901150       0.973431136635927       0.976621531370705     
  0.979811926105481       0.983002320840256       0.986192715575034     
  0.989383110309811       0.992573505044587       0.995763899779365     
  0.998954294514139        1.00460893452109        1.00779932925587     
   1.01098972399064        1.01418011872542        1.01737051346020     
   1.02056090819497        1.02375130292975        1.02694169766453     
   1.03013209239930        1.03332248713408        1.03651288186886     
   1.03618116557903        1.03937156031380        1.04256195504858     
   1.04575234978336        1.04894274451814        1.05213313925291     
   1.05532353398769        1.05851392872246        1.06170432345724     
   1.06489471819202        1.06808511292680        1.06126912739606     
   1.06445952213084        1.06764991686561        1.07084031160039     
   1.07403070633517        1.07722110106995        1.08041149580472     
   1.08360189053950        1.08679228527428        1.08998268000905     
   1.09317307474383        1.07947716782752        1.08266756256230     
   1.08585795729707        1.08904835203185        1.09223874676663     
   1.09542914150140        1.09861953623618        1.10180993097095     
   1.10500032570573        1.10819072044051        1.11138111517529     
   1.09051813519883        1.09370852993361        1.09689892466839     
   1.10008931940316        1.10327971413794        1.10647010887272     
   1.10966050360749        1.11285089834227        1.11604129307705     
   1.11923168781182        1.12242208254660        1.09421790685901     
   1.09740830159379        1.10059869632857        1.10378909106334     
   1.10697948579812        1.11016988053290        1.11336027526767     
   1.11655067000245        1.11974106473723        1.12293145947200     
   1.12612185420678     
  3.960717710078315E-002  3.564645939070483E-002  3.168574168062652E-002
  2.772502397054821E-002  2.376430626046989E-002  1.980358855039158E-002
  1.584287084031326E-002  1.188215313023495E-002  7.921435420156629E-003
  3.960717710078312E-003  0.000000000000000E+000  3.960717710078315E-002
  3.564645939070483E-002  3.168574168062652E-002  2.772502397054821E-002
  2.376430626046989E-002  1.980358855039158E-002  1.584287084031326E-002
  1.188215313023495E-002  7.921435420156629E-003  3.960717710078312E-003
  0.000000000000000E+000  3.960717710078315E-002  3.564645939070483E-002
  3.168574168062652E-002  2.772502397054821E-002  2.376430626046989E-002
  1.980358855039158E-002  1.584287084031326E-002  1.188215313023495E-002
  7.921435420156629E-003  3.960717710078312E-003  0.000000000000000E+000
  3.960717710078315E-002  3.564645939070483E-002  3.168574168062652E-002
  2.772502397054821E-002  2.376430626046989E-002  1.980358855039158E-002
  1.584287084031326E-002  1.188215313023495E-002  7.921435420156629E-003
  3.960717710078312E-003  0.000000000000000E+000  3.960717710078315E-002
  3.564645939070483E-002  3.168574168062652E-002  2.772502397054821E-002
  2.376430626046989E-002  1.980358855039158E-002  1.584287084031326E-002
  1.188215313023495E-002  7.921435420156629E-003  3.960717710078312E-003
  0.000000000000000E+000  3.960717710078315E-002  3.564645939070483E-002
  3.168574168062652E-002  2.772502397054821E-002  2.376430626046989E-002
  1.980358855039158E-002  1.584287084031326E-002  1.188215313023495E-002
  7.921435420156629E-003  3.960717710078312E-003  0.000000000000000E+000
  3.960717710078315E-002  3.564645939070483E-002  3.168574168062652E-002
  2.772502397054821E-002  2.376430626046989E-002  1.980358855039158E-002
  1.584287084031326E-002  1.188215313023495E-002  7.921435420156629E-003
  3.960717710078312E-003  0.000000000000000E+000  3.960717710078315E-002
  3.564645939070483E-002  3.168574168062652E-002  2.772502397054821E-002
  2.376430626046989E-002  1.980358855039158E-002  1.584287084031326E-002
  1.188215313023495E-002  7.921435420156629E-003  3.960717710078312E-003
  0.000000000000000E+000  3.960717710078315E-002  3.564645939070483E-002
  3.168574168062652E-002  2.772502397054821E-002  2.376430626046989E-002
  1.980358855039158E-002  1.584287084031326E-002  1.188215313023495E-002
  7.921435420156629E-003  3.960717710078312E-003  0.000000000000000E+000
  3.960717710078315E-002  3.564645939070483E-002  3.168574168062652E-002
  2.772502397054821E-002  2.376430626046989E-002  1.980358855039158E-002
  1.584287084031326E-002  1.188215313023495E-002  7.921435420156629E-003
  3.960717710078312E-003  0.000000000000000E+000  3.960717710078315E-002
  3.564645939070483E-002  3.168574168062652E-002  2.772502397054821E-002
  2.376430626046989E-002  1.980358855039158E-002  1.584287084031326E-002
  1.188215313023495E-002  7.921435420156629E-003  3.960717710078312E-003
  0.000000000000000E+000  3.960717710078315E-002  3.564645939070483E-002
  3.168574168062652E-002  2.772502397054821E-002  2.376430626046989E-002
  1.980358855039158E-002  1.584287084031326E-002  1.188215313023495E-002
  7.921435420156629E-003  3.960717710078312E-003  0.000000000000000E+000
  3.960717710078315E-002  3.564645939070483E-002  3.168574168062652E-002
  2.772502397054821E-002  2.376430626046989E-002  1.980358855039158E-002
  1.584287084031326E-002  1.188215313023495E-002  7.921435420156629E-003
  3.960717710078312E-003  0.000000000000000E+000  3.960717710078315E-002
  3.564645939070483E-002  3.168574168062652E-002  2.772502397054821E-002
  2.376430626046989E-002  1.980358855039158E-002  1.584287084031326E-002
  1.188215313023495E-002  7.921435420156629E-003  3.960717710078312E-003
  0.000000000000000E+000  3.960717710078315E-002  3.564645939070483E-002
  3.168574168062652E-002  2.772502397054821E-002  2.376430626046989E-002
  1.980358855039158E-002  1.584287084031326E-002  1.188215313023495E-002
  7.921435420156629E-003  3.960717710078312E-003  0.000000000000000E+000
  3.960717710078315E-002  3.564645939070483E-002  3.168574168062652E-002
  2.772502397054821E-002  2.376430626046989E-002  1.980358855039158E-002
  1.584287084031326E-002  1.188215313023495E-002  7.921435420156629E-003
  3.960717710078312E-003  0.000000000000000E+000  3.960717710078315E-002
  3.564645939070483E-002  3.168574168062652E-002  2.772502397054821E-002
  2.376430626046989E-002  1.980358855039158E-002  1.584287084031326E-002
  1.188215313023495E-002  7.921435420156629E-003  3.960717710078312E-003
  0.000000000000000E+000  3.960717710078315E-002  3.564645939070483E-002
  3.168574168062652E-002  2.772502397054821E-002  2.376430626046989E-002
  1.980358855039158E-002  1.584287084031326E-002  1.188215313023495E-002
  7.921435420156629E-003  3.960717710078312E-003  0.000000000000000E+000
  3.960717710078315E-002  3.564645939070483E-002  3.168574168062652E-002
  2.772502397054821E-002  2.376430626046989E-002  1.980358855039158E-002
  1.584287084031326E-002  1.188215313023495E-002  7.921435420156629E-003
  3.960717710078312E-003  0.000000000000000E+000  3.960717710078315E-002
  3.564645939070483E-002  3.168574168062652E-002  2.772502397054821E-002
  2.376430626046989E-002  1.980358855039158E-002  1.584287084031326E-002
  1.188215313023495E-002  7.921435420156629E-003  3.960717710078312E-003
  0.000000000000000E+000  3.960717710078315E-002  3.564645939070483E-002
  3.168574168062652E-002  2.772502397054821E-002  2.376430626046989E-002
  1.980358855039158E-002  1.584287084031326E-002  1.188215313023495E-002
  7.921435420156629E-003  3.960717710078312E-003  0.000000000000000E+000
  3.960717710078315E-002  3.564645939070483E-002  3.168574168062652E-002
  2.772502397054821E-002  2.376430626046989E-002  1.980358855039158E-002
  1.584287084031326E-002  1.188215313023495E-002  7.921435420156629E-003
  3.960717710078312E-003  0.000000000000000E+000  3.960717710078315E-002
  3.564645939070483E-002  3.168574168062652E-002  2.772502397054821E-002
  2.376430626046989E-002  1.980358855039158E-002  1.584287084031326E-002
  1.188215313023495E-002  7.921435420156629E-003  3.960717710078312E-003
  0.000000000000000E+000  3.960717710078315E-002  3.564645939070483E-002
  3.168574168062652E-002  2.772502397054821E-002  2.376430626046989E-002
  1.980358855039158E-002  1.584287084031326E-002  1.188215313023495E-002
  7.921435420156629E-003  3.960717710078312E-003  0.000000000000000E+000
  3.960717710078315E-002  3.564645939070483E-002  3.168574168062652E-002
  2.772502397054821E-002  2.376430626046989E-002  1.980358855039158E-002
  1.584287084031326E-002  1.188215313023495E-002  7.921435420156629E-003
  3.960717710078312E-003  0.000000000000000E+000  3.960717710078315E-002
  3.564645939070483E-002  3.168574168062652E-002  2.772502397054821E-002
  2.376430626046989E-002  1.980358855039158E-002  1.584287084031326E-002
  1.188215313023495E-002  7.921435420156629E-003  3.960717710078312E-003
  0.000000000000000E+000
  0.170739645003517       0.248723923184162       0.312227468273048     
  0.366886344557813       0.413028328517454       0.451039898386453     
  0.481535016239152       0.505104755615330       0.522721721275230     
  0.534316962161926       0.274329967134528       0.406830530481720     
  0.513711760846914       0.605784656917189       0.684170128288881     
  0.749321405435101       0.801964301746285       0.843060137304048     
  0.874419111938232       0.897968107224830       0.335785401274416     
  0.513677540258276       0.656876713072318       0.780746723610824     
  0.888337522059689       0.979706727480809        1.05487722958141     
   1.11483550894072        1.16128923579349        1.19548184753327     
  0.350003633487219       0.548331186287935       0.710299636787212     
  0.852090746774043       0.977861855552053        1.08708221511156     
   1.17863377405724        1.25231516815465        1.30775563115978     
   1.34350428631833       0.337853216581989       0.534398536818986     
  0.697899629136078       0.842895627903400       0.972830734727418     
   1.08690698508752        1.18363757633320        1.26139494526040     
   1.31855630455384        1.35286593900688       0.333807118904649     
  0.524686954609622       0.682249203510783       0.821900671002183     
  0.947159670840036        1.05751310303530        1.15078900278249     
   1.22439809053672        1.27719207665438        1.30878125007173     
  0.366025392826842       0.565226017545869       0.724004999297367     
  0.861215391594952       0.982087179788464        1.08738778178318     
   1.17614781235924        1.24715593109263        1.29953418553632     
   1.33138904503372       0.441510443163458       0.669263579974577     
  0.843125933065553       0.988146537539300        1.11251090613744     
   1.21926512525917        1.30935535703388        1.38276741907844     
   1.43871989350139        1.47440026612276       0.555861238694961     
  0.831532031269684        1.03486992212274        1.19965493327994     
   1.33785072406172        1.45482684257457        1.55315258252927     
   1.63382953053196        1.69642134916786        1.73760872132615     
  0.702435214648569        1.04244761647453        1.28774219636089     
   1.48270884760049        1.64362427780784        1.77819530709366     
   1.89041832151772        1.98216346536909        2.05340366494740     
   2.10061755893307       0.873762059280336        1.29067764666957     
   1.58736219690463        1.82019701897890        2.01018403561068     
   2.16750249254265        2.29760000612994        2.40320601632320     
   2.48471124127330        2.53845759719215        1.06277450909959     
   1.56535367855580        1.91985184560003        2.19567993219114     
   2.41889814718341        2.60229083711614        2.75283211378878     
   2.87415688531132        2.96709282520512        3.02783908183924     
   1.26376943284816        1.85772229378177        2.27405879574391     
   2.59596477893928        2.85482130216477        3.06613510740283     
   3.23847227811422        3.37643044555947        3.48132404176284     
   3.54924366158425        1.47302545855055        2.16193284983571     
   2.64235111101147        3.01181505789590        3.30725937124814     
   3.54704183667807        3.74140472663116        3.89597939296305     
   4.01265289930820        4.08751443728221        1.69049245319526     
   2.47724277454745        3.02300847738345        3.44037099583940     
   3.77214610757539        4.03975951293256        4.25529595619267     
   4.42555459259878        4.55311599285332        4.63422537738563     
   1.92361837825737        2.81286498578392        3.42538900477592     
   3.89041823218626        4.25740274353442        4.55128666437674     
   4.78629471904706        4.97060481831694        5.10765609459334     
   5.19402154030383        2.18609146631603        3.18572725951925     
   3.86704666733997        4.37925318319778        4.77990470209702     
   5.09822255701936        5.35097354068907        5.54793870910932     
   5.69355440064178        5.78479137731096        2.46806835016550     
   3.58031248802488        4.32825023415142        4.88401384101044     
   5.31451952359630        5.65383861627954        5.92154720196458     
   6.12918477412453        6.28232581888371        6.37846869068646     
   2.70636584060595        3.90680169334938        4.70221363835083     
   5.28560143909629        5.73242764460930        6.08118615559260     
   6.35408388608110        6.56439310908204        6.71897142202940     
   6.81646509340496        2.81974092085303        4.04836731189711     
   4.84833797795440        5.42563062588880        5.86147728619124     
   6.19745798151157        6.45750203566949        6.65589112137355     
   6.80030429863303        6.89092629185727        2.77359093649225     
   3.95136858780891        4.70001535411054        5.22937375991937     
   5.62259211870813        5.92193855511771        6.15134412483590     
   6.32480458287143        6.44981516459583        6.52741529503076     
   2.57130454600099        3.61483688436793        4.25559974381596     
   4.69869363550395        5.02346372249839        5.26880729304940     
   5.45612426624395        5.59781113808637        5.70068518285173     
   5.76588886778804        2.21602704681114        3.04466444063919     
   3.53419683408592        3.86799626891571        4.11163808326553     
   4.29572789986332        4.43686468609730        4.54511486107979     
   4.62770628044430        4.69075679160398        1.69236693948192     
   2.25137438883501        2.57720700828120        2.79996497768744     
   2.96323764580533        3.08711382749999        3.18252432047694     
   3.25616672810158        3.31301664587368        3.36000353080866     
   1.02843073754428        1.34144091882354        1.52560465595629     
   1.65221893824875        1.74534753235132        1.81615769932644     
   1.87071581998785        1.91258507402919        1.94379054244107     
   1.96384138544317     
  0.000000000000000E+000  0.000000000000000E+000  0.000000000000000E+000
  0.000000000000000E+000  0.000000000000000E+000  0.000000000000000E+000
  0.000000000000000E+000  0.000000000000000E+000  0.000000000000000E+000
  0.000000000000000E+000  0.000000000000000E+000  0.000000000000000E+000
  0.000000000000000E+000  0.000000000000000E+000  0.000000000000000E+000
  0.000000000000000E+000  0.000000000000000E+000  0.000000000000000E+000
  0.000000000000000E+000  0.000000000000000E+000  0.000000000000000E+000
  0.000000000000000E+000  0.000000000000000E+000  0.000000000000000E+000
  0.000000000000000E+000  0.000000000000000E+000  0.000000000000000E+000
  0.000000000000000E+000  0.000000000000000E+000  0.000000000000000E+000
  0.000000000000000E+000  0.000000000000000E+000  0.000000000000000E+000
  0.000000000000000E+000  0.000000000000000E+000  0.000000000000000E+000
  0.000000000000000E+000  0.000000000000000E+000  0.000000000000000E+000
  0.000000000000000E+000  0.000000000000000E+000  0.000000000000000E+000
  0.000000000000000E+000  0.000000000000000E+000  0.000000000000000E+000
  0.000000000000000E+000  0.000000000000000E+000  0.000000000000000E+000
  0.000000000000000E+000  0.000000000000000E+000  0.000000000000000E+000
  0.000000000000000E+000  0.000000000000000E+000  0.000000000000000E+000
  0.000000000000000E+000  0.000000000000000E+000  0.000000000000000E+000
  0.000000000000000E+000  0.000000000000000E+000  0.000000000000000E+000
  0.000000000000000E+000  0.000000000000000E+000  0.000000000000000E+000
  0.000000000000000E+000  0.000000000000000E+000  0.000000000000000E+000
  0.000000000000000E+000  0.000000000000000E+000  0.000000000000000E+000
  0.000000000000000E+000  0.000000000000000E+000  0.000000000000000E+000
  0.000000000000000E+000  0.000000000000000E+000  0.000000000000000E+000
  0.000000000000000E+000  0.000000000000000E+000  0.000000000000000E+000
  0.000000000000000E+000  0.000000000000000E+000  0.000000000000000E+000
  0.000000000000000E+000  0.000000000000000E+000  0.000000000000000E+000
  0.000000000000000E+000  0.000000000000000E+000  0.000000000000000E+000
  0.000000000000000E+000  0.000000000000000E+000  0.000000000000000E+000
  0.000000000000000E+000  0.000000000000000E+000  0.000000000000000E+000
  0.000000000000000E+000  0.000000000000000E+000  0.000000000000000E+000
  0.000000000000000E+000  0.000000000000000E+000  0.000000000000000E+000
  0.000000000000000E+000  0.000000000000000E+000  0.000000000000000E+000
  0.000000000000000E+000  0.000000000000000E+000  0.000000000000000E+000
  0.000000000000000E+000  0.000000000000000E+000  0.000000000000000E+000
  0.000000000000000E+000  0.000000000000000E+000  0.000000000000000E+000
  0.000000000000000E+000  0.000000000000000E+000  0.000000000000000E+000
  0.000000000000000E+000  0.000000000000000E+000  0.000000000000000E+000