 Title = "Wing and Wake"
 VARIABLES = "X" "Y" "Z" "GAM" "skew"
 Zone I=   11 J=   26 K=1  T="Blade"
 DATAPACKING=BLOCK
 VARLOCATION=([4]=CELLCENTERED,[5]=CELLCENTERED)
 -2.688952079281200E-002 -3.882909966014519E-002 -5.076867852747834E-002
 -6.270825739481151E-002 -7.464783626214495E-002 -8.658741512947786E-002
 -9.852699399681117E-002 -0.110466572864144      -0.122406151731477     
 -0.134345730598811      -0.146285309466144      -2.977258722530114E-002
 -4.171216609263444E-002 -5.365174495996757E-002 -6.559132382730083E-002
 -7.753090269463389E-002 -8.947048156196717E-002 -0.101410060429300     
 -0.113349639296633      -0.125289218163967      -0.137228797031300     
 -0.149168375898633      -3.837631884286774E-002 -5.031589771020097E-002
 -6.225547657753425E-002 -7.419505544486743E-002 -8.613463431220046E-002
 -9.807421317953369E-002 -0.110013792046867      -0.121953370914200     
 -0.133892949781533      -0.145832528648866      -0.157772107516199     
 -5.256502965828288E-002 -6.450460852561622E-002 -7.644418739294945E-002
 -8.838376626028248E-002 -0.100323345127615      -0.112262923994949     
 -0.124202502862282      -0.136142081729615      -0.148081660596948     
 -0.160021239464282      -0.171960818331614      -7.211495522606179E-002
 -8.405453409339513E-002 -9.599411296072830E-002 -0.107933691828062     
 -0.119873270695395      -0.131812849562728      -0.143752428430061     
 -0.155692007297394      -0.167631586164727      -0.179571165032061     
 -0.191510743899394      -9.671778154144188E-002 -0.108657360408775     
 -0.120596939276108      -0.132536518143442      -0.144476097010775     
 -0.156415675878108      -0.168355254745441      -0.180294833612774     
 -0.192234412480108      -0.204173991347441      -0.216113570214774     
 -0.125985507336413      -0.137925086203746      -0.149864665071080     
 -0.161804243938413      -0.173743822805746      -0.185683401673080     
 -0.197622980540412      -0.209562559407745      -0.221502138275078     
 -0.233441717142412      -0.245381296009745      -0.159456563091498     
 -0.171396141958830      -0.183335720826164      -0.195275299693497     
 -0.207214878560830      -0.219154457428163      -0.231094036295497     
 -0.243033615162830      -0.254973194030163      -0.266912772897496     
 -0.278852351764830      -0.196603090262797      -0.208542669130131     
 -0.220482247997464      -0.232421826864796      -0.244361405732130     
 -0.256300984599463      -0.268240563466796      -0.280180142334129     
 -0.292119721201463      -0.304059300068796      -0.315998878936129     
 -0.236839265926561      -0.248778844793894      -0.260718423661227     
 -0.272658002528561      -0.284597581395894      -0.296537160263226     
 -0.308476739130559      -0.320416317997893      -0.332355896865226     
 -0.344295475732559      -0.356235054599892      -0.279530541556646     
 -0.291470120423979      -0.303409699291312      -0.315349278158645     
 -0.327288857025978      -0.339228435893312      -0.351168014760644     
 -0.363107593627978      -0.375047172495310      -0.386986751362644     
 -0.398926330229977      -0.324003650233832      -0.335943229101165     
 -0.347882807968499      -0.359822386835831      -0.371761965703165     
 -0.383701544570498      -0.395641123437831      -0.407580702305164     
 -0.419520281172497      -0.431459860039830      -0.443399438907164     
 -0.369557224467335      -0.381496803334668      -0.393436382202000     
 -0.405375961069334      -0.417315539936667      -0.429255118804000     
 -0.441194697671334      -0.453134276538667      -0.465073855405999     
 -0.477013434273333      -0.488953013140667      -0.415472857179104     
 -0.427412436046437      -0.439352014913769      -0.451291593781103     
 -0.463231172648436      -0.475170751515770      -0.487110330383104     
 -0.499049909250435      -0.510989488117770      -0.522929066985103     
 -0.534868645852436      -0.461026431412606      -0.472966010279939     
 -0.484905589147273      -0.496845168014605      -0.508784746881938     
 -0.520724325749272      -0.532663904616604      -0.544603483483938     
 -0.556543062351271      -0.568482641218604      -0.580422220085938     
 -0.505499540089793      -0.517439118957126      -0.529378697824459     
 -0.541318276691792      -0.553257855559125      -0.565197434426459     
 -0.577137013293791      -0.589076592161125      -0.601016171028458     
 -0.612955749895790      -0.624895328763125      -0.548190815719877     
 -0.560130394587210      -0.572069973454543      -0.584009552321877     
 -0.595949131189210      -0.607888710056542      -0.619828288923876     
 -0.631767867791210      -0.643707446658543      -0.655647025525877     
 -0.667586604393209      -0.588426991383642      -0.600366570250974     
 -0.612306149118308      -0.624245727985640      -0.636185306852973     
 -0.648124885720307      -0.660064464587640      -0.672004043454973     
 -0.683943622322306      -0.695883201189639      -0.707822780056972     
 -0.625573518554941      -0.637513097422273      -0.649452676289607     
 -0.661392255156939      -0.673331834024273      -0.685271412891607     
 -0.697210991758939      -0.709150570626273      -0.721090149493606     
 -0.733029728360939      -0.744969307228272      -0.659044574310024     
 -0.670984153177358      -0.682923732044690      -0.694863310912025     
 -0.706802889779357      -0.718742468646691      -0.730682047514022     
 -0.742621626381357      -0.754561205248690      -0.766500784116024     
 -0.778440362983356      -0.688312300104996      -0.700251878972330     
 -0.712191457839661      -0.724131036706995      -0.736070615574329     
 -0.748010194441661      -0.759949773308996      -0.771889352176328     
 -0.783828931043662      -0.795768509910994      -0.807708088778327     
 -0.712915126420376      -0.724854705287709      -0.736794284155042     
 -0.748733863022376      -0.760673441889708      -0.772613020757043     
 -0.784552599624375      -0.796492178491708      -0.808431757359041     
 -0.820371336226374      -0.832310915093709      -0.732465051988155     
 -0.744404630855488      -0.756344209722821      -0.768283788590154     
 -0.780223367457488      -0.792162946324821      -0.804102525192155     
 -0.816042104059488      -0.827981682926820      -0.839921261794153     
 -0.851860840661487      -0.746653762803570      -0.758593341670903     
 -0.770532920538236      -0.782472499405569      -0.794412078272903     
 -0.806351657140237      -0.818291236007568      -0.830230814874903     
 -0.842170393742235      -0.854109972609570      -0.866049551476901     
 -0.755257494421136      -0.767197073288469      -0.779136652155802     
 -0.791076231023135      -0.803015809890469      -0.814955388757803     
 -0.826894967625135      -0.838834546492468      -0.850774125359802     
 -0.862713704227135      -0.874653283094468      -0.758140560853624     
 -0.770080139720958      -0.782019718588291      -0.793959297455626     
 -0.805898876322958      -0.817838455190292      -0.829778034057626     
 -0.841717612924957      -0.853657191792291      -0.865596770659624     
 -0.877536349526958     
 -0.265147586723413      -0.250841585475971      -0.236535584228530     
 -0.222229582981088      -0.207923581733646      -0.193617580486205     
 -0.179311579238763      -0.165005577991321      -0.150699576743880     
 -0.136393575496438      -0.122087574248997      -0.267553751692580     
 -0.253247750445139      -0.238941749197697      -0.224635747950256     
 -0.210329746702814      -0.196023745455373      -0.181717744207931     
 -0.167411742960489      -0.153105741713048      -0.138799740465606     
 -0.124493739218164      -0.274734299941147      -0.260428298693705     
 -0.246122297446264      -0.231816296198822      -0.217510294951380     
 -0.203204293703939      -0.188898292456497      -0.174592291209056     
 -0.160286289961614      -0.145980288714172      -0.131674287466731     
 -0.286575989933780      -0.272269988686339      -0.257963987438897     
 -0.243657986191456      -0.229351984944014      -0.215045983696572     
 -0.200739982449131      -0.186433981201689      -0.172127979954247     
 -0.157821978706806      -0.143515977459364      -0.302892071145414     
 -0.288586069897973      -0.274280068650531      -0.259974067403089     
 -0.245668066155647      -0.231362064908206      -0.217056063660765     
 -0.202750062413323      -0.188444061165881      -0.174138059918440     
 -0.159832058670998      -0.323425229228586      -0.309119227981145     
 -0.294813226733703      -0.280507225486262      -0.266201224238820     
 -0.251895222991379      -0.237589221743937      -0.223283220496495     
 -0.208977219249054      -0.194671218001612      -0.180365216754170     
 -0.347851644014411      -0.333545642766970      -0.319239641519529     
 -0.304933640272087      -0.290627639024645      -0.276321637777204     
 -0.262015636529762      -0.247709635282321      -0.233403634034879     
 -0.219097632787437      -0.204791631539996      -0.375786096350085     
 -0.361480095102642      -0.347174093855201      -0.332868092607760     
 -0.318562091360318      -0.304256090112877      -0.289950088865435     
 -0.275644087617994      -0.261338086370551      -0.247032085123110     
 -0.232726083875669      -0.406788043235038      -0.392482041987596     
 -0.378176040740155      -0.363870039492714      -0.349564038245272     
 -0.335258036997830      -0.320952035750388      -0.306646034502947     
 -0.292340033255506      -0.278034032008064      -0.263728030760623     
 -0.440368565447231      -0.426062564199790      -0.411756562952349     
 -0.397450561704907      -0.383144560457465      -0.368838559210024     
 -0.354532557962582      -0.340226556715141      -0.325920555467699     
 -0.311614554220257      -0.297308552972816      -0.475998078091348     
 -0.461692076843906      -0.447386075596464      -0.433080074349023     
 -0.418774073101581      -0.404468071854140      -0.390162070606698     
 -0.375856069359256      -0.361550068111814      -0.347244066864373     
 -0.332938065616931      -0.513114682468947      -0.498808681221506     
 -0.484502679974065      -0.470196678726622      -0.455890677479181     
 -0.441584676231740      -0.427278674984299      -0.412972673736857     
 -0.398666672489415      -0.384360671241974      -0.370054669994532     
 -0.551133027556615      -0.536827026309173      -0.522521025061729     
 -0.508215023814289      -0.493909022566847      -0.479603021319406     
 -0.465297020071964      -0.450991018824523      -0.436685017577082     
 -0.422379016329640      -0.408073015082198      -0.589453541341255     
 -0.575147540093813      -0.560841538846372      -0.546535537598929     
 -0.532229536351488      -0.517923535104046      -0.503617533856605     
 -0.489311532609164      -0.475005531361723      -0.460699530114280     
 -0.446393528866839      -0.627471886428920      -0.613165885181479     
 -0.598859883934038      -0.584553882686596      -0.570247881439154     
 -0.555941880191713      -0.541635878944271      -0.527329877696829     
 -0.513023876449387      -0.498717875201946      -0.484411873954505     
 -0.664588490806522      -0.650282489559079      -0.635976488311638     
 -0.621670487064197      -0.607364485816755      -0.593058484569313     
 -0.578752483321871      -0.564446482074430      -0.550140480826989     
 -0.535834479579546      -0.521528478332105      -0.700218003450637     
 -0.685912002203195      -0.671606000955753      -0.657299999708313     
 -0.642993998460870      -0.628687997213429      -0.614381995965987     
 -0.600075994718546      -0.585769993471104      -0.571463992223663     
 -0.557157990976221      -0.733798525662831      -0.719492524415388     
 -0.705186523167947      -0.690880521920505      -0.676574520673063     
 -0.662268519425623      -0.647962518178181      -0.633656516930739     
 -0.619350515683297      -0.605044514435855      -0.590738513188414     
 -0.764800472547784      -0.750494471300342      -0.736188470052900     
 -0.721882468805459      -0.707576467558018      -0.693270466310576     
 -0.678964465063134      -0.664658463815693      -0.650352462568251     
 -0.636046461320809      -0.621740460073368      -0.792734924883456     
 -0.778428923636016      -0.764122922388573      -0.749816921141132     
 -0.735510919893691      -0.721204918646248      -0.706898917398807     
 -0.692592916151367      -0.678286914903923      -0.663980913656482     
 -0.649674912409040      -0.817161339669282      -0.802855338421841     
 -0.788549337174398      -0.774243335926958      -0.759937334679516     
 -0.745631333432073      -0.731325332184632      -0.717019330937190     
 -0.702713329689750      -0.688407328442307      -0.674101327194865     
 -0.837694497752455      -0.823388496505014      -0.809082495257570     
 -0.794776494010130      -0.780470492762689      -0.766164491515247     
 -0.751858490267804      -0.737552489020363      -0.723246487772922     
 -0.708940486525479      -0.694634485278038      -0.854010578964087     
 -0.839704577716647      -0.825398576469205      -0.811092575221763     
 -0.796786573974322      -0.782480572726880      -0.768174571479439     
 -0.753868570231997      -0.739562568984555      -0.725256567737114     
 -0.710950566489671      -0.865852268956722      -0.851546267709281     
 -0.837240266461838      -0.822934265214396      -0.808628263966956     
 -0.794322262719513      -0.780016261472072      -0.765710260224629     
 -0.751404258977189      -0.737098257729747      -0.722792256482305     
 -0.873032817205287      -0.858726815957847      -0.844420814710406     
 -0.830114813462962      -0.815808812215521      -0.801502810968079     
 -0.787196809720637      -0.772890808473195      -0.758584807225756     
 -0.744278805978314      -0.729972804730871      -0.875438982174454     
 -0.861132980927013      -0.846826979679573      -0.832520978432130     
 -0.818214977184689      -0.803908975937249      -0.789602974689807     
 -0.775296973442363      -0.760990972194923      -0.746684970947481     
 -0.732378969700040     
  3.960717710078315E-002  3.564645939070483E-002  3.168574168062652E-002
  2.772502397054821E-002  2.376430626046989E-002  1.980358855039158E-002
  1.584287084031326E-002  1.188215313023495E-002  7.921435420156629E-003
  3.960717710078312E-003  0.000000000000000E+000  3.960717710078315E-002
  3.564645939070483E-002  3.168574168062652E-002  2.772502397054821E-002
  2.376430626046989E-002  1.980358855039158E-002  1.584287084031326E-002
  1.188215313023495E-002  7.921435420156629E-003  3.960717710078312E-003
  0.000000000000000E+000  3.960717710078315E-002  3.564645939070483E-002
  3.168574168062652E-002  2.772502397054821E-002  2.376430626046989E-002
  1.980358855039158E-002  1.584287084031326E-002  1.188215313023495E-002
  7.921435420156629E-003  3.960717710078312E-003  0.000000000000000E+000
  3.960717710078315E-002  3.564645939070483E-002  3.168574168062652E-002
  2.772502397054821E-002  2.376430626046989E-002  1.980358855039158E-002
  1.584287084031326E-002  1.188215313023495E-002  7.921435420156629E-003
  3.960717710078312E-003  0.000000000000000E+000  3.960717710078315E-002
  3.564645939070483E-002  3.168574168062652E-002  2.772502397054821E-002
  2.376430626046989E-002  1.980358855039158E-002  1.584287084031326E-002
  1.188215313023495E-002  7.921435420156629E-003  3.960717710078312E-003
  0.000000000000000E+000  3.960717710078315E-002  3.564645939070483E-002
  3.168574168062652E-002  2.772502397054821E-002  2.376430626046989E-002
  1.980358855039158E-002  1.584287084031326E-002  1.188215313023495E-002
  7.921435420156629E-003  3.960717710078312E-003  0.000000000000000E+000
  3.960717710078315E-002  3.564645939070483E-002  3.168574168062652E-002
  2.772502397054821E-002  2.376430626046989E-002  1.980358855039158E-002
  1.584287084031326E-002  1.188215313023495E-002  7.921435420156629E-003
  3.960717710078312E-003  0.000000000000000E+000  3.960717710078315E-002
  3.564645939070483E-002  3.168574168062652E-002  2.772502397054821E-002
  2.376430626046989E-002  1.980358855039158E-002  1.584287084031326E-002
  1.188215313023495E-002  7.921435420156629E-003  3.960717710078312E-003
  0.000000000000000E+000  3.960717710078315E-002  3.564645939070483E-002
  3.168574168062652E-002  2.772502397054821E-002  2.376430626046989E-002
  1.980358855039158E-002  1.584287084031326E-002  1.188215313023495E-002
  7.921435420156629E-003  3.960717710078312E-003  0.000000000000000E+000
  3.960717710078315E-002  3.564645939070483E-002  3.168574168062652E-002
  2.772502397054821E-002  2.376430626046989E-002  1.980358855039158E-002
  1.584287084031326E-002  1.188215313023495E-002  7.921435420156629E-003
  3.960717710078312E-003  0.000000000000000E+000  3.960717710078315E-002
  3.564645939070483E-002  3.168574168062652E-002  2.772502397054821E-002
  2.376430626046989E-002  1.980358855039158E-002  1.584287084031326E-002
  1.188215313023495E-002  7.921435420156629E-003  3.960717710078312E-003
  0.000000000000000E+000  3.960717710078315E-002  3.564645939070483E-002
  3.168574168062652E-002  2.772502397054821E-002  2.376430626046989E-002
  1.980358855039158E-002  1.584287084031326E-002  1.188215313023495E-002
  7.921435420156629E-003  3.960717710078312E-003  0.000000000000000E+000
  3.960717710078315E-002  3.564645939070483E-002  3.168574168062652E-002
  2.772502397054821E-002  2.376430626046989E-002  1.980358855039158E-002
  1.584287084031326E-002  1.188215313023495E-002  7.921435420156629E-003
  3.960717710078312E-003  0.000000000000000E+000  3.960717710078315E-002
  3.564645939070483E-002  3.168574168062652E-002  2.772502397054821E-002
  2.376430626046989E-002  1.980358855039158E-002  1.584287084031326E-002
  1.188215313023495E-002  7.921435420156629E-003  3.960717710078312E-003
  0.000000000000000E+000  3.960717710078315E-002  3.564645939070483E-002
  3.168574168062652E-002  2.772502397054821E-002  2.376430626046989E-002
  1.980358855039158E-002  1.584287084031326E-002  1.188215313023495E-002
  7.921435420156629E-003  3.960717710078312E-003  0.000000000000000E+000
  3.960717710078315E-002  3.564645939070483E-002  3.168574168062652E-002
  2.772502397054821E-002  2.376430626046989E-002  1.980358855039158E-002
  1.584287084031326E-002  1.188215313023495E-002  7.921435420156629E-003
  3.960717710078312E-003  0.000000000000000E+000  3.960717710078315E-002
  3.564645939070483E-002  3.168574168062652E-002  2.772502397054821E-002
  2.376430626046989E-002  1.980358855039158E-002  1.584287084031326E-002
  1.188215313023495E-002  7.921435420156629E-003  3.960717710078312E-003
  0.000000000000000E+000  3.960717710078315E-002  3.564645939070483E-002
  3.168574168062652E-002  2.772502397054821E-002  2.376430626046989E-002
  1.980358855039158E-002  1.584287084031326E-002  1.188215313023495E-002
  7.921435420156629E-003  3.960717710078312E-003  0.000000000000000E+000
  3.960717710078315E-002  3.564645939070483E-002  3.168574168062652E-002
  2.772502397054821E-002  2.376430626046989E-002  1.980358855039158E-002
  1.584287084031326E-002  1.188215313023495E-002  7.921435420156629E-003
  3.960717710078312E-003  0.000000000000000E+000  3.960717710078315E-002
  3.564645939070483E-002  3.168574168062652E-002  2.772502397054821E-002
  2.376430626046989E-002  1.980358855039158E-002  1.584287084031326E-002
  1.188215313023495E-002  7.921435420156629E-003  3.960717710078312E-003
  0.000000000000000E+000  3.960717710078315E-002  3.564645939070483E-002
  3.168574168062652E-002  2.772502397054821E-002  2.376430626046989E-002
  1.980358855039158E-002  1.584287084031326E-002  1.188215313023495E-002
  7.921435420156629E-003  3.960717710078312E-003  0.000000000000000E+000
  3.960717710078315E-002  3.564645939070483E-002  3.168574168062652E-002
  2.772502397054821E-002  2.376430626046989E-002  1.980358855039158E-002
  1.584287084031326E-002  1.188215313023495E-002  7.921435420156629E-003
  3.960717710078312E-003  0.000000000000000E+000  3.960717710078315E-002
  3.564645939070483E-002  3.168574168062652E-002  2.772502397054821E-002
  2.376430626046989E-002  1.980358855039158E-002  1.584287084031326E-002
  1.188215313023495E-002  7.921435420156629E-003  3.960717710078312E-003
  0.000000000000000E+000  3.960717710078315E-002  3.564645939070483E-002
  3.168574168062652E-002  2.772502397054821E-002  2.376430626046989E-002
  1.980358855039158E-002  1.584287084031326E-002  1.188215313023495E-002
  7.921435420156629E-003  3.960717710078312E-003  0.000000000000000E+000
  3.960717710078315E-002  3.564645939070483E-002  3.168574168062652E-002
  2.772502397054821E-002  2.376430626046989E-002  1.980358855039158E-002
  1.584287084031326E-002  1.188215313023495E-002  7.921435420156629E-003
  3.960717710078312E-003  0.000000000000000E+000  3.960717710078315E-002
  3.564645939070483E-002  3.168574168062652E-002  2.772502397054821E-002
  2.376430626046989E-002  1.980358855039158E-002  1.584287084031326E-002
  1.188215313023495E-002  7.921435420156629E-003  3.960717710078312E-003
  0.000000000000000E+000
  2.309720303233050E-002  4.570245680960982E-002  6.787203256265005E-002
  8.972702586687331E-002  0.111413686628873       0.133129683635822     
  0.155124387866769       0.177694259827828       0.201102086087276     
  0.224623609540400       4.396224311217271E-002  8.334007111088711E-002
  0.121502397035133       0.158884030621833       0.195788543266952     
  0.232574235690444       0.269696650447748       0.307739514378044     
  0.347390173164491       0.388511844306223       7.808863422803217E-002
  0.137415090122442       0.192884058759342       0.246255563809397     
  0.298255793683703       0.349504178281635       0.400731164867315     
  0.452895784817436       0.507135546001070       0.562662484257283     
  0.128925037106942       0.213080914432391       0.287572294583782     
  0.357174173647457       0.423580077799689       0.487839566809614     
  0.550909827814030       0.613761729102294       0.677027401516286     
  0.738272755898720       0.198366749566364       0.314325936309901     
  0.411260981032919       0.498650737263016       0.579834637060559     
  0.656539852644264       0.729931573087994       0.800879930586207     
  0.869683950458410       0.933478154836384       0.286667376336397     
  0.442444121048558       0.566535544508034       0.674523370596803     
  0.771972786286459       0.861608746398638       0.945041012003821     
   1.02325233666079        1.09639000146413        1.16125668273420     
  0.392906784534778       0.596546314063436       0.752943097706639     
  0.885026283972631        1.00112209088659        1.10525962368330     
   1.19967066464603        1.28554724501330        1.36294293715131     
   1.42835174432292       0.515746252556610       0.774966769172624     
  0.968894153548219        1.12889191735727        1.26647555146925     
   1.38721831132432        1.49415588345935        1.58885678867934     
   1.67143146583028        1.73816237783104       0.654187851928029     
  0.976269717284223        1.21272497651254        1.40437501425905     
   1.56632936605277        1.70593484093248        1.82719308994737     
   1.93218076004720        2.02118388823003        2.09035604106807     
  0.807421742423458        1.19919505738052        1.48284126435173     
   1.70962743121990        1.89864037597435        2.05920390076052     
   2.19641713452836        2.31295691506081        2.40933808026151     
   2.48158438541092       0.974544854413467        1.44230553404613     
   1.77736538507656        2.04238553350852        2.26079721213151     
   2.44408953464381        2.59856621520711        2.72756475899534     
   2.83186100338277        2.90735028363987        1.15423763014821     
   1.70354696773509        2.09365556438808        2.39950779011709     
   2.64922869640839        2.85664738516519        3.02937389428953     
   3.17148301517715        3.28407714913571        3.36294464066716     
   1.34469775289498        1.98017020398900        2.42821917906757     
   2.77685614982113        3.05922549119430        3.29169080441710     
   3.48330573027757        3.63897347930305        3.76017435248859     
   3.84263280311080        1.54429211597409        2.26960494057140     
   2.77768704118917        3.17031325015007        3.48595871748488     
   3.74372810576134        3.95427781328498        4.12347043367591     
   4.25327833917710        4.33945051547166        1.75371830352560     
   2.57227676590759        3.14188505054944        3.57896113920827     
   3.92771023008122        4.21021763614348        4.43892771662858     
   4.62083958227549        4.75859708217016        4.84816145280589     
   1.97912113706064        2.89566246076720        3.52824051172589     
   4.00955892742612        4.39033224820965        4.69609472677586     
   4.94137581366269        5.13450837907018        5.27897252725033     
   5.37113351529694        2.22860779026215        3.24919849559935     
   3.94586752896713        4.47040358756712        4.88128406642886     
   5.20816892847557        5.46805868194960        5.67084338263611     
   5.82096588625735        5.91525626028813        2.48686506628449     
   3.60985664762789        4.36636204327239        4.92922424803586     
   5.36555291234497        5.70954262278252        5.98086212342922     
   6.19107986907829        6.34572133776507        6.44220045268150     
   2.69555533628738        3.89442074737653        4.69050867306719     
   5.27519317121787        5.72330562774054        6.07310740133244     
   6.34667155004855        6.55712539681675        6.71115400272925     
   6.80728766942583        2.78602121598170        4.00342428939781     
   4.79798168951893        5.37230594463577        5.80630350891622     
   6.14097873930303        6.39994686420384        6.59724204808253     
   6.74031401922097        6.82920155394125        2.72861702230514     
   3.89008681700927        4.62999525789331        5.15410327729972     
   5.54389181840682        5.84080517636341        6.06832307734673     
   6.24015860555970        6.36360583679438        6.43959723551851     
   2.52476714251255        3.55140159863860        4.18301481258774     
   4.62053232980467        4.94163350579978        5.18438991426044     
   5.36974647107343        5.50982743908133        5.61127923675292     
   5.67518469157633        2.17416318752610        2.98854038561648     
   3.47052323908505        3.79970987671966        4.04028533437841     
   4.22219409619090        4.36167297376248        4.46856514556791     
   4.54993817025406        4.61179633002268        1.65983500386191     
   2.20903669521722        2.52971811053197        2.74929382006171     
   2.91042459782145        3.03276137904324        3.12699314914546     
   3.19966742745960        3.25565086467938        3.30175083366764     
   1.00855838846173        1.31606595696698        1.49730444964748     
   1.62209568435177        1.71398922266234        1.78390777482358     
   1.83778248194032        1.87909531822029        1.90982360953417     
   1.92948365479945     
  0.000000000000000E+000  0.000000000000000E+000  0.000000000000000E+000
  0.000000000000000E+000  0.000000000000000E+000  0.000000000000000E+000
  0.000000000000000E+000  0.000000000000000E+000  0.000000000000000E+000
  0.000000000000000E+000  0.000000000000000E+000  0.000000000000000E+000
  0.000000000000000E+000  0.000000000000000E+000  0.000000000000000E+000
  0.000000000000000E+000  0.000000000000000E+000  0.000000000000000E+000
  0.000000000000000E+000  0.000000000000000E+000  0.000000000000000E+000
  0.000000000000000E+000  0.000000000000000E+000  0.000000000000000E+000
  0.000000000000000E+000  0.000000000000000E+000  0.000000000000000E+000
  0.000000000000000E+000  0.000000000000000E+000  0.000000000000000E+000
  0.000000000000000E+000  0.000000000000000E+000  0.000000000000000E+000
  0.000000000000000E+000  0.000000000000000E+000  0.000000000000000E+000
  0.000000000000000E+000  0.000000000000000E+000  0.000000000000000E+000
  0.000000000000000E+000  0.000000000000000E+000  0.000000000000000E+000
  0.000000000000000E+000  0.000000000000000E+000  0.000000000000000E+000
  0.000000000000000E+000  0.000000000000000E+000  0.000000000000000E+000
  0.000000000000000E+000  0.000000000000000E+000  0.000000000000000E+000
  0.000000000000000E+000  0.000000000000000E+000  0.000000000000000E+000
  0.000000000000000E+000  0.000000000000000E+000  0.000000000000000E+000
  0.000000000000000E+000  0.000000000000000E+000  0.000000000000000E+000
  0.000000000000000E+000  0.000000000000000E+000  0.000000000000000E+000
  0.000000000000000E+000  0.000000000000000E+000  0.000000000000000E+000
  0.000000000000000E+000  0.000000000000000E+000  0.000000000000000E+000
  0.000000000000000E+000  0.000000000000000E+000  0.000000000000000E+000
  0.000000000000000E+000  0.000000000000000E+000  0.000000000000000E+000
  0.000000000000000E+000  0.000000000000000E+000  0.000000000000000E+000
  0.000000000000000E+000  0.000000000000000E+000  0.000000000000000E+000
  0.000000000000000E+000  0.000000000000000E+000  0.000000000000000E+000
  0.000000000000000E+000  0.000000000000000E+000  0.000000000000000E+000
  0.000000000000000E+000  0.000000000000000E+000  0.000000000000000E+000
  0.000000000000000E+000  0.000000000000000E+000  0.000000000000000E+000
  0.000000000000000E+000  0.000000000000000E+000  0.000000000000000E+000
  0.000000000000000E+000  0.000000000000000E+000  0.000000000000000E+000
  0.000000000000000E+000  0.000000000000000E+000  0.000000000000000E+000
  0.000000000000000E+000  0.000000000000000E+000  0.000000000000000E+000
  0.000000000000000E+000  0.000000000000000E+000  0.000000000000000E+000
  0.000000000000000E+000  0.000000000000000E+000  0.000000000000000E+000
  0.000000000000000E+000  0.000000000000000E+000  0.000000000000000E+000
  0.000000000000000E+000  0.000000000000000E+000  0.000000000000000E+000