 Title = "Wing and Wake"
 VARIABLES = "X" "Y" "Z" "GAM" "skew"
 Zone I=   11 J=   26 K=1  T="Blade"
 DATAPACKING=BLOCK
 VARLOCATION=([4]=CELLCENTERED,[5]=CELLCENTERED)
  0.140109059472865       0.121927267150093       0.103745474827320     
  8.556368250454766E-002  6.738189018177494E-002  4.920009785900257E-002
  3.101830553622996E-002  1.283651321345744E-002 -5.345279109314770E-003
 -2.352707143208767E-002 -4.170886375486008E-002  0.139287039644164     
  0.121105247321391       0.102923454998618       8.474166267584640E-002
  6.655987035307349E-002  4.837807803030109E-002  3.019628570752842E-002
  1.201449338475619E-002 -6.167298938016538E-003 -2.434909126078889E-002
 -4.253088358356168E-002  0.136833943901809       0.118652151579037     
  0.100470359256264       8.228856693349115E-002  6.410677461071870E-002
  4.592498228794616E-002  2.774318996517336E-002  9.561397642401217E-003
 -8.620394680371075E-003 -2.680218700314387E-002 -4.498397932591632E-002
  0.132788459031066       0.114606666708293       9.642487438552029E-002
  7.824308206274828E-002  6.006128973997566E-002  4.187949741720307E-002
  2.369770509443073E-002  5.515912771658086E-003 -1.266587955111461E-002
 -3.084767187388726E-002 -4.902946419665924E-002  0.127214384745002     
  0.109032592422230       9.085080009945641E-002  7.266900777668403E-002
  5.448721545391153E-002  3.630542313113899E-002  1.812363080836631E-002
 -5.816151440595297E-005 -1.823995383717857E-002 -3.642174615995088E-002
 -5.460353848272346E-002  0.120199627524898       0.102017835202126     
  8.383604287935326E-002  6.565425055658061E-002  4.747245823380845E-002
  2.929066591103537E-002  1.110887358826312E-002 -7.072918734509213E-003
 -2.525471105728204E-002 -4.343650338005452E-002 -6.161829570282727E-002
  0.111854814282530       9.367302195975727E-002  7.549122963698500E-002
  5.730943731421229E-002  3.912764499143970E-002  2.094585266866692E-002
  2.764060345894800E-003 -1.541773197687764E-002 -3.359952429964989E-002
 -5.178131662242247E-002 -6.996310894519504E-002  0.102311547707678     
  8.412975538490509E-002  6.594796306213244E-002  4.776617073936033E-002
  2.958437841658768E-002  1.140258609381520E-002 -6.779206228957130E-003
 -2.496099855172957E-002 -4.314279087450246E-002 -6.132458319727452E-002
 -7.950637552004729E-002  9.172033081509934E-002  7.353853849232597E-002
  5.535674616955381E-002  3.717495384678157E-002  1.899316152400931E-002
  8.113692012364680E-004 -1.737042312153620E-002 -3.555221544430874E-002
 -5.373400776708139E-002 -7.191580008985393E-002 -9.009759241262594E-002
  8.024819342207577E-002  6.206640109930355E-002  4.388460877653065E-002
  2.570281645375787E-002  7.521024130985468E-003 -1.066076819178654E-002
 -2.884256051455948E-002 -4.702435283733181E-002 -6.520614516010435E-002
 -8.338793748287689E-002 -0.101569729805649       6.807605798841854E-002
  4.989426566564568E-002  3.171247334287351E-002  1.353068102010137E-002
 -4.651111302671391E-003 -2.283290362544411E-002 -4.101469594821588E-002
 -5.919648827098994E-002 -7.737828059376115E-002 -9.556007291653440E-002
 -0.113741865239307       5.539588636119679E-002  3.721409403842515E-002
  1.903230171565163E-002  8.505093928794042E-004 -1.733128292989299E-002
 -3.551307525266510E-002 -5.369486757543764E-002 -7.187665989821061E-002
 -9.005845222098313E-002 -0.108240244543755      -0.126422036866527     
  4.240765242174057E-002  2.422586009896812E-002  6.044067776195042E-003
 -1.213772454657648E-002 -3.031951686934909E-002 -4.850130919212133E-002
 -6.668310151489483E-002 -8.486489383766713E-002 -0.103046686160439     
 -0.121228478483212      -0.139410270805984       2.931618837806953E-002
  1.113439605529621E-002 -7.047396267475092E-003 -2.522918859024803E-002
 -4.341098091302069E-002 -6.159277323579341E-002 -7.977456555856680E-002
 -9.795635788133709E-002 -0.116138150204111      -0.134319942526884     
 -0.152501734849656       1.632795443861283E-002 -1.853837884158865E-003
 -2.003563020693203E-002 -3.821742252970452E-002 -5.639921485247743E-002
 -7.458100717524907E-002 -9.276279949802164E-002 -0.110944591820796     
 -0.129126384143567      -0.147308176466339      -0.165489968789112     
  3.647782811392282E-003 -1.453400951138101E-002 -3.271580183415349E-002
 -5.089759415692451E-002 -6.907938647969815E-002 -8.726117880247056E-002
 -0.105442971125243      -0.123624763448015      -0.141806555770788     
 -0.159988348093560      -0.178170140416333      -8.524352622265412E-003
 -2.670614494503757E-002 -4.488793726781064E-002 -6.306972959058270E-002
 -8.125152191335550E-002 -9.943331423612803E-002 -0.117615106558901     
 -0.135796898881673      -0.153978691204446      -0.172160483527219     
 -0.190342275849990      -1.999649001528874E-002 -3.817828233806195E-002
 -5.636007466083431E-002 -7.454186698360600E-002 -9.272365930637883E-002
 -0.110905451629152      -0.129087243951924      -0.147269036274697     
 -0.165450828597469      -0.183632620920241      -0.201814413243013     
 -3.058770690786825E-002 -4.876949923064060E-002 -6.695129155341319E-002
 -8.513308387618500E-002 -0.103314876198957      -0.121496668521730     
 -0.139678460844502      -0.157860253167275      -0.176042045490048     
 -0.194223837812821      -0.212405630135593      -4.013097348271915E-002
 -5.831276580549317E-002 -7.649455812826425E-002 -9.467635045103810E-002
 -0.112858142773809      -0.131039935096583      -0.149221727419353     
 -0.167403519742127      -0.185585312064900      -0.203767104387672     
 -0.221948896710444      -4.847578672508882E-002 -6.665757904786096E-002
 -8.483937137063292E-002 -0.103021163693405      -0.121202956016178     
 -0.139384748338951      -0.157566540661724      -0.175748332984496     
 -0.193930125307267      -0.212111917630042      -0.230293709952813     
 -5.549054394519082E-002 -7.367233626796291E-002 -9.185412859073792E-002
 -0.110035920913509      -0.128217713236280      -0.146399505559054     
 -0.164581297881827      -0.182763090204599      -0.200944882527370     
 -0.219126674850145      -0.237308467172918      -6.106461823125605E-002
 -7.924641055402758E-002 -9.742820287680021E-002 -0.115609995199573     
 -0.133791787522346      -0.151973579845118      -0.170155372167890     
 -0.188337164490664      -0.206518956813436      -0.224700749136207     
 -0.242882541458981      -6.511010310199822E-002 -8.329189542476953E-002
 -0.101473687747543      -0.119655480070316      -0.137837272393089     
 -0.156019064715862      -0.174200857038634      -0.192382649361407     
 -0.210564441684178      -0.228746234006952      -0.246928026329724     
 -6.756319884435298E-002 -8.574499116712518E-002 -0.103926783489897     
 -0.122108575812671      -0.140290368135443      -0.158472160458217     
 -0.176653952780990      -0.194835745103761      -0.213017537426534     
 -0.231199329749306      -0.249381122072078      -6.838521867305374E-002
 -8.656701099582853E-002 -0.104748803318599      -0.122930595641373     
 -0.141112387964145      -0.159294180286918      -0.177475972609690     
 -0.195657764932462      -0.213839557255235      -0.232021349578008     
 -0.250203141900781     
 -0.226706286916232      -0.222627360200461      -0.218548433484689     
 -0.214469506768917      -0.210390580053146      -0.206311653337374     
 -0.202232726621602      -0.198153799905830      -0.194074873190058     
 -0.189995946474286      -0.185917019758515      -0.230370435564175     
 -0.226291508848404      -0.222212582132631      -0.218133655416860     
 -0.214054728701088      -0.209975801985316      -0.205896875269544     
 -0.201817948553772      -0.197739021838001      -0.193660095122229     
 -0.189581168406457      -0.241305095694968      -0.237226168979196     
 -0.233147242263424      -0.229068315547652      -0.224989388831880     
 -0.220910462116109      -0.216831535400337      -0.212752608684565     
 -0.208673681968793      -0.204594755253021      -0.200515828537249     
 -0.259337821186299      -0.255258894470527      -0.251179967754755     
 -0.247101041038984      -0.243022114323212      -0.238943187607439     
 -0.234864260891668      -0.230785334175896      -0.226706407460124     
 -0.222627480744352      -0.218548554028580      -0.284184225184941     
 -0.280105298469169      -0.276026371753397      -0.271947445037626     
 -0.267868518321854      -0.263789591606083      -0.259710664890311     
 -0.255631738174539      -0.251552811458767      -0.247473884742995     
 -0.243394958027223      -0.315452465057315      -0.311373538341544     
 -0.307294611625771      -0.303215684909999      -0.299136758194228     
 -0.295057831478457      -0.290978904762684      -0.286899978046913     
 -0.282821051331141      -0.278742124615369      -0.274663197899597     
 -0.352649421981891      -0.348570495266120      -0.344491568550348     
 -0.340412641834576      -0.336333715118804      -0.332254788403033     
 -0.328175861687261      -0.324096934971489      -0.320018008255717     
 -0.315939081539944      -0.311860154824173      -0.395188477727585     
 -0.391109551011813      -0.387030624296042      -0.382951697580270     
 -0.378872770864498      -0.374793844148726      -0.370714917432954     
 -0.366635990717183      -0.362557064001410      -0.358478137285638     
 -0.354399210569868      -0.442398765973686      -0.438319839257915     
 -0.434240912542142      -0.430161985826371      -0.426083059110599     
 -0.422004132394827      -0.417925205679054      -0.413846278963283     
 -0.409767352247512      -0.405688425531740      -0.401609498815968     
 -0.493535752272494      -0.489456825556722      -0.485377898840951     
 -0.481298972125178      -0.477220045409407      -0.473141118693634     
 -0.469062191977863      -0.464983265262092      -0.460904338546319     
 -0.456825411830547      -0.452746485114776      -0.547792975802323     
 -0.543714049086551      -0.539635122370778      -0.535556195655007     
 -0.531477268939235      -0.527398342223464      -0.523319415507690     
 -0.519240488791920      -0.515161562076147      -0.511082635360375     
 -0.507003708644603      -0.604314767736410      -0.600235841020638     
 -0.596156914304867      -0.592077987589093      -0.587999060873322     
 -0.583920134157551      -0.579841207441780      -0.575762280726007     
 -0.571683354010235      -0.567604427294463      -0.563525500578692     
 -0.662209745651477      -0.658130818935705      -0.654051892219932     
 -0.649972965504161      -0.645894038788389      -0.641815112072616     
 -0.637736185356845      -0.633657258641074      -0.629578331925302     
 -0.625499405209530      -0.621420478493758      -0.720564871161017     
 -0.716485944445244      -0.712407017729472      -0.708328091013700     
 -0.704249164297929      -0.700170237582157      -0.696091310866385     
 -0.692012384150613      -0.687933457434844      -0.683854530719070     
 -0.679775604003298      -0.778459849076081      -0.774380922360309     
 -0.770301995644539      -0.766223068928765      -0.762144142212994     
 -0.758065215497224      -0.753986288781451      -0.749907362065679     
 -0.745828435349906      -0.741749508634133      -0.737670581918365     
 -0.834981641010170      -0.830902714294398      -0.826823787578627     
 -0.822744860862855      -0.818665934147084      -0.814587007431311     
 -0.810508080715539      -0.806429153999768      -0.802350227283995     
 -0.798271300568222      -0.794192373852453      -0.889238864539998     
 -0.885159937824226      -0.881081011108453      -0.877002084392683     
 -0.872923157676910      -0.868844230961139      -0.864765304245367     
 -0.860686377529597      -0.856607450813824      -0.852528524098053     
 -0.848449597382281      -0.940375850838806      -0.936296924123033     
 -0.932217997407262      -0.928139070691491      -0.924060143975719     
 -0.919981217259948      -0.915902290544175      -0.911823363828403     
 -0.907744437112631      -0.903665510396859      -0.899586583681087     
 -0.987586139084905      -0.983507212369133      -0.979428285653363     
 -0.975349358937591      -0.971270432221820      -0.967191505506048     
 -0.963112578790274      -0.959033652074504      -0.954954725358733     
 -0.950875798642960      -0.946796871927188       -1.03012519483060     
  -1.02604626811483       -1.02196734139906       -1.01788841468329     
  -1.01380948796751       -1.00973056125174       -1.00565163453597     
  -1.00157270782020      -0.997493781104425      -0.993414854388655     
 -0.989335927672882       -1.06732215175518       -1.06324322503941     
  -1.05916429832363       -1.05508537160786       -1.05100644489209     
  -1.04692751817632       -1.04284859146055       -1.03876966474477     
  -1.03469073802900       -1.03061181131323       -1.02653288459746     
  -1.09859039162755       -1.09451146491178       -1.09043253819601     
  -1.08635361148023       -1.08227468476446       -1.07819575804869     
  -1.07411683133292       -1.07003790461715       -1.06595897790138     
  -1.06188005118560       -1.05780112446983       -1.12343679562619     
  -1.11935786891042       -1.11527894219465       -1.11120001547888     
  -1.10712108876311       -1.10304216204733       -1.09896323533156     
  -1.09488430861579       -1.09080538190002       -1.08672645518425     
  -1.08264752846847       -1.14146952111752       -1.13739059440175     
  -1.13331166768598       -1.12923274097021       -1.12515381425444     
  -1.12107488753866       -1.11699596082289       -1.11291703410712     
  -1.10883810739135       -1.10475918067558       -1.10068025395981     
  -1.15240418124831       -1.14832525453254       -1.14424632781677     
  -1.14016740110100       -1.13608847438523       -1.13200954766946     
  -1.12793062095368       -1.12385169423791       -1.11977276752214     
  -1.11569384080637       -1.11161491409060       -1.15606832989626     
  -1.15198940318049       -1.14791047646472       -1.14383154974894     
  -1.13975262303317       -1.13567369631740       -1.13159476960163     
  -1.12751584288585       -1.12343691617008       -1.11935798945431     
  -1.11527906273854     
  3.960717710078315E-002  3.564645939070483E-002  3.168574168062652E-002
  2.772502397054821E-002  2.376430626046989E-002  1.980358855039158E-002
  1.584287084031326E-002  1.188215313023495E-002  7.921435420156629E-003
  3.960717710078312E-003  0.000000000000000E+000  3.960717710078315E-002
  3.564645939070483E-002  3.168574168062652E-002  2.772502397054821E-002
  2.376430626046989E-002  1.980358855039158E-002  1.584287084031326E-002
  1.188215313023495E-002  7.921435420156629E-003  3.960717710078312E-003
  0.000000000000000E+000  3.960717710078315E-002  3.564645939070483E-002
  3.168574168062652E-002  2.772502397054821E-002  2.376430626046989E-002
  1.980358855039158E-002  1.584287084031326E-002  1.188215313023495E-002
  7.921435420156629E-003  3.960717710078312E-003  0.000000000000000E+000
  3.960717710078315E-002  3.564645939070483E-002  3.168574168062652E-002
  2.772502397054821E-002  2.376430626046989E-002  1.980358855039158E-002
  1.584287084031326E-002  1.188215313023495E-002  7.921435420156629E-003
  3.960717710078312E-003  0.000000000000000E+000  3.960717710078315E-002
  3.564645939070483E-002  3.168574168062652E-002  2.772502397054821E-002
  2.376430626046989E-002  1.980358855039158E-002  1.584287084031326E-002
  1.188215313023495E-002  7.921435420156629E-003  3.960717710078312E-003
  0.000000000000000E+000  3.960717710078315E-002  3.564645939070483E-002
  3.168574168062652E-002  2.772502397054821E-002  2.376430626046989E-002
  1.980358855039158E-002  1.584287084031326E-002  1.188215313023495E-002
  7.921435420156629E-003  3.960717710078312E-003  0.000000000000000E+000
  3.960717710078315E-002  3.564645939070483E-002  3.168574168062652E-002
  2.772502397054821E-002  2.376430626046989E-002  1.980358855039158E-002
  1.584287084031326E-002  1.188215313023495E-002  7.921435420156629E-003
  3.960717710078312E-003  0.000000000000000E+000  3.960717710078315E-002
  3.564645939070483E-002  3.168574168062652E-002  2.772502397054821E-002
  2.376430626046989E-002  1.980358855039158E-002  1.584287084031326E-002
  1.188215313023495E-002  7.921435420156629E-003  3.960717710078312E-003
  0.000000000000000E+000  3.960717710078315E-002  3.564645939070483E-002
  3.168574168062652E-002  2.772502397054821E-002  2.376430626046989E-002
  1.980358855039158E-002  1.584287084031326E-002  1.188215313023495E-002
  7.921435420156629E-003  3.960717710078312E-003  0.000000000000000E+000
  3.960717710078315E-002  3.564645939070483E-002  3.168574168062652E-002
  2.772502397054821E-002  2.376430626046989E-002  1.980358855039158E-002
  1.584287084031326E-002  1.188215313023495E-002  7.921435420156629E-003
  3.960717710078312E-003  0.000000000000000E+000  3.960717710078315E-002
  3.564645939070483E-002  3.168574168062652E-002  2.772502397054821E-002
  2.376430626046989E-002  1.980358855039158E-002  1.584287084031326E-002
  1.188215313023495E-002  7.921435420156629E-003  3.960717710078312E-003
  0.000000000000000E+000  3.960717710078315E-002  3.564645939070483E-002
  3.168574168062652E-002  2.772502397054821E-002  2.376430626046989E-002
  1.980358855039158E-002  1.584287084031326E-002  1.188215313023495E-002
  7.921435420156629E-003  3.960717710078312E-003  0.000000000000000E+000
  3.960717710078315E-002  3.564645939070483E-002  3.168574168062652E-002
  2.772502397054821E-002  2.376430626046989E-002  1.980358855039158E-002
  1.584287084031326E-002  1.188215313023495E-002  7.921435420156629E-003
  3.960717710078312E-003  0.000000000000000E+000  3.960717710078315E-002
  3.564645939070483E-002  3.168574168062652E-002  2.772502397054821E-002
  2.376430626046989E-002  1.980358855039158E-002  1.584287084031326E-002
  1.188215313023495E-002  7.921435420156629E-003  3.960717710078312E-003
  0.000000000000000E+000  3.960717710078315E-002  3.564645939070483E-002
  3.168574168062652E-002  2.772502397054821E-002  2.376430626046989E-002
  1.980358855039158E-002  1.584287084031326E-002  1.188215313023495E-002
  7.921435420156629E-003  3.960717710078312E-003  0.000000000000000E+000
  3.960717710078315E-002  3.564645939070483E-002  3.168574168062652E-002
  2.772502397054821E-002  2.376430626046989E-002  1.980358855039158E-002
  1.584287084031326E-002  1.188215313023495E-002  7.921435420156629E-003
  3.960717710078312E-003  0.000000000000000E+000  3.960717710078315E-002
  3.564645939070483E-002  3.168574168062652E-002  2.772502397054821E-002
  2.376430626046989E-002  1.980358855039158E-002  1.584287084031326E-002
  1.188215313023495E-002  7.921435420156629E-003  3.960717710078312E-003
  0.000000000000000E+000  3.960717710078315E-002  3.564645939070483E-002
  3.168574168062652E-002  2.772502397054821E-002  2.376430626046989E-002
  1.980358855039158E-002  1.584287084031326E-002  1.188215313023495E-002
  7.921435420156629E-003  3.960717710078312E-003  0.000000000000000E+000
  3.960717710078315E-002  3.564645939070483E-002  3.168574168062652E-002
  2.772502397054821E-002  2.376430626046989E-002  1.980358855039158E-002
  1.584287084031326E-002  1.188215313023495E-002  7.921435420156629E-003
  3.960717710078312E-003  0.000000000000000E+000  3.960717710078315E-002
  3.564645939070483E-002  3.168574168062652E-002  2.772502397054821E-002
  2.376430626046989E-002  1.980358855039158E-002  1.584287084031326E-002
  1.188215313023495E-002  7.921435420156629E-003  3.960717710078312E-003
  0.000000000000000E+000  3.960717710078315E-002  3.564645939070483E-002
  3.168574168062652E-002  2.772502397054821E-002  2.376430626046989E-002
  1.980358855039158E-002  1.584287084031326E-002  1.188215313023495E-002
  7.921435420156629E-003  3.960717710078312E-003  0.000000000000000E+000
  3.960717710078315E-002  3.564645939070483E-002  3.168574168062652E-002
  2.772502397054821E-002  2.376430626046989E-002  1.980358855039158E-002
  1.584287084031326E-002  1.188215313023495E-002  7.921435420156629E-003
  3.960717710078312E-003  0.000000000000000E+000  3.960717710078315E-002
  3.564645939070483E-002  3.168574168062652E-002  2.772502397054821E-002
  2.376430626046989E-002  1.980358855039158E-002  1.584287084031326E-002
  1.188215313023495E-002  7.921435420156629E-003  3.960717710078312E-003
  0.000000000000000E+000  3.960717710078315E-002  3.564645939070483E-002
  3.168574168062652E-002  2.772502397054821E-002  2.376430626046989E-002
  1.980358855039158E-002  1.584287084031326E-002  1.188215313023495E-002
  7.921435420156629E-003  3.960717710078312E-003  0.000000000000000E+000
  3.960717710078315E-002  3.564645939070483E-002  3.168574168062652E-002
  2.772502397054821E-002  2.376430626046989E-002  1.980358855039158E-002
  1.584287084031326E-002  1.188215313023495E-002  7.921435420156629E-003
  3.960717710078312E-003  0.000000000000000E+000  3.960717710078315E-002
  3.564645939070483E-002  3.168574168062652E-002  2.772502397054821E-002
  2.376430626046989E-002  1.980358855039158E-002  1.584287084031326E-002
  1.188215313023495E-002  7.921435420156629E-003  3.960717710078312E-003
  0.000000000000000E+000
  2.477540288642385E-002  5.025674642892469E-002  7.739991768183399E-002
  0.105794206794554       0.134784254333372       0.163945859351702     
  0.193089973570897       0.221642964759360       0.249752359439797     
  0.277182063928254       4.261697523402464E-002  8.536140566104039E-002
  0.130683447848521       0.177984841453837       0.226263346788838     
  0.274924366397673       0.323652168569833       0.371743707559607     
  0.419654061403416       0.468043656604406       6.278330523132872E-002
  0.121244530648656       0.182088654153363       0.245009741941615     
  0.309055609331034       0.373724244005377       0.438812449399819     
  0.504000347060160       0.569916036884020       0.635797549929648     
  8.867809343043993E-002  0.161530499469636       0.234335401491361     
  0.307995072450877       0.382224588548570       0.456856913400796     
  0.531943789332011       0.607454803564308       0.683090034481638     
  0.755179972505673       0.127453228594430       0.217119725120417     
  0.301156941469864       0.383219988090951       0.464183333120113     
  0.544429174691277       0.624216254264370       0.703529056539309     
  0.781544007856038       0.853762598221650       0.187165402482763     
  0.301188972784203       0.400091752630495       0.492125232504564     
  0.579887875411334       0.664501268688174       0.746515677798952     
  0.826016867909554       0.902208184718535       0.970766965574971     
  0.273331804964470       0.423296214948089       0.544333419982539     
  0.651151456131225       0.748836555388186       0.839675622988293     
  0.924774346685515        1.00448734465924        1.07818303580665     
   1.14187828120546       0.386561939193234       0.585376291889026     
  0.737542852919373       0.865923808238609       0.978768607402586     
   1.07995341980548        1.17146397302414        1.25414688449827     
   1.32763097012827        1.38816099712781       0.524357629037203     
  0.784139773974431       0.976269144339218        1.13327411297414     
   1.26713904663069        1.38363378402467        1.48583006012520     
   1.57521756005631        1.65176182170016        1.71182124835841     
  0.683459634890504        1.01472449865287        1.25453975328231     
   1.44642486637831        1.60658930895924        1.74293536326834     
   1.85975277312118        1.95924492521800        2.04173337225961     
   2.10360301589746       0.860528064011046        1.27198845798685     
   1.56578709198909        1.79757486368391        1.98821767494573     
   2.14796699340313        2.28244933214037        2.39463977882485     
   2.48522275642374        2.55053466146564        1.05216549020034     
   1.55070461050603        1.90333894271991        2.17880644628775     
   2.40299285374110        2.58868480384402        2.74295560858945     
   2.86961746182746        2.96974249916082        3.03957070763477     
   1.25494903899428        1.84565152608161        2.26056922390591     
   2.58228551479900        2.84200064023719        3.05519218614119     
   3.23048248474236        3.37259455653181        3.48303939199457     
   3.55797341222835        1.46618219671619        2.15262371012098     
   2.63201477076186        3.00140133485244        3.29755798371839     
   3.53880514701507        3.73542436716033        3.89314559180047     
   4.01400605704212        4.09415406915807        1.68640821903490     
   2.47181968442229        3.01717372191357        3.43475043872269     
   3.76726724375350        4.03612437944338        4.25342995731639     
   4.42605402269115        4.55669373692507        4.64164398992983     
   1.92390459156704        2.81363466994977        3.42682868332162     
   3.89272704660278        4.26080021539747        4.55601438240862     
   4.79262076805468        4.97883624761877        5.11815892919175     
   5.20717036701502        2.19283033606419        3.19563297814345     
   3.87928568876550        4.39349728584620        4.79602771066870     
   5.11618993368069        5.37078678349518        5.56960768671090     
   5.71707569747987        5.81006678696745        2.48075832211751     
   3.59873502850611        4.35068629149635        4.90968101320803     
   5.34297774293670        5.68478718709664        5.95473058235429     
   6.16433295728280        6.31909220524976        6.41631439332806     
   2.72092331679034        3.92800202090657        4.72805191023478     
   5.31509790514157        5.76495349000874        6.11624651442496     
   6.39123064390518        6.60316381351243        6.75881729831289     
   6.85665278352973        2.83191227778391        4.06630786740689     
   4.87036163776090        5.45083799367325        5.88924841585114     
   6.22729368049805        6.48894406594949        6.68845731182072     
   6.83342277030686        6.92387676380023        2.78215526156835     
   3.96421468645981        4.71596607459162        5.24774700227279     
   5.64288243826359        5.94371993362635        6.17421615207698     
   6.34834577243296        6.47353619450640        6.55072607777466     
   2.57689337092718        3.62335722868692        4.26629413204012     
   4.71109979711319        5.03722097927655        5.28359682303326     
   5.47163716627293        5.61372043712880        5.71661573547784     
   5.78139978369164        2.21956564830200        3.05013664477752     
   3.54113020419170        3.87608918847998        4.12064539250005     
   4.30542695353377        4.44703645315147        4.55552651491038     
   4.63809429151722        4.70082526060028        1.69452284572428     
   2.25473370542230        2.58149099812000        2.80498776091561     
   2.96884324168035        3.09315818399427        3.18886431139655     
   3.26264941601678        3.31946916447185        3.36623679998290     
   1.02962248979014        1.34329982798146        1.52798138437339     
   1.65501077261902        1.74846700483297        1.81952346329258     
   1.87424667385387        1.91619387547804        1.94737793020983     
   1.96729244044441     
  0.000000000000000E+000  0.000000000000000E+000  0.000000000000000E+000
  0.000000000000000E+000  0.000000000000000E+000  0.000000000000000E+000
  0.000000000000000E+000  0.000000000000000E+000  0.000000000000000E+000
  0.000000000000000E+000  0.000000000000000E+000  0.000000000000000E+000
  0.000000000000000E+000  0.000000000000000E+000  0.000000000000000E+000
  0.000000000000000E+000  0.000000000000000E+000  0.000000000000000E+000
  0.000000000000000E+000  0.000000000000000E+000  0.000000000000000E+000
  0.000000000000000E+000  0.000000000000000E+000  0.000000000000000E+000
  0.000000000000000E+000  0.000000000000000E+000  0.000000000000000E+000
  0.000000000000000E+000  0.000000000000000E+000  0.000000000000000E+000
  0.000000000000000E+000  0.000000000000000E+000  0.000000000000000E+000
  0.000000000000000E+000  0.000000000000000E+000  0.000000000000000E+000
  0.000000000000000E+000  0.000000000000000E+000  0.000000000000000E+000
  0.000000000000000E+000  0.000000000000000E+000  0.000000000000000E+000
  0.000000000000000E+000  0.000000000000000E+000  0.000000000000000E+000
  0.000000000000000E+000  0.000000000000000E+000  0.000000000000000E+000
  0.000000000000000E+000  0.000000000000000E+000  0.000000000000000E+000
  0.000000000000000E+000  0.000000000000000E+000  0.000000000000000E+000
  0.000000000000000E+000  0.000000000000000E+000  0.000000000000000E+000
  0.000000000000000E+000  0.000000000000000E+000  0.000000000000000E+000
  0.000000000000000E+000  0.000000000000000E+000  0.000000000000000E+000
  0.000000000000000E+000  0.000000000000000E+000  0.000000000000000E+000
  0.000000000000000E+000  0.000000000000000E+000  0.000000000000000E+000
  0.000000000000000E+000  0.000000000000000E+000  0.000000000000000E+000
  0.000000000000000E+000  0.000000000000000E+000  0.000000000000000E+000
  0.000000000000000E+000  0.000000000000000E+000  0.000000000000000E+000
  0.000000000000000E+000  0.000000000000000E+000  0.000000000000000E+000
  0.000000000000000E+000  0.000000000000000E+000  0.000000000000000E+000
  0.000000000000000E+000  0.000000000000000E+000  0.000000000000000E+000
  0.000000000000000E+000  0.000000000000000E+000  0.000000000000000E+000
  0.000000000000000E+000  0.000000000000000E+000  0.000000000000000E+000
  0.000000000000000E+000  0.000000000000000E+000  0.000000000000000E+000
  0.000000000000000E+000  0.000000000000000E+000  0.000000000000000E+000
  0.000000000000000E+000  0.000000000000000E+000  0.000000000000000E+000
  0.000000000000000E+000  0.000000000000000E+000  0.000000000000000E+000
  0.000000000000000E+000  0.000000000000000E+000  0.000000000000000E+000
  0.000000000000000E+000  0.000000000000000E+000  0.000000000000000E+000
  0.000000000000000E+000  0.000000000000000E+000  0.000000000000000E+000
  0.000000000000000E+000  0.000000000000000E+000  0.000000000000000E+000