 Title = "Wing and Wake"
 VARIABLES = "X" "Y" "Z" "GAM" "skew"
 Zone I=   11 J=   26 K=1  T="Blade"
 DATAPACKING=BLOCK
 VARLOCATION=([4]=CELLCENTERED,[5]=CELLCENTERED)
  0.206495539985008       0.204822874278558       0.203150208572107     
  0.201477542865656       0.199804877159206       0.198132211452755     
  0.196459545746304       0.194786880039853       0.193114214333403     
  0.191441548626952       0.189768882920501       0.210235603141560     
  0.208562937435109       0.206890271728658       0.205217606022208     
  0.203544940315757       0.201872274609307       0.200199608902856     
  0.198526943196405       0.196854277489954       0.195181611783504     
  0.193508946077053       0.221396809581030       0.219724143874580     
  0.218051478168129       0.216378812461678       0.214706146755227     
  0.213033481048777       0.211360815342326       0.209688149635875     
  0.208015483929424       0.206342818222973       0.204670152516523     
  0.239803140410487       0.238130474704037       0.236457808997586     
  0.234785143291135       0.233112477584684       0.231439811878233     
  0.229767146171783       0.228094480465332       0.226421814758881     
  0.224749149052431       0.223076483345980       0.265164316797341     
  0.263491651090891       0.261818985384440       0.260146319677989     
  0.258473653971538       0.256800988265088       0.255128322558637     
  0.253455656852186       0.251782991145735       0.250110325439285     
  0.248437659732834       0.297080377839939       0.295407712133489     
  0.293735046427037       0.292062380720587       0.290389715014137     
  0.288717049307686       0.287044383601235       0.285371717894784     
  0.283699052188334       0.282026386481882       0.280353720775432     
  0.335047988189908       0.333375322483458       0.331702656777007     
  0.330029991070557       0.328357325364106       0.326684659657656     
  0.325011993951204       0.323339328244754       0.321666662538302     
  0.319993996831852       0.318321331125401       0.378468375951280     
  0.376795710244829       0.375123044538379       0.373450378831928     
  0.371777713125477       0.370105047419026       0.368432381712576     
  0.366759716006125       0.365087050299674       0.363414384593223     
  0.361741718886773       0.426656775670973       0.424984109964523     
  0.423311444258072       0.421638778551621       0.419966112845171     
  0.418293447138719       0.416620781432268       0.414948115725818     
  0.413275450019368       0.411602784312916       0.409930118606466     
  0.478853227499054       0.477180561792604       0.475507896086153     
  0.473835230379702       0.472162564673252       0.470489898966800     
  0.468817233260349       0.467144567553899       0.465471901847448     
  0.463799236140998       0.462126570434547       0.534234562209546     
  0.532561896503096       0.530889230796645       0.529216565090194     
  0.527543899383743       0.525871233677293       0.524198567970841     
  0.522525902264391       0.520853236557940       0.519180570851489     
  0.517507905145039       0.591927383070857       0.590254717364406     
  0.588582051657957       0.586909385951504       0.585236720245054     
  0.583564054538604       0.581891388832153       0.580218723125703     
  0.578546057419252       0.576873391712800       0.575200726006350     
  0.651021839833986       0.649349174127535       0.647676508421083     
  0.646003842714634       0.644331177008182       0.642658511301731     
  0.640985845595281       0.639313179888831       0.637640514182380     
  0.635967848475929       0.634295182769479       0.710585977614459     
  0.708913311908007       0.707240646201556       0.705567980495106     
  0.703895314788655       0.702222649082205       0.700549983375755     
  0.698877317669303       0.697204651962854       0.695531986256402     
  0.693859320549951       0.769680434377586       0.768007768671136     
  0.766335102964686       0.764662437258234       0.762989771551782     
  0.761317105845333       0.759644440138881       0.757971774432431     
  0.756299108725980       0.754626443019529       0.752953777313080     
  0.827373255238898       0.825700589532446       0.824027923825997     
  0.822355258119546       0.820682592413096       0.819009926706644     
  0.817337261000193       0.815664595293743       0.813991929587292     
  0.812319263880840       0.810646598174391       0.882754589949390     
  0.881081924242939       0.879409258536488       0.877736592830039     
  0.876063927123586       0.874391261417136       0.872718595710686     
  0.871045930004235       0.869373264297784       0.867700598591334     
  0.866027932884883       0.934951041777471       0.933278376071020     
  0.931605710364569       0.929933044658118       0.928260378951667     
  0.926587713245218       0.924915047538767       0.923242381832315     
  0.921569716125865       0.919897050419414       0.918224384712963     
  0.983139441497164       0.981466775790712       0.979794110084262     
  0.978121444377811       0.976448778671361       0.974776112964911     
  0.973103447258459       0.971430781552009       0.969758115845559     
  0.968085450139107       0.966412784432656        1.02655982925853     
   1.02488716355209        1.02321449784563        1.02154183213918     
   1.01986916643273        1.01819650072628        1.01652383501983     
   1.01485116931338        1.01317850360693        1.01150583790048     
   1.00983317219403        1.06452743960851        1.06285477390205     
   1.06118210819560        1.05950944248915        1.05783677678270     
   1.05616411107625        1.05449144536980        1.05281877966335     
   1.05114611395690        1.04947344825045        1.04780078254400     
   1.09644350065110        1.09477083494465        1.09309816923820     
   1.09142550353175        1.08975283782530        1.08808017211885     
   1.08640750641240        1.08473484070595        1.08306217499950     
   1.08138950929305        1.07971684358660        1.12180467703796     
   1.12013201133150        1.11845934562505        1.11678667991860     
   1.11511401421215        1.11344134850570        1.11176868279925     
   1.11009601709280        1.10842335138635        1.10675068567990     
   1.10507801997345        1.14021100786741        1.13853834216096     
   1.13686567645451        1.13519301074806        1.13352034504161     
   1.13184767933516        1.13017501362871        1.12850234792226     
   1.12682968221581        1.12515701650936        1.12348435080291     
   1.15137221430688        1.14969954860043        1.14802688289398     
   1.14635421718753        1.14468155148108        1.14300888577463     
   1.14133622006818        1.13966355436173        1.13799088865528     
   1.13631822294883        1.13464555724238        1.15511227746343     
   1.15343961175698        1.15176694605053        1.15009428034408     
   1.14842161463763        1.14674894893118        1.14507628322473     
   1.14340361751828        1.14173095181183        1.14005828610538     
   1.13838562039893     
  0.168481099948974       0.149922613893923       0.131364127838872     
  0.112805641783821       9.424715572876910E-002  7.568866967371803E-002
  5.713018361866665E-002  3.857169756361541E-002  2.001321150856431E-002
  1.454725453512801E-003 -1.710376060153846E-002  0.168144010201278     
  0.149585524146227       0.131027038091175       0.112468552036124     
  9.391006598107285E-002  7.535157992602166E-002  5.679309387097033E-002
  3.823460781591913E-002  1.967612176086787E-002  1.117635705816609E-003
 -1.744085034923488E-002  0.167138057064878       0.148579571009827     
  0.130021084954775       0.111462598899724       9.290411284467258E-002
  7.434562678962138E-002  5.578714073456983E-002  3.722865467951893E-002
  1.867016862446771E-002  1.116825694161772E-004 -1.844680348563486E-002
  0.165479105021662       0.146920618966611       0.128362132911559     
  0.109803646856508       9.124516080145686E-002  7.268667474640543E-002
  5.412818869135433E-002  3.556970263630310E-002  1.701121658125177E-002
 -1.547269473799730E-003 -2.010575552885051E-002  0.163193316736362     
  0.144634830681311       0.126076344626259       0.107517858571208     
  8.895937251615672E-002  7.040088646110548E-002  5.184240040605419E-002
  3.328391435100312E-002  1.472542829595191E-002 -3.833057759099398E-003
 -2.239154381415075E-002  0.160316740455701       0.141758254400650     
  0.123199768345598       0.104641282290547       8.608279623549593E-002
  6.752431018044416E-002  4.896582412539322E-002  3.040733807034194E-002
  1.184885201529036E-002 -6.709634039760934E-003 -2.526812009481222E-002
  0.156894741506007       0.138336255450957       0.119777769395905     
  0.101219283340854       8.266079728580239E-002  6.410231123075141E-002
  4.554382517570018E-002  2.698533912064915E-002  8.426853065598081E-003
 -1.013163298945356E-002 -2.869011904450477E-002  0.152981286854923     
  0.134422800799871       0.115864314744820       9.730582868976889E-002
  7.874734263471765E-002  6.018885657966626E-002  4.163037052461496E-002
  2.307188446956416E-002  4.513398414512483E-003 -1.404508764053841E-002
 -3.260357369558999E-002  0.148638094020078       0.130079607965026     
  0.111521121909975       9.296263585492413E-002  7.440414979987296E-002
  5.584566374482140E-002  3.728717768976995E-002  1.872869163471874E-002
  1.702055796671385E-004 -1.838828047538369E-002 -3.694676653043478E-002
  0.143933657746976       0.125375171691925       0.106816685636873     
  8.825819958182175E-002  6.969971352677065E-002  5.114122747171968E-002
  3.258274141666830E-002  1.402425536161693E-002 -4.534230693434477E-003
 -2.309271674848546E-002 -4.165120280353680E-002  0.138942169805938     
  0.120383683750887       0.101825197695836       8.326671164078440E-002
  6.470822558573294E-002  4.614973953068146E-002  2.759125347563056E-002
  9.032767420578607E-003 -9.525718634472111E-003 -2.808420468952348E-002
 -4.664269074457461E-002  0.133742348943564       0.115183862888513     
  9.662537683346205E-002  7.806689077841046E-002  5.950840472335912E-002
  4.094991866830825E-002  2.239143261325695E-002  3.832946558205563E-003
 -1.472553949684588E-002 -3.328402555189650E-002 -5.184251160694793E-002
  0.128416199441078       0.109857713386026       9.129922733097448E-002
  7.274074127592418E-002  5.418225522087228E-002  3.562376916582184E-002
  1.706528311076957E-002 -1.493202944281605E-003 -2.005168899933219E-002
 -3.861017505438363E-002 -5.716866110943521E-002  0.123047717857820     
  0.104489231802768       8.593074574771728E-002  6.737225969266526E-002
  4.881377363761430E-002  3.025528758256235E-002  1.169680152751096E-002
 -6.861684527539010E-003 -2.542017058259133E-002 -4.397865663764264E-002
 -6.253714269269382E-002  0.117721568355332       9.916308230028144E-002
  8.060459624522988E-002  6.204611019017887E-002  4.348762413512702E-002
  2.492913808007668E-002  6.370652025024991E-003 -1.218783403002753E-002
 -3.074632008507817E-002 -4.930480614012878E-002 -6.786329219518036E-002
  0.112521747492959       9.396326143790737E-002  7.540477538285634E-002
  5.684628932780576E-002  3.828780327275445E-002  1.972931721770233E-002
  1.170831162651826E-003 -1.738765489239988E-002 -3.594614094745073E-002
 -5.450462700250235E-002 -7.306311305755372E-002  0.107530259551921     
  8.897177349686981E-002  7.041328744181811E-002  5.185480138676782E-002
  3.329631533171580E-002  1.473782927666495E-002 -3.820656778386625E-003
 -2.237914283343769E-002 -4.093762888848908E-002 -5.949611494354063E-002
 -7.805460099859132E-002  0.102825823278819       8.426733722376786E-002
  6.570885116871580E-002  4.715036511366557E-002  2.859187905861452E-002
  1.003339300356274E-002 -8.525093051488545E-003 -2.708357910653965E-002
 -4.564206516159098E-002 -6.420055121664242E-002 -8.275903727169311E-002
  9.848263044397371E-002  7.992414438892265E-002  6.136565833387073E-002
  4.280717227882083E-002  2.424868622376924E-002  5.690200168717643E-003
 -1.286828588633332E-002 -3.142677194138462E-002 -4.998525799643601E-002
 -6.854374405148765E-002 -8.710223010653804E-002  9.456917579288929E-002
  7.601068973783791E-002  5.745220368278672E-002  3.889371762773467E-002
  2.033523157268496E-002  1.776745517632037E-003 -1.678174053741733E-002
 -3.534022659247005E-002 -5.389871264752154E-002 -7.245719870257297E-002
 -9.101568475762335E-002  9.114717684319561E-002  7.258869078814428E-002
  5.403020473309379E-002  3.547171867804275E-002  1.691323262299159E-002
 -1.645253432059625E-003 -2.020373948711216E-002 -3.876222554216321E-002
 -5.732071159721400E-002 -7.587919765226546E-002 -9.443768370731631E-002
  8.827060056253579E-002  6.971211450748416E-002  5.115362845243152E-002
  3.259514239738064E-002  1.403665634233093E-002 -4.521829712721288E-003
 -2.308031576777272E-002 -4.163880182282365E-002 -6.019728787787447E-002
 -7.875577393292724E-002 -9.731425998797913E-002  8.598481227723428E-002
  6.742632622218397E-002  4.886784016713226E-002  3.030935411208147E-002
  1.175086805703006E-002 -6.807617998021260E-003 -2.536610405307272E-002
 -4.392459010812441E-002 -6.248307616317551E-002 -8.104156221822531E-002
 -9.960004827327829E-002  8.432586023402001E-002  6.576737417896934E-002
  4.720888812391634E-002  2.865040206886516E-002  1.009191601381413E-002
 -8.466570041238155E-003 -2.702505609628806E-002 -4.558354215134093E-002
 -6.414202820639046E-002 -8.270051426144365E-002 -0.101259000316494     
  8.331990709761870E-002  6.476142104256868E-002  4.620293498751838E-002
  2.764444893246544E-002  9.085962877413759E-003 -9.472523177638028E-003
 -2.803100923268935E-002 -4.658949528774039E-002 -6.514798134279087E-002
 -8.370646739784267E-002 -0.102264953452894       8.298281734992299E-002
  6.442433129487048E-002  4.586584523982155E-002  2.730735918476843E-002
  8.748873129717498E-003 -9.809612925333265E-003 -2.836809898038538E-002
 -4.692658503543708E-002 -6.548507109048730E-002 -8.404355714553900E-002
 -0.102602043200591     
  3.960717710078315E-002  3.564645939070483E-002  3.168574168062652E-002
  2.772502397054821E-002  2.376430626046989E-002  1.980358855039158E-002
  1.584287084031326E-002  1.188215313023495E-002  7.921435420156629E-003
  3.960717710078312E-003  0.000000000000000E+000  3.960717710078315E-002
  3.564645939070483E-002  3.168574168062652E-002  2.772502397054821E-002
  2.376430626046989E-002  1.980358855039158E-002  1.584287084031326E-002
  1.188215313023495E-002  7.921435420156629E-003  3.960717710078312E-003
  0.000000000000000E+000  3.960717710078315E-002  3.564645939070483E-002
  3.168574168062652E-002  2.772502397054821E-002  2.376430626046989E-002
  1.980358855039158E-002  1.584287084031326E-002  1.188215313023495E-002
  7.921435420156629E-003  3.960717710078312E-003  0.000000000000000E+000
  3.960717710078315E-002  3.564645939070483E-002  3.168574168062652E-002
  2.772502397054821E-002  2.376430626046989E-002  1.980358855039158E-002
  1.584287084031326E-002  1.188215313023495E-002  7.921435420156629E-003
  3.960717710078312E-003  0.000000000000000E+000  3.960717710078315E-002
  3.564645939070483E-002  3.168574168062652E-002  2.772502397054821E-002
  2.376430626046989E-002  1.980358855039158E-002  1.584287084031326E-002
  1.188215313023495E-002  7.921435420156629E-003  3.960717710078312E-003
  0.000000000000000E+000  3.960717710078315E-002  3.564645939070483E-002
  3.168574168062652E-002  2.772502397054821E-002  2.376430626046989E-002
  1.980358855039158E-002  1.584287084031326E-002  1.188215313023495E-002
  7.921435420156629E-003  3.960717710078312E-003  0.000000000000000E+000
  3.960717710078315E-002  3.564645939070483E-002  3.168574168062652E-002
  2.772502397054821E-002  2.376430626046989E-002  1.980358855039158E-002
  1.584287084031326E-002  1.188215313023495E-002  7.921435420156629E-003
  3.960717710078312E-003  0.000000000000000E+000  3.960717710078315E-002
  3.564645939070483E-002  3.168574168062652E-002  2.772502397054821E-002
  2.376430626046989E-002  1.980358855039158E-002  1.584287084031326E-002
  1.188215313023495E-002  7.921435420156629E-003  3.960717710078312E-003
  0.000000000000000E+000  3.960717710078315E-002  3.564645939070483E-002
  3.168574168062652E-002  2.772502397054821E-002  2.376430626046989E-002
  1.980358855039158E-002  1.584287084031326E-002  1.188215313023495E-002
  7.921435420156629E-003  3.960717710078312E-003  0.000000000000000E+000
  3.960717710078315E-002  3.564645939070483E-002  3.168574168062652E-002
  2.772502397054821E-002  2.376430626046989E-002  1.980358855039158E-002
  1.584287084031326E-002  1.188215313023495E-002  7.921435420156629E-003
  3.960717710078312E-003  0.000000000000000E+000  3.960717710078315E-002
  3.564645939070483E-002  3.168574168062652E-002  2.772502397054821E-002
  2.376430626046989E-002  1.980358855039158E-002  1.584287084031326E-002
  1.188215313023495E-002  7.921435420156629E-003  3.960717710078312E-003
  0.000000000000000E+000  3.960717710078315E-002  3.564645939070483E-002
  3.168574168062652E-002  2.772502397054821E-002  2.376430626046989E-002
  1.980358855039158E-002  1.584287084031326E-002  1.188215313023495E-002
  7.921435420156629E-003  3.960717710078312E-003  0.000000000000000E+000
  3.960717710078315E-002  3.564645939070483E-002  3.168574168062652E-002
  2.772502397054821E-002  2.376430626046989E-002  1.980358855039158E-002
  1.584287084031326E-002  1.188215313023495E-002  7.921435420156629E-003
  3.960717710078312E-003  0.000000000000000E+000  3.960717710078315E-002
  3.564645939070483E-002  3.168574168062652E-002  2.772502397054821E-002
  2.376430626046989E-002  1.980358855039158E-002  1.584287084031326E-002
  1.188215313023495E-002  7.921435420156629E-003  3.960717710078312E-003
  0.000000000000000E+000  3.960717710078315E-002  3.564645939070483E-002
  3.168574168062652E-002  2.772502397054821E-002  2.376430626046989E-002
  1.980358855039158E-002  1.584287084031326E-002  1.188215313023495E-002
  7.921435420156629E-003  3.960717710078312E-003  0.000000000000000E+000
  3.960717710078315E-002  3.564645939070483E-002  3.168574168062652E-002
  2.772502397054821E-002  2.376430626046989E-002  1.980358855039158E-002
  1.584287084031326E-002  1.188215313023495E-002  7.921435420156629E-003
  3.960717710078312E-003  0.000000000000000E+000  3.960717710078315E-002
  3.564645939070483E-002  3.168574168062652E-002  2.772502397054821E-002
  2.376430626046989E-002  1.980358855039158E-002  1.584287084031326E-002
  1.188215313023495E-002  7.921435420156629E-003  3.960717710078312E-003
  0.000000000000000E+000  3.960717710078315E-002  3.564645939070483E-002
  3.168574168062652E-002  2.772502397054821E-002  2.376430626046989E-002
  1.980358855039158E-002  1.584287084031326E-002  1.188215313023495E-002
  7.921435420156629E-003  3.960717710078312E-003  0.000000000000000E+000
  3.960717710078315E-002  3.564645939070483E-002  3.168574168062652E-002
  2.772502397054821E-002  2.376430626046989E-002  1.980358855039158E-002
  1.584287084031326E-002  1.188215313023495E-002  7.921435420156629E-003
  3.960717710078312E-003  0.000000000000000E+000  3.960717710078315E-002
  3.564645939070483E-002  3.168574168062652E-002  2.772502397054821E-002
  2.376430626046989E-002  1.980358855039158E-002  1.584287084031326E-002
  1.188215313023495E-002  7.921435420156629E-003  3.960717710078312E-003
  0.000000000000000E+000  3.960717710078315E-002  3.564645939070483E-002
  3.168574168062652E-002  2.772502397054821E-002  2.376430626046989E-002
  1.980358855039158E-002  1.584287084031326E-002  1.188215313023495E-002
  7.921435420156629E-003  3.960717710078312E-003  0.000000000000000E+000
  3.960717710078315E-002  3.564645939070483E-002  3.168574168062652E-002
  2.772502397054821E-002  2.376430626046989E-002  1.980358855039158E-002
  1.584287084031326E-002  1.188215313023495E-002  7.921435420156629E-003
  3.960717710078312E-003  0.000000000000000E+000  3.960717710078315E-002
  3.564645939070483E-002  3.168574168062652E-002  2.772502397054821E-002
  2.376430626046989E-002  1.980358855039158E-002  1.584287084031326E-002
  1.188215313023495E-002  7.921435420156629E-003  3.960717710078312E-003
  0.000000000000000E+000  3.960717710078315E-002  3.564645939070483E-002
  3.168574168062652E-002  2.772502397054821E-002  2.376430626046989E-002
  1.980358855039158E-002  1.584287084031326E-002  1.188215313023495E-002
  7.921435420156629E-003  3.960717710078312E-003  0.000000000000000E+000
  3.960717710078315E-002  3.564645939070483E-002  3.168574168062652E-002
  2.772502397054821E-002  2.376430626046989E-002  1.980358855039158E-002
  1.584287084031326E-002  1.188215313023495E-002  7.921435420156629E-003
  3.960717710078312E-003  0.000000000000000E+000  3.960717710078315E-002
  3.564645939070483E-002  3.168574168062652E-002  2.772502397054821E-002
  2.376430626046989E-002  1.980358855039158E-002  1.584287084031326E-002
  1.188215313023495E-002  7.921435420156629E-003  3.960717710078312E-003
  0.000000000000000E+000
  6.280049879585797E-002  9.319066962657985E-002  0.116255987494635     
  0.134012843988663       0.147317632749550       0.156800791248257     
  0.163073838372487       0.166880052550963       0.168798681062475     
  0.169011465206302       0.103624035284379       0.155554319556537     
  0.194573533958068       0.224717627144565       0.247558718635128     
  0.264112081523011       0.275348881283340       0.282462763435230     
  0.286494450559641       0.288380254844563       0.137993844097423     
  0.210218390867372       0.264080852446527       0.305972131018280     
  0.338441682484938       0.362863147339379       0.380413607016413     
  0.392472339024528       0.400297591863739       0.404684707553790     
  0.169599695803143       0.258728232082806       0.325098482810534     
  0.377302699035724       0.418669180844262       0.451053586529531     
  0.475684151601853       0.493658765329066       0.505753453158858     
  0.511741573088514       0.208807619378855       0.316171240649042     
  0.395486333987207       0.458263125955981       0.508879797188944     
  0.549651625810432       0.581953450995146       0.606651160898367     
  0.624069972130762       0.633349842366813       0.265253807027562     
  0.398273216074624       0.495561796007967       0.572595759574825     
  0.635230210239565       0.686512696285959       0.728183776345181     
  0.761132479116109       0.785430287916078       0.799645115127645     
  0.345824196001422       0.515727866117187       0.638852740007188     
  0.736260871508652       0.815772818914774       0.881342825079859     
  0.935225193340340       0.978578044053870        1.01144472070124     
   1.03183817452496       0.453794050370298       0.673423117705117     
  0.831168174792480       0.955539851296221        1.05711254028592     
   1.14108947453465        1.21034828277261        1.26635100794052     
   1.30917961028239        1.33640117245366       0.588021196504826     
  0.869631326527215        1.07035298727225        1.22783781867636     
   1.35611253647855        1.46202603001253        1.54928418106213     
   1.61974162593657        1.67357093855114        1.70796542060626     
  0.744540408634941        1.09850230831316        1.34925025678155     
   1.54500410972764        1.70379243358859        1.83442978440532     
   1.94169534899405        2.02800350267166        2.09369260027624     
   2.13560074348583       0.918918130850577        1.35345500183073     
   1.65976421724979        1.89780779591542        2.09008536034999     
   2.24763261249462        2.37646946371672        2.47970344745260     
   2.55794098093799        2.60771295196684        1.10726431577141     
   1.62864423801849        1.99464768654539        2.27793402312522     
   2.50585369114018        2.69187042188354        2.84337742135835     
   2.96427629806450        3.05553015066647        3.11342780339068     
   1.30621781399932        1.91897031617384        2.34749435143274     
   2.67791316095840        2.94274380808777        3.15806295349585     
   3.33276002649007        3.47161964337753        3.57603920926998     
   3.64213806240728        1.51318360148049        2.22038447745636     
   2.71306931438200        3.09146581694900        3.39353678204023     
   3.63815026251062        3.83582771028141        3.99234440359508     
   4.10962432004119        4.18372007052135        1.72809032084208     
   2.53223677345414        3.08992059395657        3.51622243341015     
   3.85490792912071        4.12787451528737        4.34746415784139     
   4.52060448260222        4.64989415621563        4.73147781792049     
   1.95659968893040        2.86136185137974        3.48477209233335     
   3.95824237221116        4.33205266572428        4.63156412109927     
   4.87123960520765        5.05939005613607        5.19948931808005     
   5.28797585606515        2.20797637331173        3.21874157273788     
   3.90843394011548        4.42756914825631        4.83421493779192     
   5.15788435530057        5.41554562020340        5.61712781377173     
   5.76716241609760        5.86253502647357        2.47035695888030     
   3.58594935626554        4.33761808604139        4.89722121049687     
   5.33162053072644        5.67496508484236        5.94694874931647     
   6.15923258776308        6.31752762618852        6.41935837410469     
   2.68726552511857        3.88229857183978        4.67600385612969     
   5.25944927216731        5.70749053206525        6.05844890639658     
   6.33446204387695        6.54878712654427        6.70835436148262     
   6.81185288643489        2.78693815499359        4.00422148237534     
   4.79869102443365        5.37337516577410        5.80845703070368     
   6.14509805449954        6.40701553260089        6.60838600255429     
   6.75689618906985        6.85273152500539        2.73577862849779     
   3.89968243630675        4.64105090893891        5.16647941558019     
   5.55784865190839        5.85683107088193        6.08705858062018     
   6.26239190282271        6.39031233231579        6.47184433671604     
   2.53449892744655        3.56455295061242        4.19816473312562     
   4.63725242430830        4.95992301160201        5.20448336684442     
   5.39203213609548        5.53482427915555        5.63964899618402     
   5.70764467091188        2.18385076107512        3.00141271430977     
   3.48518371866958        3.81571704791930        4.05756676608024     
   4.24086717658685        4.38197650896304        4.49084106610994     
   4.57464456617395        4.63946556576413        1.66768801981150     
   2.21915207185872        2.54108921194234        2.76160887845046     
   2.92362122532648        3.04690362934512        3.14222643768797     
   3.21620496900909        3.27377980128596        3.32182548241214     
   1.01341777765666        1.32220309730250        1.50416021072606     
   1.62949499958822        1.72189568909163        1.79235586098813     
   1.84685216148765        1.88890278003655        1.92051914567973     
   1.94121903440514     
  0.000000000000000E+000  0.000000000000000E+000  0.000000000000000E+000
  0.000000000000000E+000  0.000000000000000E+000  0.000000000000000E+000
  0.000000000000000E+000  0.000000000000000E+000  0.000000000000000E+000
  0.000000000000000E+000  0.000000000000000E+000  0.000000000000000E+000
  0.000000000000000E+000  0.000000000000000E+000  0.000000000000000E+000
  0.000000000000000E+000  0.000000000000000E+000  0.000000000000000E+000
  0.000000000000000E+000  0.000000000000000E+000  0.000000000000000E+000
  0.000000000000000E+000  0.000000000000000E+000  0.000000000000000E+000
  0.000000000000000E+000  0.000000000000000E+000  0.000000000000000E+000
  0.000000000000000E+000  0.000000000000000E+000  0.000000000000000E+000
  0.000000000000000E+000  0.000000000000000E+000  0.000000000000000E+000
  0.000000000000000E+000  0.000000000000000E+000  0.000000000000000E+000
  0.000000000000000E+000  0.000000000000000E+000  0.000000000000000E+000
  0.000000000000000E+000  0.000000000000000E+000  0.000000000000000E+000
  0.000000000000000E+000  0.000000000000000E+000  0.000000000000000E+000
  0.000000000000000E+000  0.000000000000000E+000  0.000000000000000E+000
  0.000000000000000E+000  0.000000000000000E+000  0.000000000000000E+000
  0.000000000000000E+000  0.000000000000000E+000  0.000000000000000E+000
  0.000000000000000E+000  0.000000000000000E+000  0.000000000000000E+000
  0.000000000000000E+000  0.000000000000000E+000  0.000000000000000E+000
  0.000000000000000E+000  0.000000000000000E+000  0.000000000000000E+000
  0.000000000000000E+000  0.000000000000000E+000  0.000000000000000E+000
  0.000000000000000E+000  0.000000000000000E+000  0.000000000000000E+000
  0.000000000000000E+000  0.000000000000000E+000  0.000000000000000E+000
  0.000000000000000E+000  0.000000000000000E+000  0.000000000000000E+000
  0.000000000000000E+000  0.000000000000000E+000  0.000000000000000E+000
  0.000000000000000E+000  0.000000000000000E+000  0.000000000000000E+000
  0.000000000000000E+000  0.000000000000000E+000  0.000000000000000E+000
  0.000000000000000E+000  0.000000000000000E+000  0.000000000000000E+000
  0.000000000000000E+000  0.000000000000000E+000  0.000000000000000E+000
  0.000000000000000E+000  0.000000000000000E+000  0.000000000000000E+000
  0.000000000000000E+000  0.000000000000000E+000  0.000000000000000E+000
  0.000000000000000E+000  0.000000000000000E+000  0.000000000000000E+000
  0.000000000000000E+000  0.000000000000000E+000  0.000000000000000E+000
  0.000000000000000E+000  0.000000000000000E+000  0.000000000000000E+000
  0.000000000000000E+000  0.000000000000000E+000  0.000000000000000E+000
  0.000000000000000E+000  0.000000000000000E+000  0.000000000000000E+000
  0.000000000000000E+000  0.000000000000000E+000  0.000000000000000E+000
  0.000000000000000E+000  0.000000000000000E+000  0.000000000000000E+000