 Title = "Wing and Wake"
 VARIABLES = "X" "Y" "Z" "GAM" "skew"
 Zone I=   11 J=   26 K=1  T="Blade"
 DATAPACKING=BLOCK
 VARLOCATION=([4]=CELLCENTERED,[5]=CELLCENTERED)
  7.660264231998207E-002  6.009799461426466E-002  4.359334690854733E-002
  2.708869920282998E-002  1.058405149711238E-002 -5.920596208604840E-003
 -2.242524391432219E-002 -3.892989162003968E-002 -5.543453932575687E-002
 -7.193918703147428E-002 -8.844383473719172E-002  7.485954554545297E-002
  5.835489783973544E-002  4.185025013401815E-002  2.534560242830087E-002
  8.840954722583493E-003 -7.663692983133851E-003 -2.416834068885123E-002
 -4.067298839456861E-002 -5.717763610028602E-002 -7.368228380600336E-002
 -9.018693151172079E-002  6.965774489927584E-002  5.315309719355863E-002
  3.664844948784111E-002  2.014380178212375E-002  3.639154076406424E-003
 -1.286549362931099E-002 -2.937014133502844E-002 -4.587478904074572E-002
 -6.237943674646312E-002 -7.888408445218052E-002 -9.538873215789787E-002
  6.107927588504573E-002  4.457462817932845E-002  2.806998047361090E-002
  1.156533276789382E-002 -4.939314937823611E-003 -2.144396264354107E-002
 -3.794861034925850E-002 -5.445325805497583E-002 -7.095790576069319E-002
 -8.746255346641060E-002 -0.103967201172128       4.925942608364631E-002
  3.275477837792898E-002  1.625013067221151E-002 -2.545170335057165E-004
 -1.675916473922323E-002 -3.326381244494058E-002 -4.976846015065793E-002
 -6.627310785637526E-002 -8.277775556209267E-002 -9.928240326780997E-002
 -0.115787050973527       3.438460158728149E-002  1.787995388156408E-002
  1.375306175846837E-003 -1.512934152987054E-002 -3.163398923558803E-002
 -4.813863694130566E-002 -6.464328464702268E-002 -8.114793235274009E-002
 -9.765258005845767E-002 -0.114157227764175      -0.130661875469892     
  1.668938726404838E-002  1.847395583310306E-004 -1.631990814738626E-002
 -3.282455585310377E-002 -4.932920355882119E-002 -6.583385126453846E-002
 -8.233849897025566E-002 -9.884314667597319E-002 -0.115347794381690     
 -0.131852442087408      -0.148357089793125      -3.547152785566865E-003
 -2.005180049128425E-002 -3.655644819700165E-002 -5.306109590271897E-002
 -6.956574360843623E-002 -8.607039131415370E-002 -0.102575039019871     
 -0.119079686725588      -0.135584334431306      -0.152088982137023     
 -0.168593629842741      -2.600587623625894E-002 -4.251052394197626E-002
 -5.901517164769347E-002 -7.551981935341071E-002 -9.202446705912821E-002
 -0.108529114764846      -0.125033762470563      -0.141538410176280     
 -0.158043057881998      -0.174547705587715      -0.191052353293432     
 -5.033259560301901E-002 -6.683724330873625E-002 -8.334189101445387E-002
 -9.984653872017134E-002 -0.116351186425889      -0.132855834131606     
 -0.149360481837323      -0.165865129543041      -0.182369777248758     
 -0.198874424954476      -0.215379072660193      -7.614366398935597E-002
 -9.264831169507337E-002 -0.109152959400791      -0.125657607106508     
 -0.142162254812225      -0.158666902517943      -0.175171550223660     
 -0.191676197929378      -0.208180845635095      -0.224685493340812     
 -0.241190141046529      -0.103032025428032      -0.119536673133749     
 -0.136041320839467      -0.152545968545184      -0.169050616250901     
 -0.185555263956619      -0.202059911662336      -0.218564559368054     
 -0.235069207073771      -0.251573854779488      -0.268078502485206     
 -0.130573634396831      -0.147078282102548      -0.163582929808266     
 -0.180087577513983      -0.196592225219701      -0.213096872925417     
 -0.229601520631135      -0.246106168336852      -0.262610816042569     
 -0.279115463748287      -0.295620111454005      -0.158334143269755     
 -0.174838790975472      -0.191343438681189      -0.207848086386907     
 -0.224352734092625      -0.240857381798342      -0.257362029504060     
 -0.273866677209776      -0.290371324915494      -0.306875972621212     
 -0.323380620326928      -0.185875752238554      -0.202380399944271     
 -0.218885047649989      -0.235389695355705      -0.251894343061424     
 -0.268398990767141      -0.284903638472857      -0.301408286178575     
 -0.317912933884293      -0.334417581590010      -0.350922229295728     
 -0.212764113677230      -0.229268761382947      -0.245773409088664     
 -0.262278056794381      -0.278782704500099      -0.295287352205817     
 -0.311791999911534      -0.328296647617252      -0.344801295322968     
 -0.361305943028686      -0.377810590734404      -0.238575182063567     
 -0.255079829769284      -0.271584477475001      -0.288089125180719     
 -0.304593772886436      -0.321098420592154      -0.337603068297871     
 -0.354107716003588      -0.370612363709306      -0.387117011415023     
 -0.403621659120741      -0.262901901430327      -0.279406549136044     
 -0.295911196841762      -0.312415844547479      -0.328920492253196     
 -0.345425139958914      -0.361929787664631      -0.378434435370349     
 -0.394939083076066      -0.411443730781784      -0.427948378487500     
 -0.285360624881019      -0.301865272586737      -0.318369920292453     
 -0.334874567998171      -0.351379215703889      -0.367883863409606     
 -0.384388511115323      -0.400893158821040      -0.417397806526758     
 -0.433902454232476      -0.450407101938193      -0.305597164930634     
 -0.322101812636352      -0.338606460342068      -0.355111108047787     
 -0.371615755753503      -0.388120403459221      -0.404625051164938     
 -0.421129698870656      -0.437634346576373      -0.454138994282091     
 -0.470643641987808      -0.323292379253867      -0.339797026959585     
 -0.356301674665301      -0.372806322371019      -0.389310970076737     
 -0.405815617782454      -0.422320265488172      -0.438824913193889     
 -0.455329560899606      -0.471834208605324      -0.488338856311041     
 -0.338167203750232      -0.354671851455949      -0.371176499161667     
 -0.387681146867384      -0.404185794573101      -0.420690442278820     
 -0.437195089984536      -0.453699737690253      -0.470204385395971     
 -0.486709033101688      -0.503213680807406      -0.349987053551632     
 -0.366491701257349      -0.382996348963067      -0.399500996668784     
 -0.416005644374501      -0.432510292080219      -0.449014939785936     
 -0.465519587491653      -0.482024235197371      -0.498528882903088     
 -0.515033530608805      -0.358565522565862      -0.375070170271579     
 -0.391574817977296      -0.408079465683014      -0.424584113388731     
 -0.441088761094449      -0.457593408800166      -0.474098056505884     
 -0.490602704211601      -0.507107351917318      -0.523611999623035     
 -0.363767323212039      -0.380271970917755      -0.396776618623472     
 -0.413281266329191      -0.429785914034908      -0.446290561740626     
 -0.462795209446343      -0.479299857152061      -0.495804504857778     
 -0.512309152563494      -0.528813800269212      -0.365510419986567     
 -0.382015067692285      -0.398519715398002      -0.415024363103720     
 -0.431529010809437      -0.448033658515154      -0.464538306220872     
 -0.481042953926589      -0.497547601632307      -0.514052249338024     
 -0.530556897043742     
 -0.255261286260400      -0.246611903662132      -0.237962521063863     
 -0.229313138465595      -0.220663755867326      -0.212014373269058     
 -0.203364990670789      -0.194715608072521      -0.186066225474252     
 -0.177416842875984      -0.168767460277715      -0.258587442532679     
 -0.249938059934411      -0.241288677336142      -0.232639294737874     
 -0.223989912139606      -0.215340529541337      -0.206691146943069     
 -0.198041764344800      -0.189392381746532      -0.180742999148263     
 -0.172093616549995      -0.268513455878154      -0.259864073279885     
 -0.251214690681617      -0.242565308083348      -0.233915925485080     
 -0.225266542886811      -0.216617160288543      -0.207967777690274     
 -0.199318395092006      -0.190669012493737      -0.182019629895469     
 -0.284882787136852      -0.276233404538584      -0.267584021940316     
 -0.258934639342047      -0.250285256743779      -0.241635874145510     
 -0.232986491547242      -0.224337108948973      -0.215687726350705     
 -0.207038343752436      -0.198388961154168      -0.307437282176260     
 -0.298787899577992      -0.290138516979724      -0.281489134381455     
 -0.272839751783187      -0.264190369184918      -0.255540986586650     
 -0.246891603988382      -0.238242221390113      -0.229592838791845     
 -0.220943456193576      -0.335821243136205      -0.327171860537937     
 -0.318522477939668      -0.309873095341400      -0.301223712743132     
 -0.292574330144863      -0.283924947546594      -0.275275564948326     
 -0.266626182350058      -0.257976799751789      -0.249327417153520     
 -0.369587037996591      -0.360937655398323      -0.352288272800054     
 -0.343638890201786      -0.334989507603517      -0.326340125005249     
 -0.317690742406980      -0.309041359808712      -0.300391977210443     
 -0.291742594612175      -0.283093212013906      -0.408202160001763     
 -0.399552777403494      -0.390903394805226      -0.382254012206957     
 -0.373604629608688      -0.364955247010420      -0.356305864412152     
 -0.347656481813883      -0.339007099215614      -0.330357716617346     
 -0.321708334019078      -0.451057625610141      -0.442408243011873     
 -0.433758860413604      -0.425109477815336      -0.416460095217067     
 -0.407810712618799      -0.399161330020530      -0.390511947422262     
 -0.381862564823994      -0.373213182225725      -0.364563799627456     
 -0.497477578528469      -0.488828195930201      -0.480178813331932     
 -0.471529430733664      -0.462880048135395      -0.454230665537127     
 -0.445581282938858      -0.436931900340590      -0.428282517742321     
 -0.419633135144053      -0.410983752545785      -0.546729948369289     
 -0.538080565771021      -0.529431183172753      -0.520781800574484     
 -0.512132417976215      -0.503483035377947      -0.494833652779678     
 -0.486184270181410      -0.477534887583141      -0.468885504984873     
 -0.460236122386604      -0.598037995838271      -0.589388613240003     
 -0.580739230641734      -0.572089848043465      -0.563440465445197     
 -0.554791082846928      -0.546141700248660      -0.537492317650392     
 -0.528842935052123      -0.520193552453855      -0.511544169855587     
 -0.650592562376888      -0.641943179778619      -0.633293797180350     
 -0.624644414582082      -0.615995031983813      -0.607345649385545     
 -0.598696266787276      -0.590046884189008      -0.581397501590740     
 -0.572748118992471      -0.564098736394203      -0.703564831076248     
 -0.694915448477980      -0.686266065879711      -0.677616683281442     
 -0.668967300683174      -0.660317918084905      -0.651668535486638     
 -0.643019152888368      -0.634369770290100      -0.625720387691832     
 -0.617071005093563      -0.756119397614865      -0.747470015016596     
 -0.738820632418328      -0.730171249820059      -0.721521867221790     
 -0.712872484623523      -0.704223102025253      -0.695573719426984     
 -0.686924336828717      -0.678274954230448      -0.669625571632180     
 -0.807427445083847      -0.798778062485577      -0.790128679887310     
 -0.781479297289041      -0.772829914690772      -0.764180532092504     
 -0.755531149494235      -0.746881766895967      -0.738232384297699     
 -0.729583001699430      -0.720933619101162      -0.856679814924666     
 -0.848030432326398      -0.839381049728129      -0.830731667129861     
 -0.822082284531592      -0.813432901933324      -0.804783519335055     
 -0.796134136736787      -0.787484754138519      -0.778835371540250     
 -0.770185988941982      -0.903099767842995      -0.894450385244725     
 -0.885801002646457      -0.877151620048189      -0.868502237449920     
 -0.859852854851652      -0.851203472253383      -0.842554089655115     
 -0.833904707056847      -0.825255324458578      -0.816605941860309     
 -0.945955233451372      -0.937305850853105      -0.928656468254836     
 -0.920007085656567      -0.911357703058299      -0.902708320460031     
 -0.894058937861762      -0.885409555263494      -0.876760172665225     
 -0.868110790066956      -0.859461407468688      -0.984570355456544     
 -0.975920972858276      -0.967271590260006      -0.958622207661739     
 -0.949972825063470      -0.941323442465201      -0.932674059866933     
 -0.924024677268665      -0.915375294670396      -0.906725912072128     
 -0.898076529473859       -1.01833615031693       -1.00968676771866     
  -1.00103738512039      -0.992388002522125      -0.983738619923856     
 -0.975089237325587      -0.966439854727319      -0.957790472129050     
 -0.949141089530782      -0.940491706932513      -0.931842324334245     
  -1.04672011127687       -1.03807072867861       -1.02942134608034     
  -1.02077196348207       -1.01212258088380       -1.00347319828553     
 -0.994823815687264      -0.986174433088995      -0.977525050490727     
 -0.968875667892458      -0.960226285294190       -1.06927460631628     
  -1.06062522371801       -1.05197584111975       -1.04332645852148     
  -1.03467707592321       -1.02602769332494       -1.01737831072667     
  -1.00872892812840       -1.00007954553013      -0.991430162931867     
 -0.982780780333598       -1.08564393757498       -1.07699455497671     
  -1.06834517237844       -1.05969578978018       -1.05104640718191     
  -1.04239702458364       -1.03374764198537       -1.02509825938710     
  -1.01644887678883       -1.00779949419057      -0.999150111592296     
  -1.09556995092046       -1.08692056832219       -1.07827118572392     
  -1.06962180312565       -1.06097242052738       -1.05232303792911     
  -1.04367365533084       -1.03502427273258       -1.02637489013431     
  -1.01772550753604       -1.00907612493777       -1.09889610719273     
  -1.09024672459447       -1.08159734199620       -1.07294795939793     
  -1.06429857679966       -1.05564919420139       -1.04699981160312     
  -1.03835042900486       -1.02970104640659       -1.02105166380832     
  -1.01240228121005     
  3.960717710078315E-002  3.564645939070483E-002  3.168574168062652E-002
  2.772502397054821E-002  2.376430626046989E-002  1.980358855039158E-002
  1.584287084031326E-002  1.188215313023495E-002  7.921435420156629E-003
  3.960717710078312E-003  0.000000000000000E+000  3.960717710078315E-002
  3.564645939070483E-002  3.168574168062652E-002  2.772502397054821E-002
  2.376430626046989E-002  1.980358855039158E-002  1.584287084031326E-002
  1.188215313023495E-002  7.921435420156629E-003  3.960717710078312E-003
  0.000000000000000E+000  3.960717710078315E-002  3.564645939070483E-002
  3.168574168062652E-002  2.772502397054821E-002  2.376430626046989E-002
  1.980358855039158E-002  1.584287084031326E-002  1.188215313023495E-002
  7.921435420156629E-003  3.960717710078312E-003  0.000000000000000E+000
  3.960717710078315E-002  3.564645939070483E-002  3.168574168062652E-002
  2.772502397054821E-002  2.376430626046989E-002  1.980358855039158E-002
  1.584287084031326E-002  1.188215313023495E-002  7.921435420156629E-003
  3.960717710078312E-003  0.000000000000000E+000  3.960717710078315E-002
  3.564645939070483E-002  3.168574168062652E-002  2.772502397054821E-002
  2.376430626046989E-002  1.980358855039158E-002  1.584287084031326E-002
  1.188215313023495E-002  7.921435420156629E-003  3.960717710078312E-003
  0.000000000000000E+000  3.960717710078315E-002  3.564645939070483E-002
  3.168574168062652E-002  2.772502397054821E-002  2.376430626046989E-002
  1.980358855039158E-002  1.584287084031326E-002  1.188215313023495E-002
  7.921435420156629E-003  3.960717710078312E-003  0.000000000000000E+000
  3.960717710078315E-002  3.564645939070483E-002  3.168574168062652E-002
  2.772502397054821E-002  2.376430626046989E-002  1.980358855039158E-002
  1.584287084031326E-002  1.188215313023495E-002  7.921435420156629E-003
  3.960717710078312E-003  0.000000000000000E+000  3.960717710078315E-002
  3.564645939070483E-002  3.168574168062652E-002  2.772502397054821E-002
  2.376430626046989E-002  1.980358855039158E-002  1.584287084031326E-002
  1.188215313023495E-002  7.921435420156629E-003  3.960717710078312E-003
  0.000000000000000E+000  3.960717710078315E-002  3.564645939070483E-002
  3.168574168062652E-002  2.772502397054821E-002  2.376430626046989E-002
  1.980358855039158E-002  1.584287084031326E-002  1.188215313023495E-002
  7.921435420156629E-003  3.960717710078312E-003  0.000000000000000E+000
  3.960717710078315E-002  3.564645939070483E-002  3.168574168062652E-002
  2.772502397054821E-002  2.376430626046989E-002  1.980358855039158E-002
  1.584287084031326E-002  1.188215313023495E-002  7.921435420156629E-003
  3.960717710078312E-003  0.000000000000000E+000  3.960717710078315E-002
  3.564645939070483E-002  3.168574168062652E-002  2.772502397054821E-002
  2.376430626046989E-002  1.980358855039158E-002  1.584287084031326E-002
  1.188215313023495E-002  7.921435420156629E-003  3.960717710078312E-003
  0.000000000000000E+000  3.960717710078315E-002  3.564645939070483E-002
  3.168574168062652E-002  2.772502397054821E-002  2.376430626046989E-002
  1.980358855039158E-002  1.584287084031326E-002  1.188215313023495E-002
  7.921435420156629E-003  3.960717710078312E-003  0.000000000000000E+000
  3.960717710078315E-002  3.564645939070483E-002  3.168574168062652E-002
  2.772502397054821E-002  2.376430626046989E-002  1.980358855039158E-002
  1.584287084031326E-002  1.188215313023495E-002  7.921435420156629E-003
  3.960717710078312E-003  0.000000000000000E+000  3.960717710078315E-002
  3.564645939070483E-002  3.168574168062652E-002  2.772502397054821E-002
  2.376430626046989E-002  1.980358855039158E-002  1.584287084031326E-002
  1.188215313023495E-002  7.921435420156629E-003  3.960717710078312E-003
  0.000000000000000E+000  3.960717710078315E-002  3.564645939070483E-002
  3.168574168062652E-002  2.772502397054821E-002  2.376430626046989E-002
  1.980358855039158E-002  1.584287084031326E-002  1.188215313023495E-002
  7.921435420156629E-003  3.960717710078312E-003  0.000000000000000E+000
  3.960717710078315E-002  3.564645939070483E-002  3.168574168062652E-002
  2.772502397054821E-002  2.376430626046989E-002  1.980358855039158E-002
  1.584287084031326E-002  1.188215313023495E-002  7.921435420156629E-003
  3.960717710078312E-003  0.000000000000000E+000  3.960717710078315E-002
  3.564645939070483E-002  3.168574168062652E-002  2.772502397054821E-002
  2.376430626046989E-002  1.980358855039158E-002  1.584287084031326E-002
  1.188215313023495E-002  7.921435420156629E-003  3.960717710078312E-003
  0.000000000000000E+000  3.960717710078315E-002  3.564645939070483E-002
  3.168574168062652E-002  2.772502397054821E-002  2.376430626046989E-002
  1.980358855039158E-002  1.584287084031326E-002  1.188215313023495E-002
  7.921435420156629E-003  3.960717710078312E-003  0.000000000000000E+000
  3.960717710078315E-002  3.564645939070483E-002  3.168574168062652E-002
  2.772502397054821E-002  2.376430626046989E-002  1.980358855039158E-002
  1.584287084031326E-002  1.188215313023495E-002  7.921435420156629E-003
  3.960717710078312E-003  0.000000000000000E+000  3.960717710078315E-002
  3.564645939070483E-002  3.168574168062652E-002  2.772502397054821E-002
  2.376430626046989E-002  1.980358855039158E-002  1.584287084031326E-002
  1.188215313023495E-002  7.921435420156629E-003  3.960717710078312E-003
  0.000000000000000E+000  3.960717710078315E-002  3.564645939070483E-002
  3.168574168062652E-002  2.772502397054821E-002  2.376430626046989E-002
  1.980358855039158E-002  1.584287084031326E-002  1.188215313023495E-002
  7.921435420156629E-003  3.960717710078312E-003  0.000000000000000E+000
  3.960717710078315E-002  3.564645939070483E-002  3.168574168062652E-002
  2.772502397054821E-002  2.376430626046989E-002  1.980358855039158E-002
  1.584287084031326E-002  1.188215313023495E-002  7.921435420156629E-003
  3.960717710078312E-003  0.000000000000000E+000  3.960717710078315E-002
  3.564645939070483E-002  3.168574168062652E-002  2.772502397054821E-002
  2.376430626046989E-002  1.980358855039158E-002  1.584287084031326E-002
  1.188215313023495E-002  7.921435420156629E-003  3.960717710078312E-003
  0.000000000000000E+000  3.960717710078315E-002  3.564645939070483E-002
  3.168574168062652E-002  2.772502397054821E-002  2.376430626046989E-002
  1.980358855039158E-002  1.584287084031326E-002  1.188215313023495E-002
  7.921435420156629E-003  3.960717710078312E-003  0.000000000000000E+000
  3.960717710078315E-002  3.564645939070483E-002  3.168574168062652E-002
  2.772502397054821E-002  2.376430626046989E-002  1.980358855039158E-002
  1.584287084031326E-002  1.188215313023495E-002  7.921435420156629E-003
  3.960717710078312E-003  0.000000000000000E+000  3.960717710078315E-002
  3.564645939070483E-002  3.168574168062652E-002  2.772502397054821E-002
  2.376430626046989E-002  1.980358855039158E-002  1.584287084031326E-002
  1.188215313023495E-002  7.921435420156629E-003  3.960717710078312E-003
  0.000000000000000E+000
  0.255113546241486       0.354841160886376       0.426868594018881     
  0.484568778511330       0.532127731101792       0.571219275382948     
  0.603438286309022       0.629487867357973       0.649264551549285     
  0.662174339882368       0.417814426426992       0.591318039485783     
  0.715063980569758       0.813736452919720       0.895119064899879     
  0.962376534001769        1.01808040753735        1.06321083904905     
   1.09826744280304        1.12483345416644       0.538734464313865     
  0.784584670785226       0.959582244379314        1.09837285296897     
   1.21304954975895        1.30897391148092        1.38962713011135     
   1.45502320483254        1.50661511748641        1.54542143626489     
  0.607510760483640       0.903421887305947        1.11828837192772     
   1.28988257582617        1.43245725363944        1.55286223994853     
   1.65374878425529        1.73550260649842        1.79818981018360     
   1.84035843651949       0.631023375407623       0.950638223467987     
   1.18840836268261        1.38140035060999        1.54312244771082     
   1.67980289525807        1.79405563532126        1.88661906598088     
   1.95717910906787        2.00288409663234       0.624006478417979     
  0.947176907631468        1.19198611729163        1.39348647531046     
   1.56381215994305        1.70826664347491        1.82921753936311     
   1.92748337179822        2.00243274653283        2.05062852842741     
  0.613590733211476       0.932894309767074        1.17621320400723     
   1.37759976248430        1.54863512732728        1.69437160216221     
   1.81718741904990        1.91794965788448        1.99567784781969     
   2.04620839835923       0.628715190082265       0.952114621447949     
   1.19675289364407        1.39840177615488        1.56952091879439     
   1.71573037974154        1.83969480673098        1.94215904900967     
   2.02189877848475        2.07427427184026       0.688581556287499     
   1.03484237629051        1.29251602814347        1.50249372798220     
   1.67936009956214        1.82980778736058        1.95703224039934     
   2.06204797987651        2.14379559175522        2.19750128107442     
  0.797481169534178        1.18907811635262        1.47494214112437     
   1.70434311869160        1.89518987095891        2.05586623816443     
   2.19055728215959        2.30092644386403        2.38632342237909     
   2.44203882562822       0.945690817297563        1.40164414108517     
   1.72912738564629        1.98819380905673        2.20100504612346     
   2.37815920244485        2.52516700740811        2.64454643375457     
   2.73618138822022        2.79548844259387        1.12094785917981     
   1.65463163907377        2.03341344907272        2.32975780917322     
   2.57068795627617        2.76932313010693        2.93268301912724     
   3.06424927080606        3.16447845487042        3.22887956336645     
   1.31533453642077        1.93592925752448        2.37250110238678     
   2.71112412212854        2.98414529549995        3.20744946969456     
   3.38970709634801        3.53544058417671        3.64571422167552     
   3.71611702891862        1.52439654427767        2.23826328994909     
   2.73669005188447        3.12041971254232        3.42755071850806     
   3.67696532570494        3.87912916296433        4.03970322910497     
   4.16042851383152        4.23702439315664        1.74416273506097     
   2.55499257243089        3.11695381275358        3.54642051673648     
   3.88765960699995        4.16279715867006        4.38426620731541     
   4.55899407784556        4.68950154976750        4.77175769385961     
   1.96704731367645        2.87422632118932        3.49792813788621     
   3.97078203690331        4.34353523885019        4.64175864635541     
   4.88000682281734        5.06660745083586        5.20499700171180     
   5.29158767389363        2.17726784853221        3.17237516357776     
   3.85032913730610        4.35969590813225        4.75767351917564     
   5.07330273994600        5.32330382018116        5.51747946986133     
   5.66031644346866        5.74896041517016        2.35057104218067     
   3.41366186344134        4.13024966094240        4.66297518572086     
   5.07489791089891        5.39827625910943        5.65186173955401     
   5.84687434485478        5.98892008263765        6.07625671835361     
   2.46117836761651        3.55964001741838        4.29017495385556     
   4.82613976087044        5.23532470814750        5.55265975520726     
   5.79857977370605        5.98547754187536        6.11998573305319     
   6.20180774962560        2.48887885130090        3.57909937207620     
   4.29084156364485        4.80403930890844        5.18973629471714     
   5.48465289051811        5.71021690349797        5.87942579102747     
   5.99953222272628        6.07168482565316        2.41941801966664     
   3.44870127569669        4.10283586435881        4.56402633570266     
   4.90452543102733        5.16126020246741        5.35536542503655     
   5.49943588130783        5.60054308379318        5.66061418351160     
   2.24050794644419        3.14791487901039        3.70315424940460     
   4.08500574066078        4.36263547117470        4.57003532826438     
   4.72605286801848        4.84181119508375        4.92376282753698     
   4.97392805013784        1.93648040119420        2.65635256671627     
   3.07887668180557        3.36474897740619        3.57135611026836     
   3.72550396311693        3.84182101398244        3.92932698880936     
   3.99473235292914        4.04423766523619        1.48342947671746     
   1.96878495957842        2.24929979769524        2.43932810307271     
   2.57709005788516        2.68020240759978        2.75830588601624     
   2.81740681995790        2.86212659310744        2.89910281010203     
  0.902719123550371        1.17432113477482        1.33268534891406     
   1.44052344765538        1.51894533978744        1.57774794056384     
   1.62228468584780        1.65575967451577        1.68010726064423     
   1.69527661442049     
  0.000000000000000E+000  0.000000000000000E+000  0.000000000000000E+000
  0.000000000000000E+000  0.000000000000000E+000  0.000000000000000E+000
  0.000000000000000E+000  0.000000000000000E+000  0.000000000000000E+000
  0.000000000000000E+000  0.000000000000000E+000  0.000000000000000E+000
  0.000000000000000E+000  0.000000000000000E+000  0.000000000000000E+000
  0.000000000000000E+000  0.000000000000000E+000  0.000000000000000E+000
  0.000000000000000E+000  0.000000000000000E+000  0.000000000000000E+000
  0.000000000000000E+000  0.000000000000000E+000  0.000000000000000E+000
  0.000000000000000E+000  0.000000000000000E+000  0.000000000000000E+000
  0.000000000000000E+000  0.000000000000000E+000  0.000000000000000E+000
  0.000000000000000E+000  0.000000000000000E+000  0.000000000000000E+000
  0.000000000000000E+000  0.000000000000000E+000  0.000000000000000E+000
  0.000000000000000E+000  0.000000000000000E+000  0.000000000000000E+000
  0.000000000000000E+000  0.000000000000000E+000  0.000000000000000E+000
  0.000000000000000E+000  0.000000000000000E+000  0.000000000000000E+000
  0.000000000000000E+000  0.000000000000000E+000  0.000000000000000E+000
  0.000000000000000E+000  0.000000000000000E+000  0.000000000000000E+000
  0.000000000000000E+000  0.000000000000000E+000  0.000000000000000E+000
  0.000000000000000E+000  0.000000000000000E+000  0.000000000000000E+000
  0.000000000000000E+000  0.000000000000000E+000  0.000000000000000E+000
  0.000000000000000E+000  0.000000000000000E+000  0.000000000000000E+000
  0.000000000000000E+000  0.000000000000000E+000  0.000000000000000E+000
  0.000000000000000E+000  0.000000000000000E+000  0.000000000000000E+000
  0.000000000000000E+000  0.000000000000000E+000  0.000000000000000E+000
  0.000000000000000E+000  0.000000000000000E+000  0.000000000000000E+000
  0.000000000000000E+000  0.000000000000000E+000  0.000000000000000E+000
  0.000000000000000E+000  0.000000000000000E+000  0.000000000000000E+000
  0.000000000000000E+000  0.000000000000000E+000  0.000000000000000E+000
  0.000000000000000E+000  0.000000000000000E+000  0.000000000000000E+000
  0.000000000000000E+000  0.000000000000000E+000  0.000000000000000E+000
  0.000000000000000E+000  0.000000000000000E+000  0.000000000000000E+000
  0.000000000000000E+000  0.000000000000000E+000  0.000000000000000E+000
  0.000000000000000E+000  0.000000000000000E+000  0.000000000000000E+000
  0.000000000000000E+000  0.000000000000000E+000  0.000000000000000E+000
  0.000000000000000E+000  0.000000000000000E+000  0.000000000000000E+000
  0.000000000000000E+000  0.000000000000000E+000  0.000000000000000E+000
  0.000000000000000E+000  0.000000000000000E+000  0.000000000000000E+000
  0.000000000000000E+000  0.000000000000000E+000  0.000000000000000E+000
  0.000000000000000E+000  0.000000000000000E+000  0.000000000000000E+000