 Title = "Wing and Wake"
 VARIABLES = "X" "Y" "Z" "GAM" "skew"
 Zone I=   11 J=   26 K=1  T="Blade"
 DATAPACKING=BLOCK
 VARLOCATION=([4]=CELLCENTERED,[5]=CELLCENTERED)
  0.255245242164228       0.246599315378018       0.237953388591808     
  0.229307461805598       0.220661535019389       0.212015608233178     
  0.203369681446968       0.194723754660758       0.186077827874549     
  0.177431901088338       0.168785974302129       0.258571763320463     
  0.249925836534253       0.241279909748042       0.232633982961833     
  0.223988056175623       0.215342129389413       0.206696202603203     
  0.198050275816993       0.189404349030783       0.180758422244574     
  0.172112495458363       0.268498865563365       0.259852938777155     
  0.251207011990945       0.242561085204735       0.233915158418525     
  0.225269231632315       0.216623304846105       0.207977378059896     
  0.199331451273685       0.190685524487475       0.182039597701265     
  0.284869992560401       0.276224065774191       0.267578138987981     
  0.258932212201772       0.250286285415562       0.241640358629351     
  0.232994431843142       0.224348505056932       0.215702578270722     
  0.207056651484512       0.198410724698302       0.307426961859190     
  0.298781035072980       0.290135108286770       0.281489181500560     
  0.272843254714350       0.264197327928141       0.255551401141931     
  0.246905474355721       0.238259547569511       0.229613620783301     
  0.220967693997091       0.335814036579010       0.327168109792801     
  0.318522183006591       0.309876256220381       0.301230329434171     
  0.292584402647961       0.283938475861751       0.275292549075541     
  0.266646622289332       0.258000695503121       0.249354768716911     
  0.369583535593914       0.360937608807704       0.352291682021494     
  0.343645755235284       0.334999828449074       0.326353901662865     
  0.317707974876655       0.309062048090444       0.300416121304235     
  0.291770194518024       0.283124267731814       0.408202893731515     
  0.399556966945304       0.390911040159095       0.382265113372885     
  0.373619186586675       0.364973259800465       0.356327333014255     
  0.347681406228046       0.339035479441835       0.330389552655625     
  0.321743625869416       0.451063060643896       0.442417133857687     
  0.433771207071476       0.425125280285266       0.416479353499057     
  0.407833426712846       0.399187499926636       0.390541573140427     
  0.381895646354217       0.373249719568007       0.364603792781797     
  0.497488105895427       0.488842179109218       0.480196252323008     
  0.471550325536797       0.462904398750588       0.454258471964378     
  0.445612545178168       0.436966618391959       0.428320691605748     
  0.419674764819538       0.411028838033328       0.546745878789515     
  0.538099952003305       0.529454025217095       0.520808098430885     
  0.512162171644675       0.503516244858466       0.494870318072254     
  0.486224391286045       0.477578464499835       0.468932537713625     
  0.460286610927415       0.598059554822450       0.589413628036240     
  0.580767701250031       0.572121774463819       0.563475847677610     
  0.554829920891401       0.546183994105191       0.537538067318980     
  0.528892140532770       0.520246213746560       0.511600286960350     
  0.650619886669891       0.641973959883681       0.633328033097470     
  0.624682106311261       0.616036179525051       0.607390252738840     
  0.598744325952631       0.590098399166421       0.581452472380211     
  0.572806545594001       0.564160618807791       0.703597966500583     
  0.694952039714371       0.686306112928161       0.677660186141950     
  0.669014259355741       0.660368332569532       0.651722405783321     
  0.643076478997111       0.634430552210903       0.625784625424692     
  0.617138698638482       0.756158298348021       0.747512371561811     
  0.738866444775602       0.730220517989390       0.721574591203181     
  0.712928664416973       0.704282737630761       0.695636810844551     
  0.686990884058341       0.678344957272130       0.669699030485923     
  0.807471974380957       0.798826047594746       0.790180120808537     
  0.781534194022327       0.772888267236118       0.764242340449907     
  0.755596413663697       0.746950486877487       0.738304560091277     
  0.729658633305066       0.721012706518858       0.856729747275044     
  0.848083820488834       0.839437893702623       0.830791966916415     
  0.822146040130203       0.813500113343994       0.804854186557784     
  0.796208259771576       0.787562332985364       0.778916406199154     
  0.770270479412945       0.903154792526575       0.894508865740364     
  0.885862938954155       0.877217012167945       0.868571085381735     
  0.859925158595527       0.851279231809315       0.842633305023105     
  0.833987378236895       0.825341451450685       0.816695524664475     
  0.946014959438955       0.937369032652745       0.928723105866536     
  0.920077179080326       0.911431252294117       0.902785325507907     
  0.894139398721695       0.885493471935487       0.876847545149278     
  0.868201618363067       0.859555691576856       0.984634317576557     
  0.975988390790346       0.967342464004136       0.958696537217927     
  0.950050610431718       0.941404683645505       0.932758756859298     
  0.924112830073089       0.915466903286877       0.906820976500668     
  0.898175049714457        1.01840381659146        1.00975788980525     
   1.00111196301904       0.992466036232828       0.983820109446620     
  0.975174182660411       0.966528255874201       0.957882329087990     
  0.949236402301781       0.940590475515570       0.931944548729360     
   1.04679089131128        1.03814496452507        1.02949903773886     
   1.02085311095265        1.01220718416644        1.00356125738023     
  0.994915330594020       0.986269403807811       0.977623477021602     
  0.968977550235391       0.960331623449182        1.06934786061007     
   1.06070193382386        1.05205600703765        1.04341008025144     
   1.03476415346523        1.02611822667902        1.01747229989281     
   1.00882637310660        1.00018044632039       0.991534519534181     
  0.982888592747969        1.08571898760711        1.07707306082090     
   1.06842713403469        1.05978120724848        1.05113528046227     
   1.04248935367606        1.03384342688985        1.02519750010364     
   1.01655157331742        1.00790564653122       0.999259719745006     
   1.09564608985001        1.08700016306380        1.07835423627759     
   1.06970830949138        1.06106238270517        1.05241645591896     
   1.04377052913275        1.03512460234654        1.02647867556033     
   1.01783274877412        1.00918682198791        1.09897261100624     
   1.09032668422003        1.08168075743382        1.07303483064761     
   1.06438890386140        1.05574297707519        1.04709705028898     
   1.03845112350277        1.02980519671656        1.02115926993035     
   1.01251334314415     
  7.665608538296703E-002  6.014962709451038E-002  4.364316880605352E-002
  2.713671051759657E-002  1.063025222913957E-002 -5.876206059317012E-003
 -2.238266434777396E-002 -3.888912263623072E-002 -5.539558092468727E-002
 -7.190203921314438E-002 -8.840849750160115E-002  7.491368505292803E-002
  5.840722676447115E-002  4.190076847601424E-002  2.539431018755764E-002
  8.887851899100706E-003 -7.618606389356072E-003 -2.412506467781296E-002
 -4.063152296626952E-002 -5.713798125472663E-002 -7.364443954318331E-002
 -9.015089783164036E-002  6.971396275687526E-002  5.320750446841863E-002
  3.670104617996149E-002  2.019458789150472E-002  3.688129603048093E-003
 -1.281832868540880E-002 -2.932478697386597E-002 -4.583124526232241E-002
 -6.233770355077895E-002 -7.884416183923597E-002 -9.535062012769271E-002
  6.113892122158099E-002  4.463246293312383E-002  2.812600464466692E-002
  1.161954635621055E-002 -4.886911932246313E-003 -2.139337022070318E-002
 -3.789982850915988E-002 -5.440628679761667E-002 -7.091274508607368E-002
 -8.741920337453066E-002 -0.103925661662987       4.932379397453845E-002
  3.281733568608193E-002  1.631087739762467E-002 -1.955808908321095E-004
 -1.670203917928876E-002 -3.320849746774577E-002 -4.971495575620282E-002
 -6.622141404465928E-002 -8.272787233311611E-002 -9.923433062157273E-002
 -0.115740788910030       3.445491263044818E-002  1.794845434199133E-002
  1.441996053534579E-003 -1.506446223492235E-002 -3.157092052337897E-002
 -4.807737881183637E-002 -6.458383710029271E-002 -8.109029538874947E-002
 -9.759675367720660E-002 -0.114103211965663      -0.130609670254120     
  1.676676833034567E-002  2.603100418891573E-004 -1.624614824656748E-002
 -3.275260653502451E-002 -4.925906482348121E-002 -6.576552311193859E-002
 -8.227198140039492E-002 -9.877843968885143E-002 -0.115284897977308     
 -0.131791356265765      -0.148297814554222      -3.461686323770699E-003
 -1.996814461222765E-002 -3.647460290068489E-002 -5.298106118914108E-002
 -6.948751947759793E-002 -8.599397776605468E-002 -0.102500436054511     
 -0.119006894342968      -0.135513352631425      -0.152019810919882     
 -0.168526269208339      -2.591143651811280E-002 -4.241789480657059E-002
 -5.892435309502680E-002 -7.543081138348343E-002 -9.193726967194019E-002
 -0.108443727960397      -0.124950186248854      -0.141456644537311     
 -0.157963102825768      -0.174469561114225      -0.190976019402681     
 -5.022843628128568E-002 -6.673489456974210E-002 -8.324135285819947E-002
 -9.974781114665633E-002 -0.116254269435113      -0.132760727723569     
 -0.149267186012026      -0.165773644300483      -0.182280102588940     
 -0.198786560877397      -0.215293019165854      -7.602919200075206E-002
 -9.253565028920904E-002 -0.109042108577665      -0.125548566866122     
 -0.142055025154579      -0.158561483443036      -0.175067941731492     
 -0.191574400019950      -0.208080858308406      -0.224587316596863     
 -0.241093774885320      -0.102906810346192      -0.119413268634648     
 -0.135919726923105      -0.152426185211561      -0.168932643500019     
 -0.185439101788475      -0.201945560076932      -0.218452018365389     
 -0.234958476653846      -0.251464934942302      -0.267971393230759     
 -0.130437415220385      -0.146943873508842      -0.163450331797299     
 -0.179956790085755      -0.196463248374212      -0.212969706662669     
 -0.229476164951127      -0.245982623239583      -0.262489081528039     
 -0.278995539816496      -0.295501998104953      -0.158186832538481     
 -0.174693290826939      -0.191199749115394      -0.207706207403851     
 -0.224212665692309      -0.240719123980766      -0.257225582269223     
 -0.273732040557677      -0.290238498846137      -0.306744957134593     
 -0.323251415423049      -0.185717437412675      -0.202223895701131     
 -0.218730353989589      -0.235236812278045      -0.251743270566503     
 -0.268249728854959      -0.284756187143416      -0.301262645431874     
 -0.317769103720329      -0.334275562008785      -0.350782020297244     
 -0.212595055758114      -0.229101514046572      -0.245607972335029     
 -0.262114430623484      -0.278620888911942      -0.295127347200399     
 -0.311633805488855      -0.328140263777312      -0.344646722065769     
 -0.361153180354225      -0.377659638642683      -0.238395811477581     
 -0.254902269766037      -0.271408728054494      -0.287915186342951     
 -0.304421644631408      -0.320928102919865      -0.337434561208322     
 -0.353941019496779      -0.370447477785235      -0.386953936073693     
 -0.403460394362148      -0.262712811240753      -0.279219269529211     
 -0.295725727817667      -0.312232186106123      -0.328738644394580     
 -0.345245102683038      -0.361751560971495      -0.378258019259951     
 -0.394764477548408      -0.411270935836864      -0.427777394125321     
 -0.285162561435096      -0.301669019723553      -0.318175478012010     
 -0.334681936300466      -0.351188394588923      -0.367694852877380     
 -0.384201311165836      -0.400707769454293      -0.417214227742750     
 -0.433720686031208      -0.450227144319663      -0.305391016089212     
 -0.321897474377670      -0.338403932666125      -0.354910390954584     
 -0.371416849243039      -0.387923307531497      -0.404429765819952     
 -0.420936224108410      -0.437442682396867      -0.453949140685324     
 -0.470455598973779      -0.323079160389315      -0.339585618677772     
 -0.356092076966227      -0.372598535254684      -0.389104993543141     
 -0.405611451831598      -0.422117910120056      -0.438624368408512     
 -0.455130826696968      -0.471637284985426      -0.488143743273882     
 -0.337948041733404      -0.354454500021861      -0.370960958310319     
 -0.387467416598775      -0.403973874887231      -0.420480333175689     
 -0.436986791464146      -0.453493249752602      -0.469999708041058     
 -0.486506166329517      -0.503012624617975      -0.349763168980448     
 -0.366269627268904      -0.382776085557360      -0.399282543845817     
 -0.415789002134275      -0.432295460422731      -0.448801918711188     
 -0.465308376999646      -0.481814835288102      -0.498321293576558     
 -0.514827751865015      -0.358338210515741      -0.374844668804197     
 -0.391351127092655      -0.407857585381111      -0.424364043669569     
 -0.440870501958027      -0.457376960246483      -0.473883418534940     
 -0.490389876823395      -0.506896335111854      -0.523402793400310     
 -0.363537932811793      -0.380044391100250      -0.396550849388706     
 -0.413057307677164      -0.429563765965621      -0.446070224254079     
 -0.462576682542536      -0.479083140830991      -0.495589599119450     
 -0.512096057407906      -0.528602515696361      -0.365280333141832     
 -0.381786791430291      -0.398293249718746      -0.414799708007204     
 -0.431306166295661      -0.447812624584118      -0.464319082872574     
 -0.480825541161030      -0.497331999449488      -0.513838457737944     
 -0.530344916026403     
  3.960717710078315E-002  3.564645939070483E-002  3.168574168062652E-002
  2.772502397054821E-002  2.376430626046989E-002  1.980358855039158E-002
  1.584287084031326E-002  1.188215313023495E-002  7.921435420156629E-003
  3.960717710078312E-003  0.000000000000000E+000  3.960717710078315E-002
  3.564645939070483E-002  3.168574168062652E-002  2.772502397054821E-002
  2.376430626046989E-002  1.980358855039158E-002  1.584287084031326E-002
  1.188215313023495E-002  7.921435420156629E-003  3.960717710078312E-003
  0.000000000000000E+000  3.960717710078315E-002  3.564645939070483E-002
  3.168574168062652E-002  2.772502397054821E-002  2.376430626046989E-002
  1.980358855039158E-002  1.584287084031326E-002  1.188215313023495E-002
  7.921435420156629E-003  3.960717710078312E-003  0.000000000000000E+000
  3.960717710078315E-002  3.564645939070483E-002  3.168574168062652E-002
  2.772502397054821E-002  2.376430626046989E-002  1.980358855039158E-002
  1.584287084031326E-002  1.188215313023495E-002  7.921435420156629E-003
  3.960717710078312E-003  0.000000000000000E+000  3.960717710078315E-002
  3.564645939070483E-002  3.168574168062652E-002  2.772502397054821E-002
  2.376430626046989E-002  1.980358855039158E-002  1.584287084031326E-002
  1.188215313023495E-002  7.921435420156629E-003  3.960717710078312E-003
  0.000000000000000E+000  3.960717710078315E-002  3.564645939070483E-002
  3.168574168062652E-002  2.772502397054821E-002  2.376430626046989E-002
  1.980358855039158E-002  1.584287084031326E-002  1.188215313023495E-002
  7.921435420156629E-003  3.960717710078312E-003  0.000000000000000E+000
  3.960717710078315E-002  3.564645939070483E-002  3.168574168062652E-002
  2.772502397054821E-002  2.376430626046989E-002  1.980358855039158E-002
  1.584287084031326E-002  1.188215313023495E-002  7.921435420156629E-003
  3.960717710078312E-003  0.000000000000000E+000  3.960717710078315E-002
  3.564645939070483E-002  3.168574168062652E-002  2.772502397054821E-002
  2.376430626046989E-002  1.980358855039158E-002  1.584287084031326E-002
  1.188215313023495E-002  7.921435420156629E-003  3.960717710078312E-003
  0.000000000000000E+000  3.960717710078315E-002  3.564645939070483E-002
  3.168574168062652E-002  2.772502397054821E-002  2.376430626046989E-002
  1.980358855039158E-002  1.584287084031326E-002  1.188215313023495E-002
  7.921435420156629E-003  3.960717710078312E-003  0.000000000000000E+000
  3.960717710078315E-002  3.564645939070483E-002  3.168574168062652E-002
  2.772502397054821E-002  2.376430626046989E-002  1.980358855039158E-002
  1.584287084031326E-002  1.188215313023495E-002  7.921435420156629E-003
  3.960717710078312E-003  0.000000000000000E+000  3.960717710078315E-002
  3.564645939070483E-002  3.168574168062652E-002  2.772502397054821E-002
  2.376430626046989E-002  1.980358855039158E-002  1.584287084031326E-002
  1.188215313023495E-002  7.921435420156629E-003  3.960717710078312E-003
  0.000000000000000E+000  3.960717710078315E-002  3.564645939070483E-002
  3.168574168062652E-002  2.772502397054821E-002  2.376430626046989E-002
  1.980358855039158E-002  1.584287084031326E-002  1.188215313023495E-002
  7.921435420156629E-003  3.960717710078312E-003  0.000000000000000E+000
  3.960717710078315E-002  3.564645939070483E-002  3.168574168062652E-002
  2.772502397054821E-002  2.376430626046989E-002  1.980358855039158E-002
  1.584287084031326E-002  1.188215313023495E-002  7.921435420156629E-003
  3.960717710078312E-003  0.000000000000000E+000  3.960717710078315E-002
  3.564645939070483E-002  3.168574168062652E-002  2.772502397054821E-002
  2.376430626046989E-002  1.980358855039158E-002  1.584287084031326E-002
  1.188215313023495E-002  7.921435420156629E-003  3.960717710078312E-003
  0.000000000000000E+000  3.960717710078315E-002  3.564645939070483E-002
  3.168574168062652E-002  2.772502397054821E-002  2.376430626046989E-002
  1.980358855039158E-002  1.584287084031326E-002  1.188215313023495E-002
  7.921435420156629E-003  3.960717710078312E-003  0.000000000000000E+000
  3.960717710078315E-002  3.564645939070483E-002  3.168574168062652E-002
  2.772502397054821E-002  2.376430626046989E-002  1.980358855039158E-002
  1.584287084031326E-002  1.188215313023495E-002  7.921435420156629E-003
  3.960717710078312E-003  0.000000000000000E+000  3.960717710078315E-002
  3.564645939070483E-002  3.168574168062652E-002  2.772502397054821E-002
  2.376430626046989E-002  1.980358855039158E-002  1.584287084031326E-002
  1.188215313023495E-002  7.921435420156629E-003  3.960717710078312E-003
  0.000000000000000E+000  3.960717710078315E-002  3.564645939070483E-002
  3.168574168062652E-002  2.772502397054821E-002  2.376430626046989E-002
  1.980358855039158E-002  1.584287084031326E-002  1.188215313023495E-002
  7.921435420156629E-003  3.960717710078312E-003  0.000000000000000E+000
  3.960717710078315E-002  3.564645939070483E-002  3.168574168062652E-002
  2.772502397054821E-002  2.376430626046989E-002  1.980358855039158E-002
  1.584287084031326E-002  1.188215313023495E-002  7.921435420156629E-003
  3.960717710078312E-003  0.000000000000000E+000  3.960717710078315E-002
  3.564645939070483E-002  3.168574168062652E-002  2.772502397054821E-002
  2.376430626046989E-002  1.980358855039158E-002  1.584287084031326E-002
  1.188215313023495E-002  7.921435420156629E-003  3.960717710078312E-003
  0.000000000000000E+000  3.960717710078315E-002  3.564645939070483E-002
  3.168574168062652E-002  2.772502397054821E-002  2.376430626046989E-002
  1.980358855039158E-002  1.584287084031326E-002  1.188215313023495E-002
  7.921435420156629E-003  3.960717710078312E-003  0.000000000000000E+000
  3.960717710078315E-002  3.564645939070483E-002  3.168574168062652E-002
  2.772502397054821E-002  2.376430626046989E-002  1.980358855039158E-002
  1.584287084031326E-002  1.188215313023495E-002  7.921435420156629E-003
  3.960717710078312E-003  0.000000000000000E+000  3.960717710078315E-002
  3.564645939070483E-002  3.168574168062652E-002  2.772502397054821E-002
  2.376430626046989E-002  1.980358855039158E-002  1.584287084031326E-002
  1.188215313023495E-002  7.921435420156629E-003  3.960717710078312E-003
  0.000000000000000E+000  3.960717710078315E-002  3.564645939070483E-002
  3.168574168062652E-002  2.772502397054821E-002  2.376430626046989E-002
  1.980358855039158E-002  1.584287084031326E-002  1.188215313023495E-002
  7.921435420156629E-003  3.960717710078312E-003  0.000000000000000E+000
  3.960717710078315E-002  3.564645939070483E-002  3.168574168062652E-002
  2.772502397054821E-002  2.376430626046989E-002  1.980358855039158E-002
  1.584287084031326E-002  1.188215313023495E-002  7.921435420156629E-003
  3.960717710078312E-003  0.000000000000000E+000  3.960717710078315E-002
  3.564645939070483E-002  3.168574168062652E-002  2.772502397054821E-002
  2.376430626046989E-002  1.980358855039158E-002  1.584287084031326E-002
  1.188215313023495E-002  7.921435420156629E-003  3.960717710078312E-003
  0.000000000000000E+000
  0.302620530687108       0.426175932988955       0.504368111508350     
  0.552818324561988       0.579104794380029       0.588358400171786     
  0.583625972265638       0.567118314255484       0.540496754631130     
  0.507142185304144       0.495535752208463       0.708498847933079     
  0.843442792673281       0.927657133011584       0.973787228017613     
  0.990503702069471       0.983025322225244       0.955250908285666     
  0.910985591059970       0.857840821706000       0.633896874281926     
  0.929571838451805        1.12130900676548        1.24378329525255     
   1.31284118871519        1.34000929181254        1.33215756882175     
   1.29533973103615        1.23682959462302        1.16662982853047     
  0.699190459777892        1.04252508105828        1.27417943233255     
   1.42882364443730        1.52044449977887        1.56126218561227     
   1.55762666751310        1.51830164969416        1.45213074407990     
   1.36891256600210       0.707686123256695        1.05972160109249     
   1.30280610082477        1.47252747034286        1.58044510825473     
   1.63391671820702        1.64175626242886        1.61142938122545     
   1.55070528373052        1.46905653475352       0.693203475346816     
   1.03266017374233        1.26672125102787        1.43196770343871     
   1.54154113525610        1.60409883437386        1.62664419908167     
   1.61526174975920        1.57494336191210        1.51129623153630     
  0.677456454491770        1.00413581570545        1.22868082398904     
   1.39041517335301        1.50354291965148        1.57646191165779     
   1.61610827592477        1.62689775168694        1.61146365238680     
   1.57196946488085       0.686266717373529        1.01626400375371     
   1.24557089487459        1.41618413140623        1.54345972428373     
   1.63479119623529        1.69515652649307        1.72825945258013     
   1.73595412567699        1.71846234462309       0.738685066240792     
   1.09383589883789        1.34409142803328        1.53483099327187     
   1.68269085591011        1.79588243189838        1.87912626921865     
   1.93508941366588        1.96453394290116        1.96612446275169     
  0.843673179270145        1.24572928094475        1.52904249736926     
   1.74699658600339        1.91923946206308        2.05524371173282     
   2.16009166974441        2.23632522698797        2.28431295121241     
   2.30166604409988       0.985247243754591        1.45130052319104     
   1.77854860081213        2.03051995379318        2.23080284906326     
   2.39082141004820        2.51670608757407        2.61153363618442     
   2.67580228161685        2.70649576594360        1.14982298590149     
   1.69096338003440        2.06965157978635        2.36084991223762     
   2.59260772707628        2.77864007950501        2.92639853094778     
   3.03973131525699        3.11948565929322        3.16226908471309     
   1.33059038980950        1.95423764996492        2.38927730806875     
   2.72314374734206        2.98873780134514        3.20226797247327     
   3.37264532214224        3.50460092335812        3.59943136232083     
   3.65350017197601        1.52346758657044        2.23483104076226     
   2.72943610040058        3.10802033473333        3.40866529214311     
   3.65026262998638        3.84331542255276        3.99354080347599     
   4.10277822601721        4.16727551644876        1.72779686771142     
   2.53118888873843        3.08752395868813        3.51176108199523     
   3.84756923232982        4.11677361631706        4.33165522792883     
   4.49907254532364        4.62154984577753        4.69539364895648     
   1.94951677647044        2.85044231011146        3.47051208601976     
   3.94060215689927        4.31075353430990        4.60618736934554     
   4.84127142535772        5.02423674993137        5.15848735642580     
   5.24059749384444        2.19967048963940        3.20590460854642     
   3.89179216598998        4.40730745031551        4.81028849126501     
   5.13010718374620        5.38363074011169        5.58070814929589     
   5.72580814968642        5.81592473750271        2.46800524282516     
   3.58133691338716        4.33060451952474        4.88768595928079     
   5.31942557298086        5.65991561573803        5.92879066371310     
   6.13766875904898        6.29223219956050        6.39008905740620     
   2.69513632087342        3.89205529850624        4.68600507714652     
   5.26892424645512        5.71594743437264        6.06547208965475     
   6.33967984431662        6.55188022878928        6.70905441619272     
   6.80999042426325        2.80318209211743        4.02591303735036     
   4.82292427248678        5.39877199852665        5.83419880570505     
   6.17059512868885        6.43181343833188        6.63214539204175     
   6.77938101728298        6.87382792665592        2.75614226855172     
   3.92740036394409        4.67260492077385        5.20016167215336     
   5.59267283242079        5.89216050925102        6.12245343670185     
   6.29754667772374        6.42502975970603        6.50603992109392     
   2.55531540425006        3.59288501131782        4.23048381580587     
   4.67188318177588        4.99592121536120        5.24126381085266     
   5.42921181276350        5.57215220989543        5.67697382757902     
   5.74490078018797        2.20258916508043        3.02649107928626     
   3.51356164985821        3.84603723275251        4.08908680376263     
   4.27313551317812        4.41470442903312        4.52384914761216     
   4.60784564468399        4.67286863046711        1.68229108797948     
   2.23812051008102        2.56231557274613        2.78418724540298     
   2.94705792996424        3.07089838030489        3.16658798196576     
   3.24081627758830        3.29858832555216        3.34686518867565     
   1.02235086629669        1.33358694195378        1.51682776840826     
   1.64293968654523        1.73583942446992        1.80662860119317     
   1.86134485287884        1.90354692527068        1.93527718093056     
   1.95607040574985     
  0.000000000000000E+000  0.000000000000000E+000  0.000000000000000E+000
  0.000000000000000E+000  0.000000000000000E+000  0.000000000000000E+000
  0.000000000000000E+000  0.000000000000000E+000  0.000000000000000E+000
  0.000000000000000E+000  0.000000000000000E+000  0.000000000000000E+000
  0.000000000000000E+000  0.000000000000000E+000  0.000000000000000E+000
  0.000000000000000E+000  0.000000000000000E+000  0.000000000000000E+000
  0.000000000000000E+000  0.000000000000000E+000  0.000000000000000E+000
  0.000000000000000E+000  0.000000000000000E+000  0.000000000000000E+000
  0.000000000000000E+000  0.000000000000000E+000  0.000000000000000E+000
  0.000000000000000E+000  0.000000000000000E+000  0.000000000000000E+000
  0.000000000000000E+000  0.000000000000000E+000  0.000000000000000E+000
  0.000000000000000E+000  0.000000000000000E+000  0.000000000000000E+000
  0.000000000000000E+000  0.000000000000000E+000  0.000000000000000E+000
  0.000000000000000E+000  0.000000000000000E+000  0.000000000000000E+000
  0.000000000000000E+000  0.000000000000000E+000  0.000000000000000E+000
  0.000000000000000E+000  0.000000000000000E+000  0.000000000000000E+000
  0.000000000000000E+000  0.000000000000000E+000  0.000000000000000E+000
  0.000000000000000E+000  0.000000000000000E+000  0.000000000000000E+000
  0.000000000000000E+000  0.000000000000000E+000  0.000000000000000E+000
  0.000000000000000E+000  0.000000000000000E+000  0.000000000000000E+000
  0.000000000000000E+000  0.000000000000000E+000  0.000000000000000E+000
  0.000000000000000E+000  0.000000000000000E+000  0.000000000000000E+000
  0.000000000000000E+000  0.000000000000000E+000  0.000000000000000E+000
  0.000000000000000E+000  0.000000000000000E+000  0.000000000000000E+000
  0.000000000000000E+000  0.000000000000000E+000  0.000000000000000E+000
  0.000000000000000E+000  0.000000000000000E+000  0.000000000000000E+000
  0.000000000000000E+000  0.000000000000000E+000  0.000000000000000E+000
  0.000000000000000E+000  0.000000000000000E+000  0.000000000000000E+000
  0.000000000000000E+000  0.000000000000000E+000  0.000000000000000E+000
  0.000000000000000E+000  0.000000000000000E+000  0.000000000000000E+000
  0.000000000000000E+000  0.000000000000000E+000  0.000000000000000E+000
  0.000000000000000E+000  0.000000000000000E+000  0.000000000000000E+000
  0.000000000000000E+000  0.000000000000000E+000  0.000000000000000E+000
  0.000000000000000E+000  0.000000000000000E+000  0.000000000000000E+000
  0.000000000000000E+000  0.000000000000000E+000  0.000000000000000E+000
  0.000000000000000E+000  0.000000000000000E+000  0.000000000000000E+000
  0.000000000000000E+000  0.000000000000000E+000  0.000000000000000E+000
  0.000000000000000E+000  0.000000000000000E+000  0.000000000000000E+000
  0.000000000000000E+000  0.000000000000000E+000  0.000000000000000E+000