 Title = "Wing and Wake"
 VARIABLES = "X" "Y" "Z" "GAM" "skew"
 Zone I=   11 J=   26 K=1  T="Blade"
 DATAPACKING=BLOCK
 VARLOCATION=([4]=CELLCENTERED,[5]=CELLCENTERED)
 -7.978664192631733E-003  5.727472818646832E-003  1.943360982992549E-002
  3.313974684120425E-002  4.684588385248305E-002  6.055202086376141E-002
  7.425815787504020E-002  8.796429488631871E-002  0.101670431897597     
  0.115376568908876       0.129082705920155      -5.434635555638539E-003
  8.271501455640226E-003  2.197763846691874E-002  3.568377547819739E-002
  4.938991248947589E-002  6.309604950075461E-002  7.680218651203322E-002
  9.050832352331163E-002  0.104214460534591       0.117920597545869     
  0.131626734557148       2.157329504006259E-003  1.586346651528472E-002
  2.956960352656352E-002  4.327574053784216E-002  5.698187754912051E-002
  7.068801456039929E-002  8.439415157167827E-002  9.810028858295661E-002
  0.111806425594235       0.125512562605514       0.139218699616792     
  1.467750116209210E-002  2.838363817337103E-002  4.208977518464972E-002
  5.579591219592807E-002  6.950204920720662E-002  8.320818621848529E-002
  9.691432322976389E-002  0.110620460241042       0.124326597252321     
  0.138032734263600       0.151738871274878       3.192842883238274E-002
  4.563456584366118E-002  5.934070285494016E-002  7.304683986621867E-002
  8.675297687749729E-002  0.100459113888776       0.114165250900055     
  0.127871387911333       0.141577524922612       0.155283661933890     
  0.168989798945169       5.363805508031341E-002  6.734419209159236E-002
  8.105032910287054E-002  9.475646611414940E-002  0.108462603125428     
  0.122168740136707       0.135874877147985       0.149581014159264     
  0.163287151170543       0.176993288181821       0.190699425193100     
  7.946400613125197E-002  9.317014314253040E-002  0.106876280153809     
  0.120582417165088       0.134288554176366       0.147994691187646     
  0.161700828198924       0.175406965210202       0.189113102221480     
  0.202819239232759       0.216525376244037       0.108998991309450     
  0.122705128320728       0.136411265332007       0.150117402343286     
  0.163823539354564       0.177529676365842       0.191235813377121     
  0.204941950388400       0.218648087399678       0.232354224410957     
  0.246060361422236       0.141777226255301       0.155483363266581     
  0.169189500277859       0.182895637289137       0.196601774300416     
  0.210307911311694       0.224014048322973       0.237720185334252     
  0.251426322345531       0.265132459356809       0.278838596368087     
  0.177281778622943       0.190987915634221       0.204694052645500     
  0.218400189656779       0.232106326668057       0.245812463679335     
  0.259518600690614       0.273224737701893       0.286930874713171     
  0.300637011724450       0.314343148735728       0.214952720412145     
  0.228658857423423       0.242364994434701       0.256071131445980     
  0.269777268457259       0.283483405468538       0.297189542479815     
  0.310895679491095       0.324601816502373       0.338307953513652     
  0.352014090524930       0.254195958367361       0.267902095378639     
  0.281608232389919       0.295314369401196       0.309020506412475     
  0.322726643423754       0.336432780435033       0.350138917446311     
  0.363845054457590       0.377551191468868       0.391257328480146     
  0.294392603183265       0.308098740194543       0.321804877205822     
  0.335511014217100       0.349217151228379       0.362923288239657     
  0.376629425250937       0.390335562262215       0.404041699273493     
  0.417747836284772       0.431453973296050       0.334908729758797     
  0.348614866770075       0.362321003781352       0.376027140792631     
  0.389733277803911       0.403439414815190       0.417145551826469     
  0.430851688837745       0.444557825849027       0.458263962860304     
  0.471970099871582       0.375105374574699       0.388811511585977     
  0.402517648597257       0.416223785608535       0.429929922619814     
  0.443636059631093       0.457342196642371       0.471048333653651     
  0.484754470664928       0.498460607676206       0.512166744687486     
  0.414348612529916       0.428054749541194       0.441760886552474     
  0.455467023563751       0.469173160575031       0.482879297586309     
  0.496585434597587       0.510291571608866       0.523997708620144     
  0.537703845631422       0.551409982642703       0.452019554319118     
  0.465725691330396       0.479431828341674       0.493137965352954     
  0.506844102364232       0.520550239375511       0.534256376386790     
  0.547962513398069       0.561668650409347       0.575374787420626     
  0.589080924431904       0.487524106686759       0.501230243698038     
  0.514936380709316       0.528642517720595       0.542348654731873     
  0.556054791743153       0.569760928754431       0.583467065765709     
  0.597173202776988       0.610879339788266       0.624585476799544     
  0.520302341632611       0.534008478643889       0.547714615655168     
  0.561420752666446       0.575126889677725       0.588833026689004     
  0.602539163700281       0.616245300711561       0.629951437722840     
  0.643657574734119       0.657363711745396       0.549837326810808     
  0.563543463822087       0.577249600833365       0.590955737844646     
  0.604661874855922       0.618368011867201       0.632074148878479     
  0.645780285889759       0.659486422901038       0.673192559912317     
  0.686898696923593       0.575663277861747       0.589369414873026     
  0.603075551884303       0.616781688895581       0.630487825906861     
  0.644193962918139       0.657900099929419       0.671606236940697     
  0.685312373951975       0.699018510963254       0.712724647974532     
  0.597372904109676       0.611079041120955       0.624785178132235     
  0.638491315143513       0.652197452154791       0.665903589166071     
  0.679609726177349       0.693315863188627       0.707022000199905     
  0.720728137211186       0.734434274222465       0.614623831779969     
  0.628329968791246       0.642036105802524       0.655742242813804     
  0.669448379825083       0.683154516836361       0.696860653847639     
  0.710566790858920       0.724272927870197       0.737979064881475     
  0.751685201892754       0.627144003438054       0.640850140449331     
  0.654556277460610       0.668262414471889       0.681968551483169     
  0.695674688494448       0.709380825505726       0.723086962517005     
  0.736793099528281       0.750499236539562       0.764205373550840     
  0.634735968497697       0.648442105508976       0.662148242520254     
  0.675854379531533       0.689560516542813       0.703266653554093     
  0.716972790565371       0.730678927576649       0.744385064587928     
  0.758091201599206       0.771797338610483       0.637279997134690     
  0.650986134145971       0.664692271157248       0.678398408168528     
  0.692104545179806       0.705810682191085       0.719516819202364     
  0.733222956213641       0.746929093224921       0.760635230236199     
  0.774341367247480     
  0.266388119088328       0.253764449912961       0.241140780737593     
  0.228517111562226       0.215893442386858       0.203269773211490     
  0.190646104036123       0.178022434860755       0.165398765685388     
  0.152775096510020       0.140151427334653       0.269150295803739     
  0.256526626628372       0.243902957453003       0.231279288277637     
  0.218655619102268       0.206031949926901       0.193408280751533     
  0.180784611576166       0.168160942400798       0.155537273225431     
  0.142913604050063       0.277393264773123       0.264769595597756     
  0.252145926422388       0.239522257247020       0.226898588071653     
  0.214274918896285       0.201651249720918       0.189027580545550     
  0.176403911370183       0.163780242194815       0.151156573019447     
  0.290987029451724       0.278363360276356       0.265739691100989     
  0.253116021925622       0.240492352750254       0.227868683574886     
  0.215245014399519       0.202621345224151       0.189997676048783     
  0.177374006873416       0.164750337698048       0.309717208050037     
  0.297093538874670       0.284469869699302       0.271846200523935     
  0.259222531348567       0.246598862173200       0.233975192997832     
  0.221351523822465       0.208727854647097       0.196104185471730     
  0.183480516296362       0.333288414462702       0.320664745287336     
  0.308041076111967       0.295417406936600       0.282793737761233     
  0.270170068585865       0.257546399410497       0.244922730235130     
  0.232299061059762       0.219675391884394       0.207051722709027     
  0.361328916683835       0.348705247508467       0.336081578333100     
  0.323457909157733       0.310834239982364       0.298210570806998     
  0.285586901631630       0.272963232456262       0.260339563280895     
  0.247715894105527       0.235092224930159       0.393396499242824     
  0.380772830067456       0.368149160892089       0.355525491716722     
  0.342901822541353       0.330278153365986       0.317654484190618     
  0.305030815015251       0.292407145839883       0.279783476664515     
  0.267159807489149       0.428985437206468       0.416361768031101     
  0.403738098855733       0.391114429680366       0.378490760504999     
  0.365867091329630       0.353243422154262       0.340619752978895     
  0.327996083803528       0.315372414628160       0.302748745452792     
  0.467534471763280       0.454910802587913       0.442287133412545     
  0.429663464237177       0.417039795061810       0.404416125886442     
  0.391792456711074       0.379168787535708       0.366545118360339     
  0.353921449184972       0.341297780009604       0.508435661610223     
  0.495811992434855       0.483188323259487       0.470564654084120     
  0.457940984908752       0.445317315733385       0.432693646558016     
  0.420069977382649       0.407446308207282       0.394822639031914     
  0.382198969856546       0.551043970550221       0.538420301374854     
  0.525796632199487       0.513172963024117       0.500549293848751     
  0.487925624673384       0.475301955498016       0.462678286322648     
  0.450054617147280       0.437430947971913       0.424807278796545     
  0.594687440098324       0.582063770922957       0.569440101747588     
  0.556816432572222       0.544192763396854       0.531569094221486     
  0.518945425046118       0.506321755870751       0.493698086695383     
  0.481074417520015       0.468450748344648       0.638677786668413     
  0.626054117493043       0.613430448317676       0.600806779142308     
  0.588183109966941       0.575559440791574       0.562935771616205     
  0.550312102440838       0.537688433265472       0.525064764090103     
  0.512441094914735       0.682321256216513       0.669697587041145     
  0.657073917865779       0.644450248690410       0.631826579515042     
  0.619202910339677       0.606579241164308       0.593955571988940     
  0.581331902813572       0.568708233638204       0.556084564462838     
  0.724929565156513       0.712305895981144       0.699682226805777     
  0.687058557630411       0.674434888455043       0.661811219279675     
  0.649187550104307       0.636563880928940       0.623940211753572     
  0.611316542578203       0.598692873402837       0.765830755003455     
  0.753207085828087       0.740583416652719       0.727959747477353     
  0.715336078301984       0.702712409126617       0.690088739951249     
  0.677465070775883       0.664841401600514       0.652217732425146     
  0.639594063249780       0.804379789560267       0.791756120384898     
  0.779132451209531       0.766508782034164       0.753885112858796     
  0.741261443683430       0.728637774508061       0.716014105332693     
  0.703390436157326       0.690766766981958       0.678143097806591     
  0.839968727523910       0.827345058348542       0.814721389173175     
  0.802097719997808       0.789474050822441       0.776850381647073     
  0.764226712471704       0.751603043296338       0.738979374120971     
  0.726355704945602       0.713732035770234       0.872036310082900     
  0.859412640907531       0.846788971732163       0.834165302556797     
  0.821541633381430       0.808917964206060       0.796294295030694     
  0.783670625855327       0.771046956679958       0.758423287504591     
  0.745799618329223       0.900076812304031       0.887453143128666     
  0.874829473953295       0.862205804777928       0.849582135602561     
  0.836958466427194       0.824334797251827       0.811711128076458     
  0.799087458901092       0.786463789725723       0.773840120550355     
  0.923648018716696       0.911024349541330       0.898400680365961     
  0.885777011190594       0.873153342015227       0.860529672839860     
  0.847906003664491       0.835282334489124       0.822658665313757     
  0.810034996138388       0.797411326963022       0.942378197315010     
  0.929754528139643       0.917130858964274       0.904507189788908     
  0.891883520613540       0.879259851438173       0.866636182262806     
  0.854012513087439       0.841388843912070       0.828765174736703     
  0.816141505561333       0.955971961993612       0.943348292818244     
  0.930724623642876       0.918100954467509       0.905477285292142     
  0.892853616116773       0.880229946941407       0.867606277766038     
  0.854982608590669       0.842358939415301       0.829735270239934     
  0.964214930962994       0.951591261787628       0.938967592612262     
  0.926343923436892       0.913720254261525       0.901096585086157     
  0.888472915910789       0.875849246735422       0.863225577560056     
  0.850601908384687       0.837978239209319       0.966977107678405     
  0.954353438503037       0.941729769327671       0.929106100152303     
  0.916482430976935       0.903858761801569       0.891235092626202     
  0.878611423450832       0.865987754275466       0.853364085100097     
  0.840740415924732     
  3.960717710078315E-002  3.564645939070483E-002  3.168574168062652E-002
  2.772502397054821E-002  2.376430626046989E-002  1.980358855039158E-002
  1.584287084031326E-002  1.188215313023495E-002  7.921435420156629E-003
  3.960717710078312E-003  0.000000000000000E+000  3.960717710078315E-002
  3.564645939070483E-002  3.168574168062652E-002  2.772502397054821E-002
  2.376430626046989E-002  1.980358855039158E-002  1.584287084031326E-002
  1.188215313023495E-002  7.921435420156629E-003  3.960717710078312E-003
  0.000000000000000E+000  3.960717710078315E-002  3.564645939070483E-002
  3.168574168062652E-002  2.772502397054821E-002  2.376430626046989E-002
  1.980358855039158E-002  1.584287084031326E-002  1.188215313023495E-002
  7.921435420156629E-003  3.960717710078312E-003  0.000000000000000E+000
  3.960717710078315E-002  3.564645939070483E-002  3.168574168062652E-002
  2.772502397054821E-002  2.376430626046989E-002  1.980358855039158E-002
  1.584287084031326E-002  1.188215313023495E-002  7.921435420156629E-003
  3.960717710078312E-003  0.000000000000000E+000  3.960717710078315E-002
  3.564645939070483E-002  3.168574168062652E-002  2.772502397054821E-002
  2.376430626046989E-002  1.980358855039158E-002  1.584287084031326E-002
  1.188215313023495E-002  7.921435420156629E-003  3.960717710078312E-003
  0.000000000000000E+000  3.960717710078315E-002  3.564645939070483E-002
  3.168574168062652E-002  2.772502397054821E-002  2.376430626046989E-002
  1.980358855039158E-002  1.584287084031326E-002  1.188215313023495E-002
  7.921435420156629E-003  3.960717710078312E-003  0.000000000000000E+000
  3.960717710078315E-002  3.564645939070483E-002  3.168574168062652E-002
  2.772502397054821E-002  2.376430626046989E-002  1.980358855039158E-002
  1.584287084031326E-002  1.188215313023495E-002  7.921435420156629E-003
  3.960717710078312E-003  0.000000000000000E+000  3.960717710078315E-002
  3.564645939070483E-002  3.168574168062652E-002  2.772502397054821E-002
  2.376430626046989E-002  1.980358855039158E-002  1.584287084031326E-002
  1.188215313023495E-002  7.921435420156629E-003  3.960717710078312E-003
  0.000000000000000E+000  3.960717710078315E-002  3.564645939070483E-002
  3.168574168062652E-002  2.772502397054821E-002  2.376430626046989E-002
  1.980358855039158E-002  1.584287084031326E-002  1.188215313023495E-002
  7.921435420156629E-003  3.960717710078312E-003  0.000000000000000E+000
  3.960717710078315E-002  3.564645939070483E-002  3.168574168062652E-002
  2.772502397054821E-002  2.376430626046989E-002  1.980358855039158E-002
  1.584287084031326E-002  1.188215313023495E-002  7.921435420156629E-003
  3.960717710078312E-003  0.000000000000000E+000  3.960717710078315E-002
  3.564645939070483E-002  3.168574168062652E-002  2.772502397054821E-002
  2.376430626046989E-002  1.980358855039158E-002  1.584287084031326E-002
  1.188215313023495E-002  7.921435420156629E-003  3.960717710078312E-003
  0.000000000000000E+000  3.960717710078315E-002  3.564645939070483E-002
  3.168574168062652E-002  2.772502397054821E-002  2.376430626046989E-002
  1.980358855039158E-002  1.584287084031326E-002  1.188215313023495E-002
  7.921435420156629E-003  3.960717710078312E-003  0.000000000000000E+000
  3.960717710078315E-002  3.564645939070483E-002  3.168574168062652E-002
  2.772502397054821E-002  2.376430626046989E-002  1.980358855039158E-002
  1.584287084031326E-002  1.188215313023495E-002  7.921435420156629E-003
  3.960717710078312E-003  0.000000000000000E+000  3.960717710078315E-002
  3.564645939070483E-002  3.168574168062652E-002  2.772502397054821E-002
  2.376430626046989E-002  1.980358855039158E-002  1.584287084031326E-002
  1.188215313023495E-002  7.921435420156629E-003  3.960717710078312E-003
  0.000000000000000E+000  3.960717710078315E-002  3.564645939070483E-002
  3.168574168062652E-002  2.772502397054821E-002  2.376430626046989E-002
  1.980358855039158E-002  1.584287084031326E-002  1.188215313023495E-002
  7.921435420156629E-003  3.960717710078312E-003  0.000000000000000E+000
  3.960717710078315E-002  3.564645939070483E-002  3.168574168062652E-002
  2.772502397054821E-002  2.376430626046989E-002  1.980358855039158E-002
  1.584287084031326E-002  1.188215313023495E-002  7.921435420156629E-003
  3.960717710078312E-003  0.000000000000000E+000  3.960717710078315E-002
  3.564645939070483E-002  3.168574168062652E-002  2.772502397054821E-002
  2.376430626046989E-002  1.980358855039158E-002  1.584287084031326E-002
  1.188215313023495E-002  7.921435420156629E-003  3.960717710078312E-003
  0.000000000000000E+000  3.960717710078315E-002  3.564645939070483E-002
  3.168574168062652E-002  2.772502397054821E-002  2.376430626046989E-002
  1.980358855039158E-002  1.584287084031326E-002  1.188215313023495E-002
  7.921435420156629E-003  3.960717710078312E-003  0.000000000000000E+000
  3.960717710078315E-002  3.564645939070483E-002  3.168574168062652E-002
  2.772502397054821E-002  2.376430626046989E-002  1.980358855039158E-002
  1.584287084031326E-002  1.188215313023495E-002  7.921435420156629E-003
  3.960717710078312E-003  0.000000000000000E+000  3.960717710078315E-002
  3.564645939070483E-002  3.168574168062652E-002  2.772502397054821E-002
  2.376430626046989E-002  1.980358855039158E-002  1.584287084031326E-002
  1.188215313023495E-002  7.921435420156629E-003  3.960717710078312E-003
  0.000000000000000E+000  3.960717710078315E-002  3.564645939070483E-002
  3.168574168062652E-002  2.772502397054821E-002  2.376430626046989E-002
  1.980358855039158E-002  1.584287084031326E-002  1.188215313023495E-002
  7.921435420156629E-003  3.960717710078312E-003  0.000000000000000E+000
  3.960717710078315E-002  3.564645939070483E-002  3.168574168062652E-002
  2.772502397054821E-002  2.376430626046989E-002  1.980358855039158E-002
  1.584287084031326E-002  1.188215313023495E-002  7.921435420156629E-003
  3.960717710078312E-003  0.000000000000000E+000  3.960717710078315E-002
  3.564645939070483E-002  3.168574168062652E-002  2.772502397054821E-002
  2.376430626046989E-002  1.980358855039158E-002  1.584287084031326E-002
  1.188215313023495E-002  7.921435420156629E-003  3.960717710078312E-003
  0.000000000000000E+000  3.960717710078315E-002  3.564645939070483E-002
  3.168574168062652E-002  2.772502397054821E-002  2.376430626046989E-002
  1.980358855039158E-002  1.584287084031326E-002  1.188215313023495E-002
  7.921435420156629E-003  3.960717710078312E-003  0.000000000000000E+000
  3.960717710078315E-002  3.564645939070483E-002  3.168574168062652E-002
  2.772502397054821E-002  2.376430626046989E-002  1.980358855039158E-002
  1.584287084031326E-002  1.188215313023495E-002  7.921435420156629E-003
  3.960717710078312E-003  0.000000000000000E+000  3.960717710078315E-002
  3.564645939070483E-002  3.168574168062652E-002  2.772502397054821E-002
  2.376430626046989E-002  1.980358855039158E-002  1.584287084031326E-002
  1.188215313023495E-002  7.921435420156629E-003  3.960717710078312E-003
  0.000000000000000E+000
  2.132042480852014E-002  5.087434405386992E-002  8.502404415105144E-002
  0.123546874242863       0.166696780168175       0.214904650337776     
  0.268531253035364       0.327635147279722       0.391511102448815     
  0.455918581575994       3.950548007109687E-002  8.961524624707189E-002
  0.147182558441397       0.211887056829680       0.284132523462385     
  0.364665895136786       0.454251165396374       0.553301480303378     
  0.661234654540356       0.773115983357957       6.643326505578510E-002
  0.136936820296475       0.215955518563627       0.303737638338481     
  0.400865519318609       0.508368520013999       0.627606479609902     
  0.759893125211899       0.905420827591942        1.05708414853926     
  0.103929502103504       0.194886115430185       0.291763725765485     
  0.396800204378226       0.511053101803600       0.635634169193333     
  0.771960001645308       0.921560701408966        1.08465423642959     
   1.25210924523768       0.155193171252862       0.269090761161277     
  0.381940031877221       0.499498401279744       0.623912861095978     
  0.756494439721373       0.898314182569638        1.05024133197896     
   1.21216057593391        1.37592232127762       0.224770157497515     
  0.367413549126394       0.497564093628791       0.626002278392033     
  0.756642112401672       0.891400693508265        1.03127494526811     
   1.17653171505395        1.32607784438111        1.47182879965609     
  0.317062726200284       0.497643835647975       0.649994381400080     
  0.791480471148344       0.928422837225718        1.06378905483323     
   1.19894498871076        1.33405369112882        1.46759788451245     
   1.59191645312264       0.434339202049242       0.664373845392572     
  0.846700125395844        1.00692722138645        1.15443814841105     
   1.29365876729633        1.42673200779582        1.55425593402644     
   1.67503879623270        1.78247500576069       0.575535736078247     
  0.866805241725030        1.08781654682209        1.27398425221154     
   1.43838575241766        1.58726830836433        1.72380699610258     
   1.84925919036967        1.96291017448022        2.05884227818245     
  0.736859138827004        1.09945736021150        1.36677954120724     
   1.58533977312503        1.77241054378186        1.93630282612516     
   2.08134664418478        2.20946952869142        2.32029286182718     
   2.40822688319899       0.913803609825285        1.35547335776261     
   1.67489297903767        1.93066638261318        2.14463804307340     
   2.32738618774802        2.48451225511965        2.61867812637420     
   2.72989623472291        2.81290232179533        1.10255303328246     
   1.62892297131486        2.00448664857141        2.30075300897962     
   2.54448623962417        2.74873789529231        2.92054303378175     
   3.06344757642899        3.17797762149900        3.25917920766844     
   1.30009945274906        1.91517752270574        2.34967991498639     
   2.68868393954180        2.96417711402500        3.19188159597877     
   3.38040275792228        3.53425980076350        3.65454117632012     
   3.73653620908126        1.50454591668064        2.21129065387103     
   2.70665671532722        3.08984702686933        3.39832779512803     
   3.65064121694785        3.85706249383432        4.02316358848656     
   4.15066526263336        4.23510122010432        1.71687889449614     
   2.51814463559107        3.07576717707218        3.50376524053403     
   3.84542064334000        4.12232591364453        4.34660144565342     
   4.52500591661194        4.66000219560145        4.74746254969972     
   1.94473785268457        2.84518988915969        3.46657947130848     
   3.93933162587870        4.31329126041305        4.61355015446933     
   4.85437257359297        5.04391561352501        5.18554692998965     
   5.27563215157477        2.20106291543978        3.20828515441430     
   3.89533051087059        4.41226522471643        4.81692332694197     
   5.13862952141664        5.39418333960965        5.59336238755044     
   5.74057859902875        5.83276817638982        2.47548999576177     
   3.59132833852710        4.34175556687530        4.89927257073053     
   5.33088767989261        5.67070858949447        5.93833032007031     
   6.14529238677293        6.29716196510409        6.39152589339878     
   2.70622580000729        3.90664243665536        4.70186224114130     
   5.28472309557133        5.73060459382005        6.07798497901804     
   6.34906998939039        6.55711348438516        6.70894354573967     
   6.80329421477997        2.81442254959597        4.04074732903895     
   4.83900952503467        5.41466473415458        5.84873069953521     
   6.18271356400821        6.44051467001670        6.63638435220393     
   6.77796701969640        6.86551710531859        2.76587643622963     
   3.94033139746903        4.68666031134032        5.21404749626855     
   5.60537236481025        5.90277931808315        6.13013907974460     
   6.30140796206806        6.42405145212903        6.49916238096776     
   2.56323448619016        3.60338920335575        4.24188324490206     
   4.68314187721992        5.00624428040067        5.24996014877787     
   5.43562166244362        5.57558271603418        5.67663186106258     
   5.73995059391362        2.20880030399026        3.03461709533244     
   3.52231659869136        3.85466071304513        4.09700329941024     
   4.27984769167455        4.41973753973690        4.52670149767074     
   4.60793387873286        4.66955117680155        1.68679050745510     
   2.24385306533690        2.56842959563656        2.79018702170409     
   2.95256731952806        3.07559181880902        3.17015427506904     
   3.24292685384372        3.29886222125025        3.34487255106416     
   1.02503631659654        1.33694808278068        1.52039375184264     
   1.64643263682486        1.73904706500190        1.80936675235204     
   1.86343758787880        1.90480960412539        1.93549932849193     
   1.95502913277997     
  0.000000000000000E+000  0.000000000000000E+000  0.000000000000000E+000
  0.000000000000000E+000  0.000000000000000E+000  0.000000000000000E+000
  0.000000000000000E+000  0.000000000000000E+000  0.000000000000000E+000
  0.000000000000000E+000  0.000000000000000E+000  0.000000000000000E+000
  0.000000000000000E+000  0.000000000000000E+000  0.000000000000000E+000
  0.000000000000000E+000  0.000000000000000E+000  0.000000000000000E+000
  0.000000000000000E+000  0.000000000000000E+000  0.000000000000000E+000
  0.000000000000000E+000  0.000000000000000E+000  0.000000000000000E+000
  0.000000000000000E+000  0.000000000000000E+000  0.000000000000000E+000
  0.000000000000000E+000  0.000000000000000E+000  0.000000000000000E+000
  0.000000000000000E+000  0.000000000000000E+000  0.000000000000000E+000
  0.000000000000000E+000  0.000000000000000E+000  0.000000000000000E+000
  0.000000000000000E+000  0.000000000000000E+000  0.000000000000000E+000
  0.000000000000000E+000  0.000000000000000E+000  0.000000000000000E+000
  0.000000000000000E+000  0.000000000000000E+000  0.000000000000000E+000
  0.000000000000000E+000  0.000000000000000E+000  0.000000000000000E+000
  0.000000000000000E+000  0.000000000000000E+000  0.000000000000000E+000
  0.000000000000000E+000  0.000000000000000E+000  0.000000000000000E+000
  0.000000000000000E+000  0.000000000000000E+000  0.000000000000000E+000
  0.000000000000000E+000  0.000000000000000E+000  0.000000000000000E+000
  0.000000000000000E+000  0.000000000000000E+000  0.000000000000000E+000
  0.000000000000000E+000  0.000000000000000E+000  0.000000000000000E+000
  0.000000000000000E+000  0.000000000000000E+000  0.000000000000000E+000
  0.000000000000000E+000  0.000000000000000E+000  0.000000000000000E+000
  0.000000000000000E+000  0.000000000000000E+000  0.000000000000000E+000
  0.000000000000000E+000  0.000000000000000E+000  0.000000000000000E+000
  0.000000000000000E+000  0.000000000000000E+000  0.000000000000000E+000
  0.000000000000000E+000  0.000000000000000E+000  0.000000000000000E+000
  0.000000000000000E+000  0.000000000000000E+000  0.000000000000000E+000
  0.000000000000000E+000  0.000000000000000E+000  0.000000000000000E+000
  0.000000000000000E+000  0.000000000000000E+000  0.000000000000000E+000
  0.000000000000000E+000  0.000000000000000E+000  0.000000000000000E+000
  0.000000000000000E+000  0.000000000000000E+000  0.000000000000000E+000
  0.000000000000000E+000  0.000000000000000E+000  0.000000000000000E+000
  0.000000000000000E+000  0.000000000000000E+000  0.000000000000000E+000
  0.000000000000000E+000  0.000000000000000E+000  0.000000000000000E+000
  0.000000000000000E+000  0.000000000000000E+000  0.000000000000000E+000
  0.000000000000000E+000  0.000000000000000E+000  0.000000000000000E+000
  0.000000000000000E+000  0.000000000000000E+000  0.000000000000000E+000