 Title = "Wing and Wake"
 VARIABLES = "X" "Y" "Z" "GAM" "skew"
 Zone I=   11 J=   26 K=1  T="Blade"
 DATAPACKING=BLOCK
 VARLOCATION=([4]=CELLCENTERED,[5]=CELLCENTERED)
 -0.206519054867524      -0.204843798750600      -0.203168542633675     
 -0.201493286516751      -0.199818030399827      -0.198142774282903     
 -0.196467518165978      -0.194792262049054      -0.193117005932130     
 -0.191441749815205      -0.189766493698281      -0.210259070936050     
 -0.208583814819126      -0.206908558702201      -0.205233302585277     
 -0.203558046468353      -0.201882790351429      -0.200207534234504     
 -0.198532278117580      -0.196857022000656      -0.195181765883732     
 -0.193506509766807      -0.221420136854050      -0.219744880737126     
 -0.218069624620201      -0.216394368503277      -0.214719112386353     
 -0.213043856269428      -0.211368600152504      -0.209693344035580     
 -0.208018087918656      -0.206342831801731      -0.204667575684807     
 -0.239826235944700      -0.238150979827775      -0.236475723710851     
 -0.234800467593927      -0.233125211477002      -0.231449955360078     
 -0.229774699243154      -0.228099443126230      -0.226424187009305     
 -0.224748930892381      -0.223073674775457      -0.265187093030068     
 -0.263511836913144      -0.261836580796220      -0.260161324679296     
 -0.258486068562371      -0.256810812445447      -0.255135556328523     
 -0.253460300211598      -0.251785044094674      -0.250109787977750     
 -0.248434531860825      -0.297102752244078      -0.295427496127154     
 -0.293752240010230      -0.292076983893306      -0.290401727776382     
 -0.288726471659458      -0.287051215542533      -0.285375959425609     
 -0.283700703308684      -0.282025447191760      -0.280350191074836     
 -0.335069884575434      -0.333394628458510      -0.331719372341586     
 -0.330044116224662      -0.328368860107738      -0.326693603990813     
 -0.325018347873889      -0.323343091756965      -0.321667835640040     
 -0.319992579523116      -0.318317323406192      -0.378489725666806     
 -0.376814469549881      -0.375139213432957      -0.373463957316033     
 -0.371788701199108      -0.370113445082184      -0.368438188965260     
 -0.366762932848335      -0.365087676731411      -0.363412420614487     
 -0.361737164497563      -0.426677518686425      -0.425002262569500     
 -0.423327006452576      -0.421651750335652      -0.419976494218727     
 -0.418301238101803      -0.416625981984879      -0.414950725867955     
 -0.413275469751030      -0.411600213634106      -0.409924957517182     
 -0.478873313352380      -0.477198057235456      -0.475522801118531     
 -0.473847545001607      -0.472172288884683      -0.470497032767759     
 -0.468821776650834      -0.467146520533910      -0.465471264416985     
 -0.463796008300062      -0.462120752183137      -0.534253950802534     
 -0.532578694685609      -0.530903438568685      -0.529228182451760     
 -0.527552926334837      -0.525877670217912      -0.524202414100988     
 -0.522527157984063      -0.520851901867139      -0.519176645750215     
 -0.517501389633291      -0.591946045301507      -0.590270789184583     
 -0.588595533067658      -0.586920276950734      -0.585245020833810     
 -0.583569764716885      -0.581894508599961      -0.580219252483037     
 -0.578543996366112      -0.576868740249188      -0.575193484132264     
 -0.651039758055464      -0.649364501938540      -0.647689245821615     
 -0.646013989704691      -0.644338733587767      -0.642663477470842     
 -0.640988221353918      -0.639312965236995      -0.637637709120070     
 -0.635962453003145      -0.634287196886222      -0.710603145913403     
 -0.708927889796479      -0.707252633679554      -0.705577377562630     
 -0.703902121445706      -0.702226865328781      -0.700551609211858     
 -0.698876353094933      -0.697201096978009      -0.695525840861085     
 -0.693850584744160      -0.769696858667361      -0.768021602550437     
 -0.766346346433512      -0.764671090316587      -0.762995834199663     
 -0.761320578082740      -0.759645321965814      -0.757970065848890     
 -0.756294809731966      -0.754619553615042      -0.752944297498118     
 -0.827388953166334      -0.825713697049409      -0.824038440932485     
 -0.822363184815561      -0.820687928698636      -0.819012672581713     
 -0.817337416464788      -0.815662160347864      -0.813986904230940     
 -0.812311648114015      -0.810636391997091      -0.882769590616487     
 -0.881094334499563      -0.879419078382638      -0.877743822265714     
 -0.876068566148790      -0.874393310031866      -0.872718053914942     
 -0.871042797798017      -0.869367541681093      -0.867692285564169     
 -0.866017029447245      -0.934965385282443      -0.933290129165518     
 -0.931614873048594      -0.929939616931669      -0.928264360814745     
 -0.926589104697821      -0.924913848580897      -0.923238592463972     
 -0.921563336347049      -0.919888080230124      -0.918212824113199     
 -0.983153178302061      -0.981477922185137      -0.979802666068213     
 -0.978127409951288      -0.976452153834365      -0.974776897717440     
 -0.973101641600515      -0.971426385483591      -0.969751129366667     
 -0.968075873249743      -0.966400617132818       -1.02657301939343     
  -1.02489776327651       -1.02322250715958       -1.02154725104266     
  -1.01987199492573       -1.01819673880881       -1.01652148269189     
  -1.01484622657496       -1.01317097045804       -1.01149571434111     
  -1.00982045822419       -1.06454015172479       -1.06286489560786     
  -1.06118963949094       -1.05951438337402       -1.05783912725709     
  -1.05616387114017       -1.05448861502324       -1.05281335890632     
  -1.05113810278939       -1.04946284667247       -1.04778759055555     
  -1.09645581093880       -1.09478055482187       -1.09310529870495     
  -1.09143004258803       -1.08975478647110       -1.08807953035418     
  -1.08640427423725       -1.08472901812033       -1.08305376200340     
  -1.08137850588648       -1.07970324976956       -1.12181666802417     
  -1.12014141190724       -1.11846615579032       -1.11679089967339     
  -1.11511564355647       -1.11344038743955       -1.11176513132262     
  -1.11008987520570       -1.10841461908877       -1.10673936297185     
  -1.10506410685492       -1.14022276711482       -1.13854751099789     
  -1.13687225488097       -1.13519699876404       -1.13352174264712     
  -1.13184648653020       -1.13017123041327       -1.12849597429635     
  -1.12682071817942       -1.12514546206250       -1.12347020594557     
  -1.15138383303282       -1.14970857691589       -1.14803332079897     
  -1.14635806468204       -1.14468280856512       -1.14300755244820     
  -1.14133229633127       -1.13965704021435       -1.13798178409742     
  -1.13630652798050       -1.13463127186357       -1.15512384910134     
  -1.15344859298442       -1.15177333686749       -1.15009808075057     
  -1.14842282463365       -1.14674756851672       -1.14507231239980     
  -1.14339705628287       -1.14172180016595       -1.14004654404902     
  -1.13837128793210     
 -0.168452275289893      -0.149894022889309      -0.131335770488725     
 -0.112777518088141      -9.421926568755679E-002 -7.566101328697290E-002
 -5.710276088638894E-002 -3.854450848580495E-002 -1.998625608522116E-002
 -1.428003684637127E-003  1.713024871594682E-002 -0.168114663500757     
 -0.149556411100173      -0.130998158699589      -0.112439906299005     
 -9.388165389842108E-002 -7.532340149783721E-002 -5.676514909725319E-002
 -3.820689669666927E-002 -1.964864429608531E-002 -1.090391895501485E-003
  1.746786050508252E-002 -0.167107152472944      -0.148548900072360     
 -0.129990647671776      -0.111432395271192      -9.287414287060820E-002
 -7.431589047002422E-002 -5.575763806944026E-002 -3.719938566885637E-002
 -1.864113326827247E-002 -8.288086768842372E-005  1.847537153289544E-002
 -0.165445631257220      -0.146887378856636      -0.128329126456052     
 -0.109770874055468      -9.121262165488456E-002 -7.265436925430054E-002
 -5.409611685371654E-002 -3.553786445313269E-002 -1.697961205254880E-002
  1.578640348035230E-003  2.013689274861911E-002 -0.163156303035702     
 -0.144598050635119      -0.126039798234534      -0.107481545833951     
 -8.892329343336658E-002 -7.036504103278271E-002 -5.180678863219883E-002
 -3.324853623161490E-002 -1.469028383103093E-002  3.867968569552907E-003
  2.242622097013689E-002 -0.160275271882022      -0.141717019481438     
 -0.123158767080854      -0.104600514680271      -8.604226227968650E-002
 -6.748400987910237E-002 -4.892575747851866E-002 -3.036750507793470E-002
 -1.180925267735071E-002  6.748999723233197E-003  2.530725212381706E-002
 -0.156847973378518      -0.138289720977934      -0.119731468577350     
 -0.101173216176766      -8.261496377618201E-002 -6.405671137559822E-002
 -4.549845897501429E-002 -2.694020657443042E-002 -8.381954173846502E-003
  1.017629822673751E-002  2.873455062732144E-002 -0.152928458069958     
 -0.134370205669374      -0.115811953268790      -9.725370086820660E-002
 -7.869544846762273E-002 -6.013719606703882E-002 -4.157894366645493E-002
 -2.302069126587091E-002 -4.462438865286890E-003  1.409581353529683E-002
  3.265406593588091E-002 -0.148578539054165      -0.130020286653581     
 -0.111462034252997      -9.290378185241323E-002 -7.434552945182912E-002
 -5.578727705124502E-002 -3.722902465066108E-002 -1.867077225007724E-002
 -1.125198494932504E-004  1.844573255109060E-002  3.700398495167437E-002
 -0.143866817152532      -0.125308564751948      -0.106750312351364     
 -8.819205995077985E-002 -6.963380755019577E-002 -5.107555514961208E-002
 -3.251730274902816E-002 -1.395905034844414E-002  4.599202052139972E-003
  2.315745445272378E-002  4.171570685330753E-002 -0.138867599034094     
 -0.120309346633510      -0.101751094232926      -8.319284183234256E-002
 -6.463458943175858E-002 -4.607633703117459E-002 -2.751808463059064E-002
 -8.959832230006555E-003  9.598420170577014E-003  2.815667257116118E-002
  4.671492497174506E-002 -0.133659725354968      -0.115101472954384     
 -9.654322055380020E-002 -7.798496815321608E-002 -5.942671575263251E-002
 -4.086846335204838E-002 -2.231021095146473E-002 -3.751958550880516E-003
  1.480629384970331E-002  3.336454625028730E-002  5.192279865087118E-002
 -0.128325327394107      -0.109767074993522      -9.120882259293825E-002
 -7.265057019235460E-002 -5.409231779177028E-002 -3.553406539118710E-002
 -1.697581299060255E-002  1.582439409981079E-003  2.014069181056493E-002
  3.869894421114874E-002  5.725719661173313E-002 -0.122948531793966     
 -0.104390279393382      -8.583202699279896E-002 -6.727377459221448E-002
 -4.871552219163062E-002 -3.015726979104646E-002 -1.159901739046272E-002
  6.959235010120950E-003  2.551748741070518E-002  4.407573981128906E-002
  6.263399221187307E-002 -0.117614133833105      -9.905588143252080E-002
 -8.049762903193657E-002 -6.193937663135320E-002 -4.338112423076834E-002
 -2.482287183018514E-002 -6.264619429601117E-003  1.229363297098315E-002
  3.085188537156662E-002  4.941013777215079E-002  6.796839017273482E-002
 -0.112406260153979      -9.384800775339432E-002 -7.528975535281093E-002
 -5.673150295222715E-002 -3.817325055164267E-002 -1.961499815105883E-002
 -1.056745750475211E-003  1.750150665010886E-002  3.605975905069252E-002
  5.461801145127695E-002  7.317626385186077E-002 -0.107407042035541     
 -8.884878963495693E-002 -7.029053723437326E-002 -5.173228483378930E-002
 -3.317403243320515E-002 -1.461578003262122E-002  3.942472367962719E-003
  2.250072476854641E-002  4.105897716913027E-002  5.961722956971461E-002
  7.817548197029822E-002 -0.102695320133908      -8.413706773332363E-002
 -6.557881533274014E-002 -4.702056293215631E-002 -2.846231053157226E-002
 -9.904058130988387E-003  8.654194269595929E-003  2.721244667017962E-002
  4.577069907076342E-002  6.432895147134765E-002  8.288720387193130E-002
 -9.834540111811366E-002 -7.978714871753005E-002 -6.122889631694657E-002
 -4.267064391636272E-002 -2.411239151577838E-002 -5.554139115194714E-003
  1.300411328538917E-002  3.156236568597318E-002  5.012061808655709E-002
  6.867887048714157E-002  8.723712288772505E-002 -9.442588580955513E-002
 -7.586763340897101E-002 -5.730938100838704E-002 -3.875112860780269E-002
 -2.019287620721933E-002 -1.634623806635022E-003  1.692362859394858E-002
  3.548188099453295E-002  5.404013339511687E-002  7.259838579570077E-002
  9.115663819628433E-002 -9.099858730605033E-002 -7.244033490546616E-002
 -5.388208250488295E-002 -3.532383010429876E-002 -1.676557770371477E-002
  1.792674696868676E-003  2.035092709745342E-002  3.890917949803701E-002
  5.746743189862081E-002  7.602568429920517E-002  9.458393669978900E-002
 -8.811755615237013E-002 -6.955930375178650E-002 -5.100105135120239E-002
 -3.244279895061841E-002 -1.388454655003493E-002  4.673705850549269E-003
  2.323195825113332E-002  4.179021065171715E-002  6.034846305230086E-002
  7.890671545288512E-002  9.746496785346900E-002 -8.582822793085208E-002
 -6.726997553026874E-002 -4.871172312968465E-002 -3.015347072910033E-002
 -1.159521832851710E-002  6.963034072067534E-003  2.552128647265072E-002
  4.407953887323487E-002  6.263779127381973E-002  8.119604367440300E-002
  9.975429607498733E-002 -8.416670671512851E-002 -6.560845431454537E-002
 -4.705020191396096E-002 -2.849194951337691E-002 -9.933697112793188E-003
  8.624555287791070E-003  2.718280768837485E-002  4.574106008895893E-002
  6.429931248954267E-002  8.285756489012616E-002  0.101415817290711     
 -8.315919568731561E-002 -6.460094328673238E-002 -4.604269088614847E-002
 -2.748443848556427E-002 -8.926186084980281E-003  9.632066315603973E-003
  2.819031871618759E-002  4.674857111677206E-002  6.530682351735567E-002
  8.386507591793946E-002  0.102423328318524      -8.282158389818024E-002
 -6.426333149759654E-002 -4.570507909701287E-002 -2.714682669642846E-002
 -8.588574295844722E-003  9.969678104739104E-003  2.852793050532395E-002
  4.708618290590740E-002  6.564443530649101E-002  8.420268770707512E-002
  0.102760940107660     
  3.960717710078315E-002  3.564645939070483E-002  3.168574168062652E-002
  2.772502397054821E-002  2.376430626046989E-002  1.980358855039158E-002
  1.584287084031326E-002  1.188215313023495E-002  7.921435420156629E-003
  3.960717710078312E-003  0.000000000000000E+000  3.960717710078315E-002
  3.564645939070483E-002  3.168574168062652E-002  2.772502397054821E-002
  2.376430626046989E-002  1.980358855039158E-002  1.584287084031326E-002
  1.188215313023495E-002  7.921435420156629E-003  3.960717710078312E-003
  0.000000000000000E+000  3.960717710078315E-002  3.564645939070483E-002
  3.168574168062652E-002  2.772502397054821E-002  2.376430626046989E-002
  1.980358855039158E-002  1.584287084031326E-002  1.188215313023495E-002
  7.921435420156629E-003  3.960717710078312E-003  0.000000000000000E+000
  3.960717710078315E-002  3.564645939070483E-002  3.168574168062652E-002
  2.772502397054821E-002  2.376430626046989E-002  1.980358855039158E-002
  1.584287084031326E-002  1.188215313023495E-002  7.921435420156629E-003
  3.960717710078312E-003  0.000000000000000E+000  3.960717710078315E-002
  3.564645939070483E-002  3.168574168062652E-002  2.772502397054821E-002
  2.376430626046989E-002  1.980358855039158E-002  1.584287084031326E-002
  1.188215313023495E-002  7.921435420156629E-003  3.960717710078312E-003
  0.000000000000000E+000  3.960717710078315E-002  3.564645939070483E-002
  3.168574168062652E-002  2.772502397054821E-002  2.376430626046989E-002
  1.980358855039158E-002  1.584287084031326E-002  1.188215313023495E-002
  7.921435420156629E-003  3.960717710078312E-003  0.000000000000000E+000
  3.960717710078315E-002  3.564645939070483E-002  3.168574168062652E-002
  2.772502397054821E-002  2.376430626046989E-002  1.980358855039158E-002
  1.584287084031326E-002  1.188215313023495E-002  7.921435420156629E-003
  3.960717710078312E-003  0.000000000000000E+000  3.960717710078315E-002
  3.564645939070483E-002  3.168574168062652E-002  2.772502397054821E-002
  2.376430626046989E-002  1.980358855039158E-002  1.584287084031326E-002
  1.188215313023495E-002  7.921435420156629E-003  3.960717710078312E-003
  0.000000000000000E+000  3.960717710078315E-002  3.564645939070483E-002
  3.168574168062652E-002  2.772502397054821E-002  2.376430626046989E-002
  1.980358855039158E-002  1.584287084031326E-002  1.188215313023495E-002
  7.921435420156629E-003  3.960717710078312E-003  0.000000000000000E+000
  3.960717710078315E-002  3.564645939070483E-002  3.168574168062652E-002
  2.772502397054821E-002  2.376430626046989E-002  1.980358855039158E-002
  1.584287084031326E-002  1.188215313023495E-002  7.921435420156629E-003
  3.960717710078312E-003  0.000000000000000E+000  3.960717710078315E-002
  3.564645939070483E-002  3.168574168062652E-002  2.772502397054821E-002
  2.376430626046989E-002  1.980358855039158E-002  1.584287084031326E-002
  1.188215313023495E-002  7.921435420156629E-003  3.960717710078312E-003
  0.000000000000000E+000  3.960717710078315E-002  3.564645939070483E-002
  3.168574168062652E-002  2.772502397054821E-002  2.376430626046989E-002
  1.980358855039158E-002  1.584287084031326E-002  1.188215313023495E-002
  7.921435420156629E-003  3.960717710078312E-003  0.000000000000000E+000
  3.960717710078315E-002  3.564645939070483E-002  3.168574168062652E-002
  2.772502397054821E-002  2.376430626046989E-002  1.980358855039158E-002
  1.584287084031326E-002  1.188215313023495E-002  7.921435420156629E-003
  3.960717710078312E-003  0.000000000000000E+000  3.960717710078315E-002
  3.564645939070483E-002  3.168574168062652E-002  2.772502397054821E-002
  2.376430626046989E-002  1.980358855039158E-002  1.584287084031326E-002
  1.188215313023495E-002  7.921435420156629E-003  3.960717710078312E-003
  0.000000000000000E+000  3.960717710078315E-002  3.564645939070483E-002
  3.168574168062652E-002  2.772502397054821E-002  2.376430626046989E-002
  1.980358855039158E-002  1.584287084031326E-002  1.188215313023495E-002
  7.921435420156629E-003  3.960717710078312E-003  0.000000000000000E+000
  3.960717710078315E-002  3.564645939070483E-002  3.168574168062652E-002
  2.772502397054821E-002  2.376430626046989E-002  1.980358855039158E-002
  1.584287084031326E-002  1.188215313023495E-002  7.921435420156629E-003
  3.960717710078312E-003  0.000000000000000E+000  3.960717710078315E-002
  3.564645939070483E-002  3.168574168062652E-002  2.772502397054821E-002
  2.376430626046989E-002  1.980358855039158E-002  1.584287084031326E-002
  1.188215313023495E-002  7.921435420156629E-003  3.960717710078312E-003
  0.000000000000000E+000  3.960717710078315E-002  3.564645939070483E-002
  3.168574168062652E-002  2.772502397054821E-002  2.376430626046989E-002
  1.980358855039158E-002  1.584287084031326E-002  1.188215313023495E-002
  7.921435420156629E-003  3.960717710078312E-003  0.000000000000000E+000
  3.960717710078315E-002  3.564645939070483E-002  3.168574168062652E-002
  2.772502397054821E-002  2.376430626046989E-002  1.980358855039158E-002
  1.584287084031326E-002  1.188215313023495E-002  7.921435420156629E-003
  3.960717710078312E-003  0.000000000000000E+000  3.960717710078315E-002
  3.564645939070483E-002  3.168574168062652E-002  2.772502397054821E-002
  2.376430626046989E-002  1.980358855039158E-002  1.584287084031326E-002
  1.188215313023495E-002  7.921435420156629E-003  3.960717710078312E-003
  0.000000000000000E+000  3.960717710078315E-002  3.564645939070483E-002
  3.168574168062652E-002  2.772502397054821E-002  2.376430626046989E-002
  1.980358855039158E-002  1.584287084031326E-002  1.188215313023495E-002
  7.921435420156629E-003  3.960717710078312E-003  0.000000000000000E+000
  3.960717710078315E-002  3.564645939070483E-002  3.168574168062652E-002
  2.772502397054821E-002  2.376430626046989E-002  1.980358855039158E-002
  1.584287084031326E-002  1.188215313023495E-002  7.921435420156629E-003
  3.960717710078312E-003  0.000000000000000E+000  3.960717710078315E-002
  3.564645939070483E-002  3.168574168062652E-002  2.772502397054821E-002
  2.376430626046989E-002  1.980358855039158E-002  1.584287084031326E-002
  1.188215313023495E-002  7.921435420156629E-003  3.960717710078312E-003
  0.000000000000000E+000  3.960717710078315E-002  3.564645939070483E-002
  3.168574168062652E-002  2.772502397054821E-002  2.376430626046989E-002
  1.980358855039158E-002  1.584287084031326E-002  1.188215313023495E-002
  7.921435420156629E-003  3.960717710078312E-003  0.000000000000000E+000
  3.960717710078315E-002  3.564645939070483E-002  3.168574168062652E-002
  2.772502397054821E-002  2.376430626046989E-002  1.980358855039158E-002
  1.584287084031326E-002  1.188215313023495E-002  7.921435420156629E-003
  3.960717710078312E-003  0.000000000000000E+000  3.960717710078315E-002
  3.564645939070483E-002  3.168574168062652E-002  2.772502397054821E-002
  2.376430626046989E-002  1.980358855039158E-002  1.584287084031326E-002
  1.188215313023495E-002  7.921435420156629E-003  3.960717710078312E-003
  0.000000000000000E+000
  0.361515730624886       0.499643560215320       0.597502896962293     
  0.675044862341932       0.738287549497890       0.789959416131146     
  0.831820480916554       0.865250060931700       0.891317469297155     
  0.909796519293238       0.592450907182634       0.833809835779306     
   1.00309397403711        1.13674961726787        1.24571484099604     
   1.33486233826671        1.40729505442011        1.46554580963495     
   1.51205346201386        1.55002663380475       0.764064165970894     
   1.10860915713848        1.35142143775595        1.54280390575164     
   1.69904619541395        1.82740699331681        1.93238050043248     
   2.01765972266289        2.08674031497045        2.14233042135632     
  0.857940997211455        1.27446851267609        1.57631774870538     
   1.81675664360275        2.01442744566281        2.17775061028526     
   2.31149930219833        2.41916040094501        2.50315894325372     
   2.56303114870912       0.879429224844851        1.32687515972182     
   1.66056341629372        1.93190763081372        2.15789903135946     
   2.34603667674441        2.50068735144429        2.62415073381086     
   2.71833672861923        2.78171867653352       0.844034910735943     
   1.28670076826162        1.62498195910034        1.90451627578073     
   2.13987348960338        2.33818854330183        2.50278633619189     
   2.63387695584433        2.73249798862899        2.79600247471953     
  0.787684261453680        1.20641585320919        1.53061081689831     
   1.80140303984381        2.03167718947092        2.22755246835796     
   2.39121430597569        2.52231254633279        2.62042145534168     
   2.68275950850274       0.763373205070765        1.16367219698272     
   1.47108536823513        1.72699887852451        1.94526999617810     
   2.13187633386211        2.28891482161104        2.41630309886299     
   2.51284826169575        2.57463926878756       0.798951762359105     
   1.20492701681233        1.50989919913455        1.76028127769767     
   1.97216283091902        2.15255027723018        2.30452533566635     
   2.42896759459283        2.52488560005771        2.58761802405461     
  0.891307918973185        1.33068185551047        1.65283618990301     
   1.91247379983901        2.12926211568010        2.31226886883797     
   2.46597471251226        2.59222344632537        2.69053746101421     
   2.75616666050460        1.02098205408014        1.51406597459896     
   1.86907447031569        2.15077182528034        2.38298843593534     
   2.57708056311727        2.73896995527879        2.87145021027316     
   2.97461587692042        3.04381080868227        1.16850973854686     
   1.72573152051837        2.12208547961924        2.43305972312205     
   2.68677340538799        2.89686348274141        3.07064724873644     
   3.21182219586404        3.32103926945797        3.39381399227841     
   1.32200151232357        1.94706784651521        2.38788598229050     
   2.73081687929703        3.00827025270935        3.23614074833089     
   3.42311787956831        3.57378864231347        3.68935850290673     
   3.76555271876581        1.47591867511031        2.16906612697790     
   2.65449249213419        3.02941723134851        3.33052631242249     
   3.57596577465772        3.77579893655002        3.93551325385919     
   4.05690022991895        4.13597796165660        1.62910496488527     
   2.38925698192624        2.91798353159543        3.32343395894385     
   3.64663667211755        3.90805153914583        4.11917638223201     
   4.28646523236053        4.41238111450583        4.49337839310200     
   1.78368383799001        2.60974660752979        3.17976886206080     
   3.61325331940592        3.95582002795788        4.23043336767204     
   4.45018817593542        4.62264997884165        4.75109657806640     
   4.83261831701231        1.94234207163990        2.83303403044414     
   3.44131827135007        3.89899180038510        4.25677749760441     
   4.54048350674827        4.76504914684613        4.93934705326102     
   5.06764950262241        5.14792020499980        2.10081863744708     
   3.05129507044294        3.69148200952919        4.16652885747992     
   4.53286698289782        4.81952562309011        5.04352334145455     
   5.21519480972857        5.33994662041712        5.41685575379725     
   2.23911939324208        3.23420651839793        3.89242908566492     
   4.37230852352057        4.73618778771568        5.01643779115738     
   5.23216929252559        5.39512764566528        5.51183674656204     
   5.58271300741614        2.32326781098689        3.33149922862162     
   3.98293034766115        4.44749048041932        4.79274915097428     
   5.05390257372164        5.25165305417463        5.39869121073502     
   5.50230793169760        5.56427078290178        2.31716655982370     
   3.28936743620915        3.89806278222441        4.32065030840162     
   4.62794256132081        4.85636232116755        5.02687935799506     
   5.15208463050362        5.23922239753862        5.29079773677822     
   2.19168827642255        3.06344222177621        3.58672478134659     
   3.93971488910267        4.19167321880513        4.37680517022219     
   4.51414541805067        4.61496261585488        4.68590755504197     
   4.72951755813795        1.92331505496828        2.62225274033193     
   3.02307865653263        3.28830424765441        3.47612176675109     
   3.61382427158617        3.71632918436925        3.79280585605089     
   3.85007965200395        3.89462631246870        1.48704928286152     
   1.96004000360549        2.22646002189229        2.40273962947546     
   2.52786975832183        2.61990349604958        2.68872721193630     
   2.74046094304344        2.77980826126016        2.81356356649821     
  0.908031763315850        1.17270705513978        1.32303997794563     
   1.42300197456990        1.49417310800064        1.54661855994423     
   1.58584235378465        1.61511828091946        1.63644418031012     
   1.64998110129514     
  0.000000000000000E+000  0.000000000000000E+000  0.000000000000000E+000
  0.000000000000000E+000  0.000000000000000E+000  0.000000000000000E+000
  0.000000000000000E+000  0.000000000000000E+000  0.000000000000000E+000
  0.000000000000000E+000  0.000000000000000E+000  0.000000000000000E+000
  0.000000000000000E+000  0.000000000000000E+000  0.000000000000000E+000
  0.000000000000000E+000  0.000000000000000E+000  0.000000000000000E+000
  0.000000000000000E+000  0.000000000000000E+000  0.000000000000000E+000
  0.000000000000000E+000  0.000000000000000E+000  0.000000000000000E+000
  0.000000000000000E+000  0.000000000000000E+000  0.000000000000000E+000
  0.000000000000000E+000  0.000000000000000E+000  0.000000000000000E+000
  0.000000000000000E+000  0.000000000000000E+000  0.000000000000000E+000
  0.000000000000000E+000  0.000000000000000E+000  0.000000000000000E+000
  0.000000000000000E+000  0.000000000000000E+000  0.000000000000000E+000
  0.000000000000000E+000  0.000000000000000E+000  0.000000000000000E+000
  0.000000000000000E+000  0.000000000000000E+000  0.000000000000000E+000
  0.000000000000000E+000  0.000000000000000E+000  0.000000000000000E+000
  0.000000000000000E+000  0.000000000000000E+000  0.000000000000000E+000
  0.000000000000000E+000  0.000000000000000E+000  0.000000000000000E+000
  0.000000000000000E+000  0.000000000000000E+000  0.000000000000000E+000
  0.000000000000000E+000  0.000000000000000E+000  0.000000000000000E+000
  0.000000000000000E+000  0.000000000000000E+000  0.000000000000000E+000
  0.000000000000000E+000  0.000000000000000E+000  0.000000000000000E+000
  0.000000000000000E+000  0.000000000000000E+000  0.000000000000000E+000
  0.000000000000000E+000  0.000000000000000E+000  0.000000000000000E+000
  0.000000000000000E+000  0.000000000000000E+000  0.000000000000000E+000
  0.000000000000000E+000  0.000000000000000E+000  0.000000000000000E+000
  0.000000000000000E+000  0.000000000000000E+000  0.000000000000000E+000
  0.000000000000000E+000  0.000000000000000E+000  0.000000000000000E+000
  0.000000000000000E+000  0.000000000000000E+000  0.000000000000000E+000
  0.000000000000000E+000  0.000000000000000E+000  0.000000000000000E+000
  0.000000000000000E+000  0.000000000000000E+000  0.000000000000000E+000
  0.000000000000000E+000  0.000000000000000E+000  0.000000000000000E+000
  0.000000000000000E+000  0.000000000000000E+000  0.000000000000000E+000
  0.000000000000000E+000  0.000000000000000E+000  0.000000000000000E+000
  0.000000000000000E+000  0.000000000000000E+000  0.000000000000000E+000
  0.000000000000000E+000  0.000000000000000E+000  0.000000000000000E+000
  0.000000000000000E+000  0.000000000000000E+000  0.000000000000000E+000
  0.000000000000000E+000  0.000000000000000E+000  0.000000000000000E+000
  0.000000000000000E+000  0.000000000000000E+000  0.000000000000000E+000