 Title = "Wing and Wake"
 VARIABLES = "X" "Y" "Z" "GAM" "skew"
 Zone I=   11 J=   26 K=1  T="Blade"
 DATAPACKING=BLOCK
 VARLOCATION=([4]=CELLCENTERED,[5]=CELLCENTERED)
  0.266387561601440       0.253764849020411       0.241142136439382     
  0.228519423858354       0.215896711277325       0.203273998696296     
  0.190651286115267       0.178028573534238       0.165405860953209     
  0.152783148372180       0.140160435791152       0.269149915860164     
  0.256527203279135       0.243904490698106       0.231281778117078     
  0.218659065536048       0.206036352955019       0.193413640373990     
  0.180790927792962       0.168168215211933       0.155545502630904     
  0.142922790049875       0.277393414659524       0.264770702078496     
  0.252147989497466       0.239525276916438       0.226902564335409     
  0.214279851754380       0.201657139173351       0.189034426592323     
  0.176411714011294       0.163789001430264       0.151166288849236     
  0.290988053099029       0.278365340518000       0.265742627936971     
  0.253119915355942       0.240497202774913       0.227874490193884     
  0.215251777612856       0.202629065031827       0.190006352450798     
  0.177383639869769       0.164760927288740       0.309719435609441     
  0.297096723028413       0.284474010447383       0.271851297866355     
  0.259228585285326       0.246605872704298       0.233983160123269     
  0.221360447542240       0.208737734961211       0.196115022380182     
  0.183492309799153       0.333292157098989       0.320669444517961     
  0.308046731936931       0.295424019355902       0.282801306774874     
  0.270178594193845       0.257555881612816       0.244933169031787     
  0.232310456450758       0.219687743869729       0.207065031288700     
  0.361334461668119       0.348711749087091       0.336089036506062     
  0.323466323925033       0.310843611344004       0.298220898762976     
  0.285598186181947       0.272975473600917       0.260352761019889     
  0.247730048438859       0.235107335857830       0.393404105422117     
  0.380781392841088       0.368158680260060       0.355535967679031     
  0.342913255098002       0.330290542516973       0.317667829935944     
  0.305045117354916       0.292422404773886       0.279799692192857     
  0.267176979611829       0.428995330921505       0.416372618340476     
  0.403749905759447       0.391127193178418       0.378504480597390     
  0.365881768016360       0.353259055435331       0.340636342854303     
  0.328013630273274       0.315390917692245       0.302768205111216     
  0.467546843278989       0.454924130697960       0.442301418116932     
  0.429678705535903       0.417055992954874       0.404433280373845     
  0.391810567792816       0.379187855211788       0.366565142630758     
  0.353942430049729       0.341319717468700       0.508450662115137     
  0.495827949534108       0.483205236953079       0.470582524372050     
  0.457959811791021       0.445337099209993       0.432714386628962     
  0.420091674047934       0.407468961466905       0.394846248885876     
  0.382223536304847       0.551061709772142       0.538438997191113     
  0.525816284610085       0.513193572029054       0.500570859448026     
  0.487948146866999       0.475325434285969       0.462702721704940     
  0.450080009123911       0.437457296542882       0.424834583961853     
  0.594707984573851       0.582085271992821       0.569462559411792     
  0.556839846830764       0.544217134249735       0.531594421668706     
  0.518971709087677       0.506348996506648       0.493726283925620     
  0.481103571344590       0.468480858763561       0.638701158693618     
  0.626078446112588       0.613455733531559       0.600833020950530     
  0.588210308369501       0.575587595788473       0.562964883207443     
  0.550342170626415       0.537719458045388       0.525096745464357     
  0.512474032883328       0.682347433495324       0.669724720914296     
  0.657102008333267       0.644479295752237       0.631856583171209     
  0.619233870590182       0.606611158009152       0.593988445428122     
  0.581365732847093       0.568743020266064       0.556120307685037     
  0.724958481152331       0.712335768571301       0.699713055990273     
  0.687090343409245       0.674467630828217       0.661844918247187     
  0.649222205666158       0.636599493085129       0.623976780504100     
  0.611354067923070       0.598731355342043       0.765862299988478     
  0.753239587407449       0.740616874826419       0.727994162245392     
  0.715371449664362       0.702748737083334       0.690126024502304     
  0.677503311921277       0.664880599340247       0.652257886759218     
  0.639635174178191       0.804413812345962       0.791791099764933     
  0.779168387183904       0.766545674602876       0.753922962021847     
  0.741300249440818       0.728677536859789       0.716054824278759     
  0.703432111697731       0.690809399116702       0.678186686535674     
  0.840005037845349       0.827382325264319       0.814759612683291     
  0.802136900102263       0.789514187521234       0.776891474940205     
  0.764268762359175       0.751646049778147       0.739023337197120     
  0.726400624616089       0.713777912035060       0.872074681599348     
  0.859451969018317       0.846829256437289       0.834206543856261     
  0.821583831275232       0.808961118694201       0.796338406113175     
  0.783715693532146       0.771092980951115       0.758470268370088     
  0.745847555789059       0.900116986168478       0.887494273587450     
  0.874871561006418       0.862248848425389       0.849626135844362     
  0.837003423263333       0.824380710682305       0.811757998101275     
  0.799135285520248       0.786512572939217       0.773889860358187     
  0.923689707658024       0.911066995076997       0.898444282495966     
  0.885821569914938       0.873198857333911       0.860576144752882     
  0.847953432171851       0.835330719590823       0.822708007009796     
  0.810085294428765       0.797462581847737       0.942421090168439     
  0.929798377587409       0.917175665006379       0.904552952425352     
  0.891930239844324       0.879307527263294       0.866684814682266     
  0.854062102101237       0.841439389520208       0.828816676939179     
  0.816193964358148       0.956015728607943       0.943393016026915     
  0.930770303445884       0.918147590864856       0.905524878283828     
  0.892902165702797       0.880279453121770       0.867656740540739     
  0.855034027959710       0.842411315378681       0.829788602797654     
  0.964259227407302       0.951636514826274       0.939013802245247     
  0.926391089664214       0.913768377083187       0.901145664502157     
  0.888522951921128       0.875900239340100       0.863277526759074     
  0.850654814178042       0.838032101597013       0.967021581666026     
  0.954398869084997       0.941776156503970       0.929153443922939     
  0.916530731341912       0.903908018760882       0.891285306179855     
  0.878662593598824       0.866039881017796       0.853417168436766     
  0.840794455855740     
  7.997255638958273E-003 -5.709762356134617E-003 -1.941678035122743E-002
 -3.312379834632063E-002 -4.683081634141389E-002 -6.053783433650647E-002
 -7.424485233159948E-002 -8.795187032669248E-002 -0.101658888321785     
 -0.115365906316878      -0.129072924311971       5.453419782951153E-003
 -8.253598212141942E-003 -2.196061620723473E-002 -3.566763420232764E-002
 -4.937465219742054E-002 -6.308167019251350E-002 -7.678868818760645E-002
 -9.049570618269927E-002 -0.104202724177793      -0.117909742172885     
 -0.131616760167978      -2.137969974006504E-003 -1.584498796909945E-002
 -2.955200596419244E-002 -4.325902395928544E-002 -5.696604195437817E-002
 -7.067305994947132E-002 -8.438007794456445E-002 -9.808709593965721E-002
 -0.111794113934750      -0.125501131929843      -0.139208149924936     
 -1.465719288057176E-002 -2.836421087566468E-002 -4.207122887075809E-002
 -5.577824686585062E-002 -6.948526486094365E-002 -8.319228285603646E-002
 -9.689930085112924E-002 -0.110606318846222      -0.124313336841315     
 -0.138020354836408      -0.151727372831501      -3.190681331288598E-002
 -4.561383130797855E-002 -5.932084930307202E-002 -7.302786729816500E-002
 -8.673488529325776E-002 -0.100441903288351      -0.114148921283444     
 -0.127855939278537      -0.141562957273630      -0.155269975268722     
 -0.168976993263815      -5.361479445230839E-002 -6.732181244740160E-002
 -8.102883044249430E-002 -9.473584843758728E-002 -0.108442866432680     
 -0.122149884427774      -0.135856902422866      -0.149563920417959     
 -0.163270938413052      -0.176977956408145      -0.190684974403238     
 -7.943878846855065E-002 -9.314580646364393E-002 -0.106852824458737     
 -0.120559842453830      -0.134266860448922      -0.147973878444016     
 -0.161680896439109      -0.175387914434201      -0.189094932429294     
 -0.202801950424386      -0.216508968419479      -0.108971535549471     
 -0.122678553544564      -0.136385571539657      -0.150092589534750     
 -0.163799607529843      -0.177506625524935      -0.191213643520028     
 -0.204920661515121      -0.218627679510214      -0.232334697505307     
 -0.246041715500401      -0.141747286631594      -0.155454304626688     
 -0.169161322621780      -0.182868340616873      -0.196575358611966     
 -0.210282376607059      -0.223989394602152      -0.237696412597245     
 -0.251403430592338      -0.265110448587431      -0.278817466582523     
 -0.177249148541072      -0.190956166536164      -0.204663184531258     
 -0.218370202526351      -0.232077220521444      -0.245784238516536     
 -0.259491256511629      -0.273198274506722      -0.286905292501815     
 -0.300612310496907      -0.314319328492001      -0.214917235707806     
 -0.228624253702899      -0.242331271697992      -0.256038289693084     
 -0.269745307688178      -0.283452325683271      -0.297159343678362     
 -0.310866361673457      -0.324573379668549      -0.338280397663642     
 -0.351987415658735      -0.254157499895353      -0.267864517890446     
 -0.281571535885540      -0.295278553880631      -0.308985571875725     
 -0.322692589870818      -0.336399607865911      -0.350106625861004     
 -0.363813643856096      -0.377520661851189      -0.391227679846281     
 -0.294351098696478      -0.308058116691571      -0.321765134686664     
 -0.335472152681756      -0.349179170676850      -0.362886188671942     
 -0.376593206667036      -0.390300224662129      -0.404007242657222     
 -0.417714260652314      -0.431421278647406      -0.334864155047595     
 -0.348571173042689      -0.362278191037780      -0.375985209032873     
 -0.389692227027967      -0.403399245023060      -0.417106263018153     
 -0.430813281013244      -0.444520299008340      -0.458227317003431     
 -0.471934334998524      -0.375057753848719      -0.388764771843812     
 -0.402471789838906      -0.416178807833998      -0.429885825829091     
 -0.443592843824185      -0.457299861819277      -0.471006879814371     
 -0.484713897809462      -0.498420915804555      -0.512127933799650     
 -0.414298018036266      -0.428005036031360      -0.441712054026453     
 -0.455419072021545      -0.469126090016639      -0.482833108011732     
 -0.496540126006823      -0.510247144001917      -0.523954161997010     
 -0.537661179992102      -0.551368197987197      -0.451966105203002     
 -0.465673123198094      -0.479380141193187      -0.493087159188280     
 -0.506794177183373      -0.520501195178466      -0.534208213173559     
 -0.547915231168653      -0.561622249163744      -0.575329267158839     
 -0.589036285153931      -0.487467967112478      -0.501174985107571     
 -0.514882003102664      -0.528589021097757      -0.542296039092850     
 -0.556003057087944      -0.569710075083036      -0.583417093078129     
 -0.597124111073221      -0.610831129068314      -0.624538147063407     
 -0.520243718194602      -0.533950736189694      -0.547657754184787     
 -0.561364772179880      -0.575071790174973      -0.588778808170067     
 -0.602485826165158      -0.616192844160252      -0.629899862155345     
 -0.643606880150438      -0.657313898145530      -0.549776465275522     
 -0.563483483270615      -0.577190501265707      -0.590897519260802     
 -0.604604537255893      -0.618311555250987      -0.632018573246078     
 -0.645725591241173      -0.659432609236266      -0.673139627231359     
 -0.686846645226450      -0.575600459291765      -0.589307477286858     
 -0.603014495281949      -0.616721513277041      -0.630428531272136     
 -0.644135549267228      -0.657842567262323      -0.671549585257415     
 -0.685256603252506      -0.698963621247601      -0.712670639242692     
 -0.597308440431185      -0.611015458426278      -0.624722476421374     
 -0.638429494416465      -0.652136512411557      -0.665843530406653     
 -0.679550548401745      -0.693257566396836      -0.706964584391929     
 -0.720671602387024      -0.734378620382118      -0.614558060863502     
 -0.628265078858593      -0.641972096853686      -0.655679114848780     
 -0.669386132843873      -0.683093150838965      -0.696800168834059     
 -0.710507186829153      -0.724214204824244      -0.737921222819337     
 -0.751628240814429      -0.627077283770066      -0.640784301765158     
 -0.654491319760251      -0.668198337755344      -0.681905355750439     
 -0.695612373745532      -0.709319391740625      -0.723026409735717     
 -0.736733427730807      -0.750440445725903      -0.764147463720996     
 -0.634668673527023      -0.648375691522115      -0.662082709517209     
 -0.675789727512301      -0.689496745507394      -0.703203763502489     
 -0.716910781497581      -0.730617799492673      -0.744324817487768     
 -0.758031835482860      -0.771738853477952      -0.637212509383029     
 -0.650919527378125      -0.664626545373216      -0.678333563368310     
 -0.692040581363404      -0.705747599358496      -0.719454617353589     
 -0.733161635348681      -0.746868653343774      -0.760575671338867     
 -0.774282689333962     
  3.960717710078315E-002  3.564645939070483E-002  3.168574168062652E-002
  2.772502397054821E-002  2.376430626046989E-002  1.980358855039158E-002
  1.584287084031326E-002  1.188215313023495E-002  7.921435420156629E-003
  3.960717710078312E-003  0.000000000000000E+000  3.960717710078315E-002
  3.564645939070483E-002  3.168574168062652E-002  2.772502397054821E-002
  2.376430626046989E-002  1.980358855039158E-002  1.584287084031326E-002
  1.188215313023495E-002  7.921435420156629E-003  3.960717710078312E-003
  0.000000000000000E+000  3.960717710078315E-002  3.564645939070483E-002
  3.168574168062652E-002  2.772502397054821E-002  2.376430626046989E-002
  1.980358855039158E-002  1.584287084031326E-002  1.188215313023495E-002
  7.921435420156629E-003  3.960717710078312E-003  0.000000000000000E+000
  3.960717710078315E-002  3.564645939070483E-002  3.168574168062652E-002
  2.772502397054821E-002  2.376430626046989E-002  1.980358855039158E-002
  1.584287084031326E-002  1.188215313023495E-002  7.921435420156629E-003
  3.960717710078312E-003  0.000000000000000E+000  3.960717710078315E-002
  3.564645939070483E-002  3.168574168062652E-002  2.772502397054821E-002
  2.376430626046989E-002  1.980358855039158E-002  1.584287084031326E-002
  1.188215313023495E-002  7.921435420156629E-003  3.960717710078312E-003
  0.000000000000000E+000  3.960717710078315E-002  3.564645939070483E-002
  3.168574168062652E-002  2.772502397054821E-002  2.376430626046989E-002
  1.980358855039158E-002  1.584287084031326E-002  1.188215313023495E-002
  7.921435420156629E-003  3.960717710078312E-003  0.000000000000000E+000
  3.960717710078315E-002  3.564645939070483E-002  3.168574168062652E-002
  2.772502397054821E-002  2.376430626046989E-002  1.980358855039158E-002
  1.584287084031326E-002  1.188215313023495E-002  7.921435420156629E-003
  3.960717710078312E-003  0.000000000000000E+000  3.960717710078315E-002
  3.564645939070483E-002  3.168574168062652E-002  2.772502397054821E-002
  2.376430626046989E-002  1.980358855039158E-002  1.584287084031326E-002
  1.188215313023495E-002  7.921435420156629E-003  3.960717710078312E-003
  0.000000000000000E+000  3.960717710078315E-002  3.564645939070483E-002
  3.168574168062652E-002  2.772502397054821E-002  2.376430626046989E-002
  1.980358855039158E-002  1.584287084031326E-002  1.188215313023495E-002
  7.921435420156629E-003  3.960717710078312E-003  0.000000000000000E+000
  3.960717710078315E-002  3.564645939070483E-002  3.168574168062652E-002
  2.772502397054821E-002  2.376430626046989E-002  1.980358855039158E-002
  1.584287084031326E-002  1.188215313023495E-002  7.921435420156629E-003
  3.960717710078312E-003  0.000000000000000E+000  3.960717710078315E-002
  3.564645939070483E-002  3.168574168062652E-002  2.772502397054821E-002
  2.376430626046989E-002  1.980358855039158E-002  1.584287084031326E-002
  1.188215313023495E-002  7.921435420156629E-003  3.960717710078312E-003
  0.000000000000000E+000  3.960717710078315E-002  3.564645939070483E-002
  3.168574168062652E-002  2.772502397054821E-002  2.376430626046989E-002
  1.980358855039158E-002  1.584287084031326E-002  1.188215313023495E-002
  7.921435420156629E-003  3.960717710078312E-003  0.000000000000000E+000
  3.960717710078315E-002  3.564645939070483E-002  3.168574168062652E-002
  2.772502397054821E-002  2.376430626046989E-002  1.980358855039158E-002
  1.584287084031326E-002  1.188215313023495E-002  7.921435420156629E-003
  3.960717710078312E-003  0.000000000000000E+000  3.960717710078315E-002
  3.564645939070483E-002  3.168574168062652E-002  2.772502397054821E-002
  2.376430626046989E-002  1.980358855039158E-002  1.584287084031326E-002
  1.188215313023495E-002  7.921435420156629E-003  3.960717710078312E-003
  0.000000000000000E+000  3.960717710078315E-002  3.564645939070483E-002
  3.168574168062652E-002  2.772502397054821E-002  2.376430626046989E-002
  1.980358855039158E-002  1.584287084031326E-002  1.188215313023495E-002
  7.921435420156629E-003  3.960717710078312E-003  0.000000000000000E+000
  3.960717710078315E-002  3.564645939070483E-002  3.168574168062652E-002
  2.772502397054821E-002  2.376430626046989E-002  1.980358855039158E-002
  1.584287084031326E-002  1.188215313023495E-002  7.921435420156629E-003
  3.960717710078312E-003  0.000000000000000E+000  3.960717710078315E-002
  3.564645939070483E-002  3.168574168062652E-002  2.772502397054821E-002
  2.376430626046989E-002  1.980358855039158E-002  1.584287084031326E-002
  1.188215313023495E-002  7.921435420156629E-003  3.960717710078312E-003
  0.000000000000000E+000  3.960717710078315E-002  3.564645939070483E-002
  3.168574168062652E-002  2.772502397054821E-002  2.376430626046989E-002
  1.980358855039158E-002  1.584287084031326E-002  1.188215313023495E-002
  7.921435420156629E-003  3.960717710078312E-003  0.000000000000000E+000
  3.960717710078315E-002  3.564645939070483E-002  3.168574168062652E-002
  2.772502397054821E-002  2.376430626046989E-002  1.980358855039158E-002
  1.584287084031326E-002  1.188215313023495E-002  7.921435420156629E-003
  3.960717710078312E-003  0.000000000000000E+000  3.960717710078315E-002
  3.564645939070483E-002  3.168574168062652E-002  2.772502397054821E-002
  2.376430626046989E-002  1.980358855039158E-002  1.584287084031326E-002
  1.188215313023495E-002  7.921435420156629E-003  3.960717710078312E-003
  0.000000000000000E+000  3.960717710078315E-002  3.564645939070483E-002
  3.168574168062652E-002  2.772502397054821E-002  2.376430626046989E-002
  1.980358855039158E-002  1.584287084031326E-002  1.188215313023495E-002
  7.921435420156629E-003  3.960717710078312E-003  0.000000000000000E+000
  3.960717710078315E-002  3.564645939070483E-002  3.168574168062652E-002
  2.772502397054821E-002  2.376430626046989E-002  1.980358855039158E-002
  1.584287084031326E-002  1.188215313023495E-002  7.921435420156629E-003
  3.960717710078312E-003  0.000000000000000E+000  3.960717710078315E-002
  3.564645939070483E-002  3.168574168062652E-002  2.772502397054821E-002
  2.376430626046989E-002  1.980358855039158E-002  1.584287084031326E-002
  1.188215313023495E-002  7.921435420156629E-003  3.960717710078312E-003
  0.000000000000000E+000  3.960717710078315E-002  3.564645939070483E-002
  3.168574168062652E-002  2.772502397054821E-002  2.376430626046989E-002
  1.980358855039158E-002  1.584287084031326E-002  1.188215313023495E-002
  7.921435420156629E-003  3.960717710078312E-003  0.000000000000000E+000
  3.960717710078315E-002  3.564645939070483E-002  3.168574168062652E-002
  2.772502397054821E-002  2.376430626046989E-002  1.980358855039158E-002
  1.584287084031326E-002  1.188215313023495E-002  7.921435420156629E-003
  3.960717710078312E-003  0.000000000000000E+000  3.960717710078315E-002
  3.564645939070483E-002  3.168574168062652E-002  2.772502397054821E-002
  2.376430626046989E-002  1.980358855039158E-002  1.584287084031326E-002
  1.188215313023495E-002  7.921435420156629E-003  3.960717710078312E-003
  0.000000000000000E+000
  0.208970279057828       0.299586492619192       0.368766888797032     
  0.424556961200201       0.468377671165562       0.500387100259421     
  0.521101357922635       0.531694839140419       0.533651467712705     
  0.528600691068820       0.338205885346284       0.493443900919460     
  0.611010255449902       0.705830980850309       0.780624898093512     
  0.835634877383084       0.871603971678139       0.890492619091780     
  0.894987475703512       0.889795373382601       0.420639979938465     
  0.632520313135685       0.793713619301495       0.924329175564559     
   1.02833207389987        1.10597659938734        1.15798210757806     
   1.18672843074159        1.19522483726113        1.18897015240682     
  0.444053665434269       0.684058122619235       0.870986522237431     
   1.02431976861261        1.14785637898050        1.24128799708286     
   1.30529837906358        1.34146163279157        1.35094280430765     
   1.33802432470207       0.424073132682269       0.662284039327833     
  0.850879754936665        1.00661440056597        1.13329691943356     
   1.23107329871036        1.29958274894598        1.33937400967336     
   1.35059713941542        1.33539907804848       0.395662527853416     
  0.616590150391214       0.789829493639948       0.931586105310407     
   1.04797677090138        1.14048622779000        1.20885935767365     
   1.25261272426715        1.27114847132714        1.26457800457060     
  0.397237015421690       0.610353220310856       0.772407852607268     
  0.903316451549113        1.01098162112815        1.09887090088522     
   1.16784586940566        1.21755095005216        1.24710663701873     
   1.25526542981263       0.446369136371732       0.675571781529650     
  0.847000800253166       0.985553015550165        1.10009731706793     
   1.19469613124178        1.27118003869389        1.33021763198126     
   1.37146368285148        1.39274351742868       0.552457542538692     
  0.825457113805994        1.02505945141891        1.18466304767169     
   1.31622914041172        1.42529003792504        1.51464576212690     
   1.58555564347797        1.63785947103714        1.66881946592229     
  0.699606905345882        1.03691601764533        1.27881640080466     
   1.46952113253134        1.62528785422021        1.75389611791099     
   1.85944270075168        1.94388585217381        2.00728854195761     
   2.04648301077083       0.871806468840820        1.28640396988436     
   1.58018478691655        1.80950105614362        1.99535142929708     
   2.14793949431877        2.27276021368578        2.37259004111698     
   2.44785781754770        2.49512674484365        1.06055849334833     
   1.56090049574228        1.91279453135687        2.18562289681316     
   2.40544245412997        2.58503786568439        2.73138855967933     
   2.84814050296170        2.93613234456554        2.99171499117272     
   1.26085919917971        1.85251951035800        2.26645604073557     
   2.58575590774691        2.84177052736206        3.04999421125662     
   3.21898723081486        3.35334428421215        3.45438140707085     
   3.51830127731616        1.46976707420168        2.15645200302081     
   2.63471824317476        3.00195231026160        3.29504130450656     
   3.53232475051705        3.72403765333962        3.87580777885063     
   3.98952259761785        4.06135855368065        1.68775247752448     
   2.47267151185671        3.01669609945646        3.43228377520942     
   3.76221204245981        4.02789512114384        4.24141578211693     
   4.40957205057820        4.53494281494121        4.61383280236024     
   1.92229657939655        2.81046445418631        3.42187526622123     
   3.88573108306024        4.25148011148350        4.54407137062281     
   4.77773734849903        4.96066081377715        5.09627827542377     
   5.18118725766826        2.18601738792921        3.18534339106044     
   3.86625010970693        4.37798020741758        4.77811272024431     
   5.09588631411314        5.34808550122755        5.54450751362196     
   5.68959513173292        5.78031309819020        2.46736475664232     
   3.57940700016417        4.32729145992315        4.88307705461606     
   5.31365620810735        5.65310536964939        5.92102216687164     
   6.12897563291268        6.28256980297037        6.37929878295970     
   2.70313641052525        3.90266785174565        4.69783361560103     
   5.28130369378493        5.72843063703861        6.07767964197154     
   6.35125946551354        6.56246774333314        6.71820954047676     
   6.81715231878622        2.81404403811872        4.04090374270105     
   4.84020986030158        5.41738901331886        5.85347692188176     
   6.18998651656778        6.45083134570612        6.65031258496095     
   6.79616495379805        6.88861523912385        2.76663556936135     
   3.94208696198375        4.68971573259381        5.21873240026660     
   5.61203967633979        5.91180046451645        6.14191256241194     
   6.31638901430119        6.44278790553682        6.52220933632137     
   2.56438224935175        3.60556291143918        4.24524592922802     
   4.68791106249194        5.01266519423470        5.25830052575992     
   5.44617951565489        5.58870956780652        5.69276497519038     
   5.75955532822911        2.20997052485537        3.03665390175455     
   3.52529723946314        3.85872815292548        4.10232734800689     
   4.28661730251720        4.42816716852124        4.53705125861591     
   4.62054295960527        4.68482195006657        1.68774343468700     
   2.24542204688331        2.57065540872685        2.79316178894605     
   2.95640179409074        3.08040979346321        3.17609711060743     
   3.25016654218684        3.30762381240269        3.35544181398922     
   1.02562543285122        1.33789381061327        1.52171992323082     
   1.64819175852153        1.74130204277662        1.81218776971622     
   1.86690443476163        1.90901805536942        1.94057039205459     
   1.96109525308258     
  0.000000000000000E+000  0.000000000000000E+000  0.000000000000000E+000
  0.000000000000000E+000  0.000000000000000E+000  0.000000000000000E+000
  0.000000000000000E+000  0.000000000000000E+000  0.000000000000000E+000
  0.000000000000000E+000  0.000000000000000E+000  0.000000000000000E+000
  0.000000000000000E+000  0.000000000000000E+000  0.000000000000000E+000
  0.000000000000000E+000  0.000000000000000E+000  0.000000000000000E+000
  0.000000000000000E+000  0.000000000000000E+000  0.000000000000000E+000
  0.000000000000000E+000  0.000000000000000E+000  0.000000000000000E+000
  0.000000000000000E+000  0.000000000000000E+000  0.000000000000000E+000
  0.000000000000000E+000  0.000000000000000E+000  0.000000000000000E+000
  0.000000000000000E+000  0.000000000000000E+000  0.000000000000000E+000
  0.000000000000000E+000  0.000000000000000E+000  0.000000000000000E+000
  0.000000000000000E+000  0.000000000000000E+000  0.000000000000000E+000
  0.000000000000000E+000  0.000000000000000E+000  0.000000000000000E+000
  0.000000000000000E+000  0.000000000000000E+000  0.000000000000000E+000
  0.000000000000000E+000  0.000000000000000E+000  0.000000000000000E+000
  0.000000000000000E+000  0.000000000000000E+000  0.000000000000000E+000
  0.000000000000000E+000  0.000000000000000E+000  0.000000000000000E+000
  0.000000000000000E+000  0.000000000000000E+000  0.000000000000000E+000
  0.000000000000000E+000  0.000000000000000E+000  0.000000000000000E+000
  0.000000000000000E+000  0.000000000000000E+000  0.000000000000000E+000
  0.000000000000000E+000  0.000000000000000E+000  0.000000000000000E+000
  0.000000000000000E+000  0.000000000000000E+000  0.000000000000000E+000
  0.000000000000000E+000  0.000000000000000E+000  0.000000000000000E+000
  0.000000000000000E+000  0.000000000000000E+000  0.000000000000000E+000
  0.000000000000000E+000  0.000000000000000E+000  0.000000000000000E+000
  0.000000000000000E+000  0.000000000000000E+000  0.000000000000000E+000
  0.000000000000000E+000  0.000000000000000E+000  0.000000000000000E+000
  0.000000000000000E+000  0.000000000000000E+000  0.000000000000000E+000
  0.000000000000000E+000  0.000000000000000E+000  0.000000000000000E+000
  0.000000000000000E+000  0.000000000000000E+000  0.000000000000000E+000
  0.000000000000000E+000  0.000000000000000E+000  0.000000000000000E+000
  0.000000000000000E+000  0.000000000000000E+000  0.000000000000000E+000
  0.000000000000000E+000  0.000000000000000E+000  0.000000000000000E+000
  0.000000000000000E+000  0.000000000000000E+000  0.000000000000000E+000
  0.000000000000000E+000  0.000000000000000E+000  0.000000000000000E+000
  0.000000000000000E+000  0.000000000000000E+000  0.000000000000000E+000
  0.000000000000000E+000  0.000000000000000E+000  0.000000000000000E+000
  0.000000000000000E+000  0.000000000000000E+000  0.000000000000000E+000