 Title = "Wing and Wake"
 VARIABLES = "X" "Y" "Z" "GAM" "skew"
 Zone I=   11 J=   26 K=1  T="Blade"
 DATAPACKING=BLOCK
 VARLOCATION=([4]=CELLCENTERED,[5]=CELLCENTERED)
  0.243059135568286       0.236641192323837       0.230223249079387     
  0.223805305834938       0.217387362590489       0.210969419346039     
  0.204551476101589       0.198133532857140       0.191715589612690     
  0.185297646368240       0.178879703123791       0.246584589145354     
  0.240166645900905       0.233748702656455       0.227330759412006     
  0.220912816167556       0.214494872923106       0.208076929678656     
  0.201658986434207       0.195241043189758       0.188823099945308     
  0.182405156700858       0.257105351367642       0.250687408123192     
  0.244269464878742       0.237851521634293       0.231433578389843     
  0.225015635145394       0.218597691900944       0.212179748656495     
  0.205761805412045       0.199343862167595       0.192925918923146     
  0.274455503530106       0.268037560285656       0.261619617041207     
  0.255201673796758       0.248783730552308       0.242365787307858     
  0.235947844063409       0.229529900818959       0.223111957574509     
  0.216694014330060       0.210276071085610       0.298361423368665     
  0.291943480124216       0.285525536879766       0.279107593635317     
  0.272689650390867       0.266271707146418       0.259853763901969     
  0.253435820657519       0.247017877413069       0.240599934168620     
  0.234181990924170       0.328446100246762       0.322028157002314     
  0.315610213757863       0.309192270513414       0.302774327268965     
  0.296356384024515       0.289938440780065       0.283520497535616     
  0.277102554291166       0.270684611046716       0.264266667802267     
  0.364235080838314       0.357817137593865       0.351399194349416     
  0.344981251104966       0.338563307860516       0.332145364616068     
  0.325727421371617       0.319309478127168       0.312891534882718     
  0.306473591638268       0.300055648393818       0.405163951540092     
  0.398746008295642       0.392328065051193       0.385910121806744     
  0.379492178562294       0.373074235317844       0.366656292073395     
  0.360238348828945       0.353820405584495       0.347402462340046     
  0.340984519095597       0.450587239611405       0.444169296366957     
  0.437751353122506       0.431333409878057       0.424915466633608     
  0.418497523389158       0.412079580144707       0.405661636900258     
  0.399243693655809       0.392825750411360       0.386407807166910     
  0.499788592664813       0.493370649420364       0.486952706175915     
  0.480534762931465       0.474116819687015       0.467698876442566     
  0.461280933198116       0.454862989953667       0.448445046709217     
  0.442027103464767       0.435609160220317       0.551992075971201     
  0.545574132726751       0.539156189482301       0.532738246237852     
  0.526320302993402       0.519902359748953       0.513484416504502     
  0.507066473260053       0.500648530015603       0.494230586771154     
  0.487812643526704       0.606374409413974       0.599956466169525     
  0.593538522925076       0.587120579680624       0.580702636436175     
  0.574284693191727       0.567866749947277       0.561448806702827     
  0.555030863458378       0.548612920213928       0.542194976969478     
  0.662077951108313       0.655660007863863       0.649242064619412     
  0.642824121374964       0.636406178130514       0.629988234886064     
  0.623570291641615       0.617152348397165       0.610734405152716     
  0.604316461908266       0.597898518663816       0.718224222926013     
  0.711806279681561       0.705388336437111       0.698970393192662     
  0.692552449948213       0.686134506703763       0.679716563459314     
  0.673298620214863       0.666880676970416       0.660462733725965     
  0.654044790481515       0.773927764620348       0.767509821375899     
  0.761091878131450       0.754673934886999       0.748255991642550     
  0.741838048398102       0.735420105153651       0.729002161909201     
  0.722584218664751       0.716166275420301       0.709748332175854     
  0.828310098063123       0.821892154818673       0.815474211574224     
  0.809056268329774       0.802638325085325       0.796220381840875     
  0.789802438596425       0.783384495351976       0.776966552107526     
  0.770548608863075       0.764130665618628       0.880513581369510     
  0.874095638125060       0.867677694880610       0.861259751636161     
  0.854841808391711       0.848423865147261       0.842005921902812     
  0.835587978658363       0.829170035413913       0.822752092169464     
  0.816334148925015       0.929714934422918       0.923296991178467     
  0.916879047934017       0.910461104689569       0.904043161445119     
  0.897625218200671       0.891207274956220       0.884789331711770     
  0.878371388467320       0.871953445222870       0.865535501978421     
  0.975138222494230       0.968720279249780       0.962302336005331     
  0.955884392760882       0.949466449516432       0.943048506271983     
  0.936630563027532       0.930212619783084       0.923794676538635     
  0.917376733294185       0.910958790049734        1.01606709319601     
   1.00964914995156        1.00323120670711       0.996813263462661     
  0.990395320218210       0.983977376973759       0.977559433729310     
  0.971141490484862       0.964723547240411       0.958305603995962     
  0.951887660751512        1.05185607378756        1.04543813054311     
   1.03902018729866        1.03260224405421        1.02618430080976     
   1.01976635756531        1.01334841432086        1.00693047107641     
   1.00051252783196       0.994094584587513       0.987676641343063     
   1.08194075066566        1.07552280742121        1.06910486417676     
   1.06268692093231        1.05626897768786        1.04985103444341     
   1.04343309119896        1.03701514795451        1.03059720471006     
   1.02417926146561        1.01776131822116        1.10584667050422     
   1.09942872725977        1.09301078401532        1.08659284077087     
   1.08017489752642        1.07375695428197        1.06733901103752     
   1.06092106779307        1.05450312454862        1.04808518130417     
   1.04166723805972        1.12319682266668        1.11677887942223     
   1.11036093617778        1.10394299293333        1.09752504968888     
   1.09110710644443        1.08468916319998        1.07827121995553     
   1.07185327671108        1.06543533346663        1.05901739022218     
   1.13371758488897        1.12729964164452        1.12088169840007     
   1.11446375515562        1.10804581191117        1.10162786866672     
   1.09520992542227        1.08879198217782        1.08237403893337     
   1.07595609568892        1.06953815244447        1.13724303846603     
   1.13082509522159        1.12440715197714        1.11798920873269     
   1.11157126548824        1.10515332224379        1.09873537899934     
   1.09231743575489        1.08589949251044        1.07948154926599     
   1.07306360602154     
  0.109309403486221       9.181582695847598E-002  7.432225043073031E-002
  5.682867390298468E-002  3.933509737523886E-002  2.184152084749339E-002
  4.347944319747681E-003 -1.314563220799780E-002 -3.063920873574318E-002
 -4.813278526348905E-002 -6.562636179123467E-002  0.108016005253294     
  9.052242872554875E-002  7.302885219780295E-002  5.553527567005774E-002
  3.804169914231195E-002  2.054812261456634E-002  3.054546086820726E-003
 -1.443903044092468E-002 -3.193260696867048E-002 -4.942618349641605E-002
 -6.691976002416185E-002  0.104156208217285       8.666263168953973E-002
  6.916905516179379E-002  5.167547863404819E-002  3.418190210630272E-002
  1.668832557855708E-002 -8.052509491888006E-004 -1.829882747693394E-002
 -3.579240400467936E-002 -5.328598053242525E-002 -7.077955706017063E-002
  9.779088368318271E-002  8.029730715543670E-002  6.280373062769100E-002
  4.531015409994585E-002  2.781657757220022E-002  1.032300104445444E-002
 -7.170575483290915E-003 -2.466415201103653E-002 -4.215772853878230E-002
 -5.965130506652812E-002 -7.714488159427300E-002  8.902041662135021E-002
  7.152684009360484E-002  5.403326356585876E-002  3.653968703811329E-002
  1.904611051036773E-002  1.552533982622036E-003 -1.594104254512370E-002
 -3.343461907286897E-002 -5.092819560061470E-002 -6.842177212836001E-002
 -8.591534865610573E-002  7.798312253657576E-002  6.048954600883021E-002
  4.299596948108475E-002  2.550239295333886E-002  8.008816425593574E-003
 -9.484760102152514E-003 -2.697833662989774E-002 -4.447191315764327E-002
 -6.196548968538908E-002 -7.945906621313464E-002 -9.695264274088042E-002
  6.485306614993633E-002  4.735948962219100E-002  2.986591309444555E-002
  1.237233656669994E-002 -5.121239961045713E-003 -2.261481648879160E-002
 -4.010839301653684E-002 -5.760196954428209E-002 -7.509554607202769E-002
 -9.258912259977327E-002 -0.110082699127519       4.983731629416497E-002
  3.234373976641938E-002  1.485016323867356E-002 -2.643413289071556E-003
 -2.013698981681728E-002 -3.763056634456280E-002 -5.512414287230849E-002
 -7.261771940005372E-002 -9.011129592779948E-002 -0.107604872455545     
 -0.125098448983291       3.317268031446153E-002  1.567910378671498E-002
 -1.814472741030299E-003 -1.930804926877548E-002 -3.680162579652101E-002
 -5.429520232426661E-002 -7.178877885201229E-002 -8.928235537975783E-002
 -0.106775931907504      -0.124269508435249      -0.141763084962994     
  1.512196947519553E-002 -2.371607052549610E-003 -1.986518358029563E-002
 -3.735876010804120E-002 -5.485233663578674E-002 -7.234591316353195E-002
 -8.983948969127768E-002 -0.107333066219024      -0.124826642746769     
 -0.142320219274514      -0.159813795802260      -4.030145730724360E-003
 -2.152372225847005E-002 -3.901729878621520E-002 -5.651087531396058E-002
 -7.400445184170648E-002 -9.149802836945230E-002 -0.108991604897197     
 -0.126485181424944      -0.143978757952689      -0.161472334480434     
 -0.178965911008180      -2.398162500558271E-002 -4.147520153332734E-002
 -5.896877806107385E-002 -7.646235458881888E-002 -9.395593111656475E-002
 -0.111449507644310      -0.128943084172056      -0.146436660699801     
 -0.163930237227547      -0.181423813755292      -0.198917390283038     
 -4.441782160277765E-002 -6.191139813052326E-002 -7.940497465826925E-002
 -9.689855118601406E-002 -0.114392127713760      -0.131885704241505     
 -0.149379280769252      -0.166872857296997      -0.184366433824742     
 -0.201860010352488      -0.219353586880233      -6.501644449398039E-002
 -8.251002102172651E-002 -0.100003597549471      -0.117497174077217     
 -0.134990750604963      -0.152484327132709      -0.169977903660455     
 -0.187471480188198      -0.204965056715946      -0.222458633243691     
 -0.239952209771436      -8.545264109117599E-002 -0.102946217618921     
 -0.120439794146667      -0.137933370674412      -0.155426947202158     
 -0.172920523729904      -0.190414100257649      -0.207907676785396     
 -0.225401253313140      -0.242894829840886      -0.260388406368632     
 -0.105404120366034      -0.122897696893780      -0.140391273421525     
 -0.157884849949269      -0.175378426477016      -0.192872003004762     
 -0.210365579532506      -0.227859156060253      -0.245352732587998     
 -0.262846309115744      -0.280339885643490      -0.124556235571954     
 -0.142049812099699      -0.159543388627445      -0.177036965155190     
 -0.194530541682936      -0.212024118210682      -0.229517694738428     
 -0.247011271266173      -0.264504847793919      -0.281998424321665     
 -0.299492000849410      -0.142606946411219      -0.160100522938965     
 -0.177594099466711      -0.195087675994456      -0.212581252522202     
 -0.230074829049948      -0.247568405577693      -0.265061982105438     
 -0.282555558633184      -0.300049135160929      -0.317542711688674     
 -0.159271582390924      -0.176765158918669      -0.194258735446415     
 -0.211752311974159      -0.229245888501905      -0.246739465029651     
 -0.264233041557396      -0.281726618085142      -0.299220194612888     
 -0.316713771140634      -0.334207347668379      -0.174287332246695     
 -0.191780908774441      -0.209274485302185      -0.226768061829933     
 -0.244261638357676      -0.261755214885423      -0.279248791413167     
 -0.296742367940914      -0.314235944468660      -0.331729520996405     
 -0.349223097524149      -0.187417388633335      -0.204910965161080     
 -0.222404541688825      -0.239898118216570      -0.257391694744316     
 -0.274885271272062      -0.292378847799808      -0.309872424327553     
 -0.327366000855298      -0.344859577383044      -0.362353153910789     
 -0.198454682718108      -0.215948259245853      -0.233441835773600     
 -0.250935412301345      -0.268428988829089      -0.285922565356837     
 -0.303416141884582      -0.320909718412327      -0.338403294940072     
 -0.355896871467820      -0.373390447995566      -0.207225149779941     
 -0.224718726307686      -0.242212302835431      -0.259705879363177     
 -0.277199455890923      -0.294693032418668      -0.312186608946414     
 -0.329680185474161      -0.347173762001905      -0.364667338529650     
 -0.382160915057397      -0.213590474314043      -0.231084050841787     
 -0.248577627369534      -0.266071203897280      -0.283564780425026     
 -0.301058356952772      -0.318551933480517      -0.336045510008263     
 -0.353539086536007      -0.371032663063755      -0.388526239591500     
 -0.217450271350052      -0.234943847877797      -0.252437424405542     
 -0.269931000933288      -0.287424577461034      -0.304918153988781     
 -0.322411730516526      -0.339905307044272      -0.357398883572018     
 -0.374892460099763      -0.392386036627507      -0.218743669582978     
 -0.236237246110726      -0.253730822638469      -0.271224399166217     
 -0.288717975693962      -0.306211552221708      -0.323705128749453     
 -0.341198705277198      -0.358692281804944      -0.376185858332689     
 -0.393679434860437     
  3.960717710078315E-002  3.564645939070483E-002  3.168574168062652E-002
  2.772502397054821E-002  2.376430626046989E-002  1.980358855039158E-002
  1.584287084031326E-002  1.188215313023495E-002  7.921435420156629E-003
  3.960717710078312E-003  0.000000000000000E+000  3.960717710078315E-002
  3.564645939070483E-002  3.168574168062652E-002  2.772502397054821E-002
  2.376430626046989E-002  1.980358855039158E-002  1.584287084031326E-002
  1.188215313023495E-002  7.921435420156629E-003  3.960717710078312E-003
  0.000000000000000E+000  3.960717710078315E-002  3.564645939070483E-002
  3.168574168062652E-002  2.772502397054821E-002  2.376430626046989E-002
  1.980358855039158E-002  1.584287084031326E-002  1.188215313023495E-002
  7.921435420156629E-003  3.960717710078312E-003  0.000000000000000E+000
  3.960717710078315E-002  3.564645939070483E-002  3.168574168062652E-002
  2.772502397054821E-002  2.376430626046989E-002  1.980358855039158E-002
  1.584287084031326E-002  1.188215313023495E-002  7.921435420156629E-003
  3.960717710078312E-003  0.000000000000000E+000  3.960717710078315E-002
  3.564645939070483E-002  3.168574168062652E-002  2.772502397054821E-002
  2.376430626046989E-002  1.980358855039158E-002  1.584287084031326E-002
  1.188215313023495E-002  7.921435420156629E-003  3.960717710078312E-003
  0.000000000000000E+000  3.960717710078315E-002  3.564645939070483E-002
  3.168574168062652E-002  2.772502397054821E-002  2.376430626046989E-002
  1.980358855039158E-002  1.584287084031326E-002  1.188215313023495E-002
  7.921435420156629E-003  3.960717710078312E-003  0.000000000000000E+000
  3.960717710078315E-002  3.564645939070483E-002  3.168574168062652E-002
  2.772502397054821E-002  2.376430626046989E-002  1.980358855039158E-002
  1.584287084031326E-002  1.188215313023495E-002  7.921435420156629E-003
  3.960717710078312E-003  0.000000000000000E+000  3.960717710078315E-002
  3.564645939070483E-002  3.168574168062652E-002  2.772502397054821E-002
  2.376430626046989E-002  1.980358855039158E-002  1.584287084031326E-002
  1.188215313023495E-002  7.921435420156629E-003  3.960717710078312E-003
  0.000000000000000E+000  3.960717710078315E-002  3.564645939070483E-002
  3.168574168062652E-002  2.772502397054821E-002  2.376430626046989E-002
  1.980358855039158E-002  1.584287084031326E-002  1.188215313023495E-002
  7.921435420156629E-003  3.960717710078312E-003  0.000000000000000E+000
  3.960717710078315E-002  3.564645939070483E-002  3.168574168062652E-002
  2.772502397054821E-002  2.376430626046989E-002  1.980358855039158E-002
  1.584287084031326E-002  1.188215313023495E-002  7.921435420156629E-003
  3.960717710078312E-003  0.000000000000000E+000  3.960717710078315E-002
  3.564645939070483E-002  3.168574168062652E-002  2.772502397054821E-002
  2.376430626046989E-002  1.980358855039158E-002  1.584287084031326E-002
  1.188215313023495E-002  7.921435420156629E-003  3.960717710078312E-003
  0.000000000000000E+000  3.960717710078315E-002  3.564645939070483E-002
  3.168574168062652E-002  2.772502397054821E-002  2.376430626046989E-002
  1.980358855039158E-002  1.584287084031326E-002  1.188215313023495E-002
  7.921435420156629E-003  3.960717710078312E-003  0.000000000000000E+000
  3.960717710078315E-002  3.564645939070483E-002  3.168574168062652E-002
  2.772502397054821E-002  2.376430626046989E-002  1.980358855039158E-002
  1.584287084031326E-002  1.188215313023495E-002  7.921435420156629E-003
  3.960717710078312E-003  0.000000000000000E+000  3.960717710078315E-002
  3.564645939070483E-002  3.168574168062652E-002  2.772502397054821E-002
  2.376430626046989E-002  1.980358855039158E-002  1.584287084031326E-002
  1.188215313023495E-002  7.921435420156629E-003  3.960717710078312E-003
  0.000000000000000E+000  3.960717710078315E-002  3.564645939070483E-002
  3.168574168062652E-002  2.772502397054821E-002  2.376430626046989E-002
  1.980358855039158E-002  1.584287084031326E-002  1.188215313023495E-002
  7.921435420156629E-003  3.960717710078312E-003  0.000000000000000E+000
  3.960717710078315E-002  3.564645939070483E-002  3.168574168062652E-002
  2.772502397054821E-002  2.376430626046989E-002  1.980358855039158E-002
  1.584287084031326E-002  1.188215313023495E-002  7.921435420156629E-003
  3.960717710078312E-003  0.000000000000000E+000  3.960717710078315E-002
  3.564645939070483E-002  3.168574168062652E-002  2.772502397054821E-002
  2.376430626046989E-002  1.980358855039158E-002  1.584287084031326E-002
  1.188215313023495E-002  7.921435420156629E-003  3.960717710078312E-003
  0.000000000000000E+000  3.960717710078315E-002  3.564645939070483E-002
  3.168574168062652E-002  2.772502397054821E-002  2.376430626046989E-002
  1.980358855039158E-002  1.584287084031326E-002  1.188215313023495E-002
  7.921435420156629E-003  3.960717710078312E-003  0.000000000000000E+000
  3.960717710078315E-002  3.564645939070483E-002  3.168574168062652E-002
  2.772502397054821E-002  2.376430626046989E-002  1.980358855039158E-002
  1.584287084031326E-002  1.188215313023495E-002  7.921435420156629E-003
  3.960717710078312E-003  0.000000000000000E+000  3.960717710078315E-002
  3.564645939070483E-002  3.168574168062652E-002  2.772502397054821E-002
  2.376430626046989E-002  1.980358855039158E-002  1.584287084031326E-002
  1.188215313023495E-002  7.921435420156629E-003  3.960717710078312E-003
  0.000000000000000E+000  3.960717710078315E-002  3.564645939070483E-002
  3.168574168062652E-002  2.772502397054821E-002  2.376430626046989E-002
  1.980358855039158E-002  1.584287084031326E-002  1.188215313023495E-002
  7.921435420156629E-003  3.960717710078312E-003  0.000000000000000E+000
  3.960717710078315E-002  3.564645939070483E-002  3.168574168062652E-002
  2.772502397054821E-002  2.376430626046989E-002  1.980358855039158E-002
  1.584287084031326E-002  1.188215313023495E-002  7.921435420156629E-003
  3.960717710078312E-003  0.000000000000000E+000  3.960717710078315E-002
  3.564645939070483E-002  3.168574168062652E-002  2.772502397054821E-002
  2.376430626046989E-002  1.980358855039158E-002  1.584287084031326E-002
  1.188215313023495E-002  7.921435420156629E-003  3.960717710078312E-003
  0.000000000000000E+000  3.960717710078315E-002  3.564645939070483E-002
  3.168574168062652E-002  2.772502397054821E-002  2.376430626046989E-002
  1.980358855039158E-002  1.584287084031326E-002  1.188215313023495E-002
  7.921435420156629E-003  3.960717710078312E-003  0.000000000000000E+000
  3.960717710078315E-002  3.564645939070483E-002  3.168574168062652E-002
  2.772502397054821E-002  2.376430626046989E-002  1.980358855039158E-002
  1.584287084031326E-002  1.188215313023495E-002  7.921435420156629E-003
  3.960717710078312E-003  0.000000000000000E+000  3.960717710078315E-002
  3.564645939070483E-002  3.168574168062652E-002  2.772502397054821E-002
  2.376430626046989E-002  1.980358855039158E-002  1.584287084031326E-002
  1.188215313023495E-002  7.921435420156629E-003  3.960717710078312E-003
  0.000000000000000E+000
  0.210448470628233       0.292726589042349       0.344020956634137     
  0.374128887562511       0.388313384259045       0.390193350698953     
  0.383098127113029       0.369239825828128       0.350790244438033     
  0.330245609798002       0.337403534642526       0.479114152227873     
  0.567770139331525       0.620709326617618       0.646637021370409     
  0.651395846661434       0.640678033952542       0.618545935718814     
  0.588874483982912       0.557182711998827       0.410560280013882     
  0.603957108810775       0.728413579457962       0.806666001812374     
  0.849108562720709       0.861719925401604       0.852745671391786     
  0.828216468539067       0.793182910445274       0.754833480878660     
  0.426272151250602       0.640643295113641       0.784802327045660     
  0.884646371617918       0.947318934726598       0.973757711330651     
  0.975486837465929       0.958792480370471       0.928526116331383     
  0.889357010005011       0.415878139986149       0.628625461249845     
  0.777622296564806       0.887583280764982       0.966589761145762     
   1.01177590430902        1.02969560777613        1.02815866891540     
   1.01141678312002       0.981553921220444       0.413151136580297     
  0.624065326550774       0.777009891818614       0.893695413202112     
  0.981073875143626        1.04160176209450        1.07842474410645     
   1.09562550351511        1.09602627658008        1.08071656512347     
  0.449117298560684       0.672781348204088       0.834513701248239     
  0.959827141168629        1.05759175806857        1.13208126309298     
   1.18597534018814        1.22113916580683        1.23850245794716     
   1.23771108710479       0.523394004955951       0.778913910112367     
  0.962360013749520        1.10532250656497        1.21923283774726     
   1.30961576008003        1.37950855518508        1.43051369680952     
   1.46293510353453        1.47519594796420       0.631964526919685     
  0.936104214407897        1.15285111660374        1.32181861522262     
   1.45754704128006        1.56708288464389        1.65427812294661     
   1.72111047492786        1.76783258694609        1.79203970181139     
  0.769137814753356        1.13569426232130        1.39528159844864     
   1.59721365708784        1.75982629811030        1.89203352747748     
   1.99864799294333        2.08210687993830        2.14277889466022     
   2.17776324236877       0.928859082111221        1.36865347169180     
   1.67861124079228        1.91903879592554        2.11251478143360     
   2.27008714528259        2.39775479691399        2.49859716513285     
   2.57320841614229        2.61827824210032        1.10598593498848     
   1.62712592758704        1.99294784499854        2.27583329124324     
   2.50299701204372        2.68782675128384        2.83765909790481     
   2.95635033480063        3.04483622069622        3.09950120388738     
   1.29634685046065        1.90471389472731        2.33019170203007     
   2.65812596607179        2.92071779352250        3.13388717115731     
   3.30643145502151        3.44307414184475        3.54518044304782     
   3.60894392997398        1.49712524518566        2.19699921106748     
   2.68461407775910        3.05904536105204        3.35780139677948     
   3.59952414866367        3.79460865218835        3.94875596030043     
   4.06386039989303        4.13605166406766        1.70874752544940     
   2.50400853885113        3.05553778132833        3.47705736202379     
   3.81180051111215        4.08139801082487        4.29804371755061     
   4.46858036887653        4.59557605154617        4.67526196524883     
   1.93848615918608        2.83478142340816        3.45222065359687     
   3.92097109811204        4.29082837453694        4.58690434797276     
   4.82351504181686        5.00887883938742        5.14642310016344     
   5.23265870543819        2.19826259383733        3.20388309913741     
   3.88957432252742        4.40530698543874        4.80893661969574     
   5.12984079282080        5.38487848623770        5.58388343111025     
   5.73130343974761        5.82402337750212        2.47569205211091     
   3.59221650312116        4.34363334643816        4.90248734616896     
   5.33588251739852        5.67801623513654        5.94855116646423     
   6.15908843321094        6.31524877567927        6.41447182228705     
   2.70759357333701        3.90981466270353        4.70724349272389     
   5.29278752967768        5.74194058503780        6.09324618886941     
   6.36893975846323        6.58232928897099        6.74033586468871     
   6.84160120843898        2.81529658906061        4.04337499600349     
   4.84391405055158        5.42233647602358        5.85972168452135     
   6.19762095630687        6.45995632893748        6.66102662563264     
   6.80857171886860        6.90279527998399        2.76590678879859     
   3.94159980843043        4.68975791549529        5.21944496647996     
   5.61351830419857        5.91413023931269        6.14517586340088     
   6.32066804510776        6.44816868277846        6.52875716494170     
   2.56282778930441        3.60378231551553        4.24361391394639     
   4.68660863657820        5.01180063960839        5.25795195432367     
   5.44641217630791        5.58958407637835        5.69434250259115     
   5.76188176581184        2.20828117562101        3.03462268952316     
   3.52327032108266        3.85686407671447        4.10071722705075     
   4.28532277673020        4.42723612279915        4.53652589228130     
   4.62046488277825        4.68522417022654        1.68632787738102     
   2.24373795936322        2.56894886835251        2.79154196366728     
   2.95493086222775        3.07912895289619        3.17503745522256     
   3.24935453391312        3.30708411795307        3.35519209670820     
   1.02473995504189        1.33685536607364        1.52066601130220     
   1.64718404752958        1.74037582543174        1.81136637606224     
   1.86620533871398        1.90845589984681        1.94015831078328     
   1.96084066464685     
  0.000000000000000E+000  0.000000000000000E+000  0.000000000000000E+000
  0.000000000000000E+000  0.000000000000000E+000  0.000000000000000E+000
  0.000000000000000E+000  0.000000000000000E+000  0.000000000000000E+000
  0.000000000000000E+000  0.000000000000000E+000  0.000000000000000E+000
  0.000000000000000E+000  0.000000000000000E+000  0.000000000000000E+000
  0.000000000000000E+000  0.000000000000000E+000  0.000000000000000E+000
  0.000000000000000E+000  0.000000000000000E+000  0.000000000000000E+000
  0.000000000000000E+000  0.000000000000000E+000  0.000000000000000E+000
  0.000000000000000E+000  0.000000000000000E+000  0.000000000000000E+000
  0.000000000000000E+000  0.000000000000000E+000  0.000000000000000E+000
  0.000000000000000E+000  0.000000000000000E+000  0.000000000000000E+000
  0.000000000000000E+000  0.000000000000000E+000  0.000000000000000E+000
  0.000000000000000E+000  0.000000000000000E+000  0.000000000000000E+000
  0.000000000000000E+000  0.000000000000000E+000  0.000000000000000E+000
  0.000000000000000E+000  0.000000000000000E+000  0.000000000000000E+000
  0.000000000000000E+000  0.000000000000000E+000  0.000000000000000E+000
  0.000000000000000E+000  0.000000000000000E+000  0.000000000000000E+000
  0.000000000000000E+000  0.000000000000000E+000  0.000000000000000E+000
  0.000000000000000E+000  0.000000000000000E+000  0.000000000000000E+000
  0.000000000000000E+000  0.000000000000000E+000  0.000000000000000E+000
  0.000000000000000E+000  0.000000000000000E+000  0.000000000000000E+000
  0.000000000000000E+000  0.000000000000000E+000  0.000000000000000E+000
  0.000000000000000E+000  0.000000000000000E+000  0.000000000000000E+000
  0.000000000000000E+000  0.000000000000000E+000  0.000000000000000E+000
  0.000000000000000E+000  0.000000000000000E+000  0.000000000000000E+000
  0.000000000000000E+000  0.000000000000000E+000  0.000000000000000E+000
  0.000000000000000E+000  0.000000000000000E+000  0.000000000000000E+000
  0.000000000000000E+000  0.000000000000000E+000  0.000000000000000E+000
  0.000000000000000E+000  0.000000000000000E+000  0.000000000000000E+000
  0.000000000000000E+000  0.000000000000000E+000  0.000000000000000E+000
  0.000000000000000E+000  0.000000000000000E+000  0.000000000000000E+000
  0.000000000000000E+000  0.000000000000000E+000  0.000000000000000E+000
  0.000000000000000E+000  0.000000000000000E+000  0.000000000000000E+000
  0.000000000000000E+000  0.000000000000000E+000  0.000000000000000E+000
  0.000000000000000E+000  0.000000000000000E+000  0.000000000000000E+000
  0.000000000000000E+000  0.000000000000000E+000  0.000000000000000E+000
  0.000000000000000E+000  0.000000000000000E+000  0.000000000000000E+000
  0.000000000000000E+000  0.000000000000000E+000  0.000000000000000E+000
  0.000000000000000E+000  0.000000000000000E+000  0.000000000000000E+000