 Title = "Wing and Wake"
 VARIABLES = "X" "Y" "Z" "GAM" "skew"
 Zone I=   11 J=   26 K=1  T="Blade"
 DATAPACKING=BLOCK
 VARLOCATION=([4]=CELLCENTERED,[5]=CELLCENTERED)
 -0.243074390803101      -0.236654005836386      -0.230233620869671     
 -0.223813235902955      -0.217392850936240      -0.210972465969525     
 -0.204552081002810      -0.198131696036095      -0.191711311069380     
 -0.185290926102664      -0.178870541135949      -0.246599663810980     
 -0.240179278844265      -0.233758893877550      -0.227338508910835     
 -0.220918123944119      -0.214497738977404      -0.208077354010689     
 -0.201656969043974      -0.195236584077259      -0.188816199110544     
 -0.182395814143828      -0.257119887173386      -0.250699502206672     
 -0.244279117239956      -0.237858732273241      -0.231438347306526     
 -0.225017962339811      -0.218597577373096      -0.212177192406381     
 -0.205756807439665      -0.199336422472950      -0.192916037506235     
 -0.274469150683419      -0.268048765716704      -0.261628380749989     
 -0.255207995783274      -0.248787610816559      -0.242367225849843     
 -0.235946840883128      -0.229526455916413      -0.223106070949698     
 -0.216685685982983      -0.210265301016267      -0.298373846091576     
 -0.291953461124861      -0.285533076158146      -0.279112691191431     
 -0.272692306224715      -0.266271921258001      -0.259851536291285     
 -0.253431151324570      -0.247010766357855      -0.240590381391140     
 -0.234169996424425      -0.328456982071299      -0.322036597104584     
 -0.315616212137868      -0.309195827171153      -0.302775442204439     
 -0.296355057237723      -0.289934672271008      -0.283514287304293     
 -0.277093902337578      -0.270673517370862      -0.264253132404147     
 -0.364244129597392      -0.357823744630677      -0.351403359663962     
 -0.344982974697247      -0.338562589730532      -0.332142204763817     
 -0.325721819797101      -0.319301434830386      -0.312881049863671     
 -0.306460664896956      -0.300040279930240      -0.405170903975164     
 -0.398750519008449      -0.392330134041734      -0.385909749075018     
 -0.379489364108303      -0.373068979141589      -0.366648594174874     
 -0.360228209208158      -0.353807824241443      -0.347387439274728     
 -0.340967054308013      -0.450591865524208      -0.444171480557492     
 -0.437751095590777      -0.431330710624062      -0.424910325657347     
 -0.418489940690632      -0.412069555723916      -0.405649170757202     
 -0.399228785790486      -0.392808400823771      -0.386388015857056     
 -0.499790698547726      -0.493370313581011      -0.486949928614296     
 -0.480529543647581      -0.474109158680866      -0.467688773714150     
 -0.461268388747435      -0.454848003780720      -0.448427618814005     
 -0.442007233847290      -0.435586848880575      -0.551991508058981     
 -0.545571123092267      -0.539150738125551      -0.532730353158836     
 -0.526309968192121      -0.519889583225406      -0.513469198258690     
 -0.507048813291975      -0.500628428325260      -0.494208043358545     
 -0.487787658391830      -0.606371056108728      -0.599950671142013     
 -0.593530286175298      -0.587109901208582      -0.580689516241868     
 -0.574269131275152      -0.567848746308438      -0.561428361341722     
 -0.555007976375007      -0.548587591408292      -0.542167206441577     
 -0.662071744739456      -0.655651359772740      -0.649230974806024     
 -0.642810589839309      -0.636390204872595      -0.629969819905880     
 -0.623549434939163      -0.617129049972449      -0.610708665005734     
 -0.604288280039019      -0.597867895072304      -0.718215140817477     
 -0.711794755850762      -0.705374370884046      -0.698953985917330     
 -0.692533600950616      -0.686113215983900      -0.679692831017187     
 -0.673272446050470      -0.666852061083756      -0.660431676117041     
 -0.654011291150325      -0.773915829448203      -0.767495444481488     
 -0.761075059514773      -0.754654674548058      -0.748234289581343     
 -0.741813904614628      -0.735393519647912      -0.728973134681197     
 -0.722552749714482      -0.716132364747767      -0.709711979781053     
 -0.828295377497951      -0.821874992531234      -0.815454607564520     
 -0.809034222597805      -0.802613837631089      -0.796193452664375     
 -0.789773067697659      -0.783352682730944      -0.776932297764229     
 -0.770511912797513      -0.764091527830799      -0.880496187009206     
 -0.874075802042490      -0.867655417075775      -0.861235032109061     
 -0.854814647142344      -0.848394262175630      -0.841973877208914     
 -0.835553492242200      -0.829133107275484      -0.822712722308770     
 -0.816292337342054      -0.929695020032725      -0.923274635066008     
 -0.916854250099294      -0.910433865132578      -0.904013480165863     
 -0.897593095199149      -0.891172710232433      -0.884752325265718     
 -0.878331940299003      -0.871911555332288      -0.865491170365572     
 -0.975115981581767      -0.968695596615052      -0.962275211648337     
 -0.955854826681621      -0.949434441714907      -0.943014056748192     
 -0.936593671781476      -0.930173286814761      -0.923752901848046     
 -0.917332516881331      -0.910912131914616       -1.01604275595954     
  -1.00962237099282       -1.00320198602611      -0.996781601059394     
 -0.990361216092679      -0.983940831125963      -0.977520446159248     
 -0.971100061192534      -0.964679676225818      -0.958259291259103     
 -0.951838906292387       -1.05182990348563       -1.04540951851892     
  -1.03898913355220       -1.03256874858549       -1.02614836361877     
  -1.01972797865206       -1.01330759368534       -1.00688720871863     
  -1.00046682375191      -0.994046438785195      -0.987626053818481     
  -1.08191303946536       -1.07549265449864       -1.06907226953192     
  -1.06265188456521       -1.05623149959850       -1.04981111463178     
  -1.04339072966506       -1.03697034469835       -1.03054995973163     
  -1.02412957476492       -1.01770918979820       -1.10581773487351     
  -1.09939734990680       -1.09297696494008       -1.08655657997337     
  -1.08013619500665       -1.07371581003994       -1.06729542507322     
  -1.06087504010651       -1.05445465513979       -1.04803427017308     
  -1.04161388520636       -1.12316699838355       -1.11674661341683     
  -1.11032622845011       -1.10390584348340       -1.09748545851668     
  -1.09106507354997       -1.08464468858325       -1.07822430361654     
  -1.07180391864982       -1.06538353368311       -1.05896314871639     
  -1.13368722174595       -1.12726683677924       -1.12084645181252     
  -1.11442606684581       -1.10800568187909       -1.10158529691238     
  -1.09516491194566       -1.08874452697895       -1.08232414201223     
  -1.07590375704551       -1.06948337207880       -1.13721249475383     
  -1.13079210978711       -1.12437172482040       -1.11795133985369     
  -1.11153095488697       -1.10511056992025       -1.09869018495354     
  -1.09226979998682       -1.08584941502011       -1.07942903005339     
  -1.07300864508668     
 -0.109275475791315      -9.178279526201229E-002 -7.429011473270948E-002
 -5.679743420340672E-002 -3.930475367410373E-002 -2.181207314480111E-002
 -4.319392615498303E-003  1.317328791380451E-002  3.066596844310713E-002
  4.815864897241001E-002  6.565132950171289E-002 -0.107981585481855     
 -9.048890495255163E-002 -7.299622442324888E-002 -5.550354389394621E-002
 -3.801086336464340E-002 -2.051818283534064E-002 -3.025502306037914E-003
  1.446717822326490E-002  3.195985875256770E-002  4.945253928187056E-002
  6.694521981117331E-002 -0.104120319976586      -8.662763944728326E-002
 -6.913495891798031E-002 -5.164227838867744E-002 -3.414959785937480E-002
 -1.665691733007202E-002  8.357631992309108E-004  1.832844372853354E-002
  3.582112425783628E-002  5.331380478713917E-002  7.080648531644190E-002
 -9.775257373913539E-002 -8.025989320983243E-002 -6.276721268052966E-002
 -4.527453215122710E-002 -2.778185162192429E-002 -1.028917109262139E-002
  7.203509436681385E-003  2.469618996598409E-002  4.218887049528692E-002
  5.968155102458975E-002  7.717423155389228E-002 -8.897876993157482E-002
 -7.148608940227209E-002 -5.399340887296904E-002 -3.650072834366641E-002
 -1.900804781436364E-002 -1.515367285060796E-003  1.597731324424202E-002
  3.346999377354467E-002  5.096267430284745E-002  6.845535483215012E-002
  8.594803536145300E-002 -7.793727668116575E-002 -6.044459615186282E-002
 -4.295191562256009E-002 -2.545923509325732E-002 -7.966554563954559E-003
  9.526125965348542E-003  2.701880649465088E-002  4.451148702395372E-002
  6.200416755325687E-002  7.949684808255952E-002  9.698952861186219E-002
 -6.480222493233527E-002 -4.730954440303267E-002 -2.981686387373007E-002
 -1.232418334442709E-002  5.168497184875920E-003  2.266117771417849E-002
  4.015385824348105E-002  5.764653877278395E-002  7.513921930208652E-002
  9.263189983138938E-002  0.110124580360692      -4.978076229766275E-002
 -3.228808176835981E-002 -1.479540123905694E-002  2.697279290245652E-003
  2.018995981954824E-002  3.768264034885112E-002  5.517532087815412E-002
  7.266800140745674E-002  9.016068193675957E-002  0.107653362466062     
  0.125146042995365      -3.310978621628283E-002 -1.561710568697999E-002
  1.875574842322757E-003  1.936825537162506E-002  3.686093590092816E-002
  5.435361643023095E-002  7.184629695953383E-002  8.933897748883643E-002
  0.106831658018140       0.124324338547442       0.141817019076745     
 -1.505220793975804E-002  2.440472589544549E-003  1.993315311884753E-002
  3.742583364815046E-002  5.491851417745335E-002  7.241119470675549E-002
  8.990387523605838E-002  0.107396555765362       0.124889236294664     
  0.142381916823967       0.159874597353270       4.107193735416944E-003
  2.159987426471979E-002  3.909255479402229E-002  5.658523532332514E-002
  7.407791585262785E-002  9.157059638193096E-002  0.109063276911233     
  0.126555957440537       0.144048637969839       0.161541318499142     
  0.179033999028445       2.406626359955277E-002  4.155894412885513E-002
  5.905162465815835E-002  7.654430518746082E-002  9.403698571676358E-002
  0.111529666246066       0.129022346775369       0.146515027304672     
  0.164007707833975       0.181500388363277       0.198993068892580     
  4.451023519792102E-002  6.200291572722361E-002  7.949559625652662E-002
  9.698827678582900E-002  0.114480957315132       0.131973637844434     
  0.149466318373738       0.166958998903040       0.184451679432343     
  0.201944359961646       0.219437040490949       6.511669488577930E-002
  8.260937541508238E-002  0.100102055944384       0.117594736473688     
  0.135087417002991       0.152580097532294       0.170072778061597     
  0.187565458590898       0.205058139120202       0.222550819649505     
  0.240043500178807       8.556066648414808E-002  0.103053347013451     
  0.120546027542754       0.138038708072056       0.155531388601360     
  0.173024069130662       0.190516749659964       0.208009430189268     
  0.225502110718570       0.242994791247873       0.260487471777176     
  0.105519736348284       0.123012416877586       0.140505097406889     
  0.157997777936191       0.175490458465494       0.192983138994798     
  0.210475819524099       0.227968500053403       0.245461180582705     
  0.262953861112008       0.280446541641311       0.124679138023459     
  0.142171818552761       0.159664499082064       0.177157179611367     
  0.194649860140669       0.212142540669972       0.229635221199275     
  0.247127901728578       0.264620582257881       0.282113262787184     
  0.299605943316486       0.142736716299983       0.160229396829286     
  0.177722077358589       0.195214757887891       0.212707438417194     
  0.230200118946497       0.247692799475800       0.265185480005103     
  0.282678160534405       0.300170841063709       0.317663521593011     
  0.159407692381364       0.176900372910666       0.194393053439969     
  0.211885733969271       0.229378414498574       0.246871095027877     
  0.264363775557179       0.281856456086482       0.299349136615785     
  0.316841817145088       0.334334497674390       0.174429155016036     
  0.191921835545339       0.209414516074641       0.226907196603945     
  0.244399877133246       0.261892557662550       0.279385238191851     
  0.296877918721156       0.314370599250458       0.331863279779761     
  0.349355960309063       0.187564206764866       0.205056887294169     
  0.222549567823471       0.240042248352774       0.257534928882077     
  0.275027609411379       0.292520289940683       0.310012970469986     
  0.327505650999288       0.344998331528591       0.362491012057894     
  0.198605700015275       0.216098380544577       0.233591061073881     
  0.251083741603184       0.268576422132485       0.286069102661789     
  0.303561783191092       0.321054463720394       0.338547144249697     
  0.356039824779000       0.373532505308304       0.207379503822836     
  0.224872184352138       0.242364864881441       0.259857545410744     
  0.277350225940047       0.294842906469350       0.312335586998652     
  0.329828267527955       0.347320948057258       0.364813628586560     
  0.382306309115864       0.213747250060287       0.231239930589588     
  0.248732611118892       0.266225291648195       0.283717972177497     
  0.301210652706801       0.318703333236102       0.336196013765406     
  0.353688694294708       0.371181374824012       0.388674055353314     
  0.217608515565555       0.235101196094857       0.252593876624159     
  0.270086557153463       0.287579237682766       0.305071918212069     
  0.322564598741372       0.340057279270675       0.357549959799977     
  0.375042640329279       0.392535320858582       0.218902405875015     
  0.236395086404318       0.253887766933620       0.271380447462924     
  0.288873127992226       0.306365808521529       0.323858489050833     
  0.341351169580134       0.358843850109437       0.376336530638740     
  0.393829211168044     
  3.960717710078315E-002  3.564645939070483E-002  3.168574168062652E-002
  2.772502397054821E-002  2.376430626046989E-002  1.980358855039158E-002
  1.584287084031326E-002  1.188215313023495E-002  7.921435420156629E-003
  3.960717710078312E-003  0.000000000000000E+000  3.960717710078315E-002
  3.564645939070483E-002  3.168574168062652E-002  2.772502397054821E-002
  2.376430626046989E-002  1.980358855039158E-002  1.584287084031326E-002
  1.188215313023495E-002  7.921435420156629E-003  3.960717710078312E-003
  0.000000000000000E+000  3.960717710078315E-002  3.564645939070483E-002
  3.168574168062652E-002  2.772502397054821E-002  2.376430626046989E-002
  1.980358855039158E-002  1.584287084031326E-002  1.188215313023495E-002
  7.921435420156629E-003  3.960717710078312E-003  0.000000000000000E+000
  3.960717710078315E-002  3.564645939070483E-002  3.168574168062652E-002
  2.772502397054821E-002  2.376430626046989E-002  1.980358855039158E-002
  1.584287084031326E-002  1.188215313023495E-002  7.921435420156629E-003
  3.960717710078312E-003  0.000000000000000E+000  3.960717710078315E-002
  3.564645939070483E-002  3.168574168062652E-002  2.772502397054821E-002
  2.376430626046989E-002  1.980358855039158E-002  1.584287084031326E-002
  1.188215313023495E-002  7.921435420156629E-003  3.960717710078312E-003
  0.000000000000000E+000  3.960717710078315E-002  3.564645939070483E-002
  3.168574168062652E-002  2.772502397054821E-002  2.376430626046989E-002
  1.980358855039158E-002  1.584287084031326E-002  1.188215313023495E-002
  7.921435420156629E-003  3.960717710078312E-003  0.000000000000000E+000
  3.960717710078315E-002  3.564645939070483E-002  3.168574168062652E-002
  2.772502397054821E-002  2.376430626046989E-002  1.980358855039158E-002
  1.584287084031326E-002  1.188215313023495E-002  7.921435420156629E-003
  3.960717710078312E-003  0.000000000000000E+000  3.960717710078315E-002
  3.564645939070483E-002  3.168574168062652E-002  2.772502397054821E-002
  2.376430626046989E-002  1.980358855039158E-002  1.584287084031326E-002
  1.188215313023495E-002  7.921435420156629E-003  3.960717710078312E-003
  0.000000000000000E+000  3.960717710078315E-002  3.564645939070483E-002
  3.168574168062652E-002  2.772502397054821E-002  2.376430626046989E-002
  1.980358855039158E-002  1.584287084031326E-002  1.188215313023495E-002
  7.921435420156629E-003  3.960717710078312E-003  0.000000000000000E+000
  3.960717710078315E-002  3.564645939070483E-002  3.168574168062652E-002
  2.772502397054821E-002  2.376430626046989E-002  1.980358855039158E-002
  1.584287084031326E-002  1.188215313023495E-002  7.921435420156629E-003
  3.960717710078312E-003  0.000000000000000E+000  3.960717710078315E-002
  3.564645939070483E-002  3.168574168062652E-002  2.772502397054821E-002
  2.376430626046989E-002  1.980358855039158E-002  1.584287084031326E-002
  1.188215313023495E-002  7.921435420156629E-003  3.960717710078312E-003
  0.000000000000000E+000  3.960717710078315E-002  3.564645939070483E-002
  3.168574168062652E-002  2.772502397054821E-002  2.376430626046989E-002
  1.980358855039158E-002  1.584287084031326E-002  1.188215313023495E-002
  7.921435420156629E-003  3.960717710078312E-003  0.000000000000000E+000
  3.960717710078315E-002  3.564645939070483E-002  3.168574168062652E-002
  2.772502397054821E-002  2.376430626046989E-002  1.980358855039158E-002
  1.584287084031326E-002  1.188215313023495E-002  7.921435420156629E-003
  3.960717710078312E-003  0.000000000000000E+000  3.960717710078315E-002
  3.564645939070483E-002  3.168574168062652E-002  2.772502397054821E-002
  2.376430626046989E-002  1.980358855039158E-002  1.584287084031326E-002
  1.188215313023495E-002  7.921435420156629E-003  3.960717710078312E-003
  0.000000000000000E+000  3.960717710078315E-002  3.564645939070483E-002
  3.168574168062652E-002  2.772502397054821E-002  2.376430626046989E-002
  1.980358855039158E-002  1.584287084031326E-002  1.188215313023495E-002
  7.921435420156629E-003  3.960717710078312E-003  0.000000000000000E+000
  3.960717710078315E-002  3.564645939070483E-002  3.168574168062652E-002
  2.772502397054821E-002  2.376430626046989E-002  1.980358855039158E-002
  1.584287084031326E-002  1.188215313023495E-002  7.921435420156629E-003
  3.960717710078312E-003  0.000000000000000E+000  3.960717710078315E-002
  3.564645939070483E-002  3.168574168062652E-002  2.772502397054821E-002
  2.376430626046989E-002  1.980358855039158E-002  1.584287084031326E-002
  1.188215313023495E-002  7.921435420156629E-003  3.960717710078312E-003
  0.000000000000000E+000  3.960717710078315E-002  3.564645939070483E-002
  3.168574168062652E-002  2.772502397054821E-002  2.376430626046989E-002
  1.980358855039158E-002  1.584287084031326E-002  1.188215313023495E-002
  7.921435420156629E-003  3.960717710078312E-003  0.000000000000000E+000
  3.960717710078315E-002  3.564645939070483E-002  3.168574168062652E-002
  2.772502397054821E-002  2.376430626046989E-002  1.980358855039158E-002
  1.584287084031326E-002  1.188215313023495E-002  7.921435420156629E-003
  3.960717710078312E-003  0.000000000000000E+000  3.960717710078315E-002
  3.564645939070483E-002  3.168574168062652E-002  2.772502397054821E-002
  2.376430626046989E-002  1.980358855039158E-002  1.584287084031326E-002
  1.188215313023495E-002  7.921435420156629E-003  3.960717710078312E-003
  0.000000000000000E+000  3.960717710078315E-002  3.564645939070483E-002
  3.168574168062652E-002  2.772502397054821E-002  2.376430626046989E-002
  1.980358855039158E-002  1.584287084031326E-002  1.188215313023495E-002
  7.921435420156629E-003  3.960717710078312E-003  0.000000000000000E+000
  3.960717710078315E-002  3.564645939070483E-002  3.168574168062652E-002
  2.772502397054821E-002  2.376430626046989E-002  1.980358855039158E-002
  1.584287084031326E-002  1.188215313023495E-002  7.921435420156629E-003
  3.960717710078312E-003  0.000000000000000E+000  3.960717710078315E-002
  3.564645939070483E-002  3.168574168062652E-002  2.772502397054821E-002
  2.376430626046989E-002  1.980358855039158E-002  1.584287084031326E-002
  1.188215313023495E-002  7.921435420156629E-003  3.960717710078312E-003
  0.000000000000000E+000  3.960717710078315E-002  3.564645939070483E-002
  3.168574168062652E-002  2.772502397054821E-002  2.376430626046989E-002
  1.980358855039158E-002  1.584287084031326E-002  1.188215313023495E-002
  7.921435420156629E-003  3.960717710078312E-003  0.000000000000000E+000
  3.960717710078315E-002  3.564645939070483E-002  3.168574168062652E-002
  2.772502397054821E-002  2.376430626046989E-002  1.980358855039158E-002
  1.584287084031326E-002  1.188215313023495E-002  7.921435420156629E-003
  3.960717710078312E-003  0.000000000000000E+000  3.960717710078315E-002
  3.564645939070483E-002  3.168574168062652E-002  2.772502397054821E-002
  2.376430626046989E-002  1.980358855039158E-002  1.584287084031326E-002
  1.188215313023495E-002  7.921435420156629E-003  3.960717710078312E-003
  0.000000000000000E+000
  0.137358114649407       0.195197540640732       0.238775388649383     
  0.275515645436302       0.307359958148804       0.334713330069074     
  0.357469920319128       0.375425885730604       0.388490285539406     
  0.396379421958450       0.228100492691523       0.328983497238478     
  0.403863447623384       0.466410746671225       0.520357098855648     
  0.566649062355277       0.605329745379601       0.636236708516165     
  0.659496410109858       0.676057622192361       0.305547760105883     
  0.450875539759817       0.557657779046796       0.645482723974680     
  0.720484716216698       0.784706550318725       0.838821521197192     
  0.883038209027999       0.917713257777877       0.943126042464333     
  0.367923232451599       0.550459993605931       0.685538748069314     
  0.795784996280538       0.889195724348564       0.968866548147086     
   1.03613782633246        1.09150716125789        1.13495969112267     
   1.16466876512687       0.422919834259271       0.636070874427583     
  0.794732602915803       0.924236940498036        1.03364197158322     
   1.12675619455078        1.20530431008596        1.27014224964881     
   1.32092118132647        1.35475785829811       0.478065874866896     
  0.719569647895472       0.899538216027244        1.04630072906175     
   1.16996116045318        1.27502943280711        1.36361706305661     
   1.43653073888005        1.49329306896466        1.53071520378866     
  0.541366300992831       0.813220245027798        1.01497426553958     
   1.17888307209093        1.31646180784990        1.43297661858989     
   1.53100895421978        1.61155719606206        1.67406940528464     
   1.71502935342686       0.621164068408457       0.929598209844868     
   1.15653702571041        1.33963738239758        1.49247652588663     
   1.62136917366387        1.72946143086299        1.81800890384299     
   1.88652011865744        1.93130279116106       0.723891178911993     
   1.07853389986750        1.33664450498035        1.54305365735684     
   1.71409872986201        1.85747223580674        1.97709244852812     
   2.07467251458689        2.14993921365043        2.19903064598700     
  0.851762055049786        1.26375377677781        1.56032813514915     
   1.79526196426921        1.98835564709779        2.14907777038281     
   2.28237963318189        2.39057832861276        2.47366954053292     
   2.52761849451424        1.00307585364108        1.48310287056799     
   1.82532376857697        2.09408305110726        2.31328745703885     
   2.49449630011160        2.64386850017822        2.76443428548727     
   2.85652468012534        2.91596714363322        1.17428022308207     
   1.73153718614227        2.12569753926050        2.43298368044944     
   2.68190671220227        2.88638425257346        3.05394401238223     
   3.18842899794054        3.29058304643341        3.35613994366553     
   1.36155279173530        2.00337019294730        2.45439094809680     
   2.80379494535974        3.08512456483907        3.31487852293318     
   3.50209345920057        3.65153849764491        3.76446015693252     
   3.83654745030708        1.56161580996368        2.29345383767674     
   2.80472454646883        3.19848993420404        3.51369761147227     
   3.76964762162392        3.97705058877653        4.14172565725778     
   4.26551251734642        4.34414329040897        1.77297735357841     
   2.59889459784728        3.17234496378021        3.61124144820591     
   3.96037720139126        4.24213037888432        4.46908109447913     
   4.64824790474221        4.78220041156546        4.86687023397613     
   1.99674091377312        2.91994359507171        3.55606747916759     
   4.03924507583411        4.42075626136003        4.72643418001529     
   4.97098542033774        5.16283039882482        5.30544802384463     
   5.39517161181714        2.23139640507464        3.25270796844088     
   3.94946606207072        4.47370565996758        4.88398694243344     
   5.21004272542220        5.46897055615706        5.67077049714249     
   5.81998919709243        5.91356063809653        2.45618377078998     
   3.56649778678061        4.31497602628422        4.87193544901803     
   5.30349354908777        5.64344299962218        5.91134438621862     
   6.11881030953790        6.27152491555242        6.36724181453862     
   2.62385697914435        3.79332539021967        4.57097059002796     
   5.14233312304327        5.58001335350819        5.92132499086120     
   6.18795115371956        6.39288718828564        6.54287791808987     
   6.63684823039896        2.68601848797323        3.86207768895567     
   4.63065078009490        5.18640741800321        5.60616997044542     
   5.92951804025906        6.17938238743623        6.36948400309042     
   6.50720902654478        6.59287273652706        2.62012011400731     
   3.73656928991793        4.44821924502958        4.95230280476642     
   5.32694295143911        5.61195121973894        5.82996676709931     
   5.99428836168493        6.11207678736209        6.18445100566872     
   2.42228372696387        3.40728678875857        4.01315821665209     
   4.43258617764602        4.74006754557988        4.97214527745331     
   5.14896841264071        5.28225393226032        5.37849950685674     
   5.43894620054826        2.08650964042392        2.86741574029009     
   3.32917566815669        3.64419064998348        3.87405526850697     
   4.04751420046997        4.18017824346032        4.28154610012996     
   4.35848483938445        4.41691965180812        1.59366407621427     
   2.12014933001120        2.42715762286391        2.63706472923321     
   2.79082248358518        2.90729620730389        2.99676139190412     
   3.06553402648767        3.11833804470185        3.16181117159226     
  0.968571129346024        1.26331110454606        1.43677110946439     
   1.55601985119641        1.64366508552380        1.71019319198460     
   1.76130601988516        1.80036359650359        1.82929478496328     
   1.84770170655105     
  0.000000000000000E+000  0.000000000000000E+000  0.000000000000000E+000
  0.000000000000000E+000  0.000000000000000E+000  0.000000000000000E+000
  0.000000000000000E+000  0.000000000000000E+000  0.000000000000000E+000
  0.000000000000000E+000  0.000000000000000E+000  0.000000000000000E+000
  0.000000000000000E+000  0.000000000000000E+000  0.000000000000000E+000
  0.000000000000000E+000  0.000000000000000E+000  0.000000000000000E+000
  0.000000000000000E+000  0.000000000000000E+000  0.000000000000000E+000
  0.000000000000000E+000  0.000000000000000E+000  0.000000000000000E+000
  0.000000000000000E+000  0.000000000000000E+000  0.000000000000000E+000
  0.000000000000000E+000  0.000000000000000E+000  0.000000000000000E+000
  0.000000000000000E+000  0.000000000000000E+000  0.000000000000000E+000
  0.000000000000000E+000  0.000000000000000E+000  0.000000000000000E+000
  0.000000000000000E+000  0.000000000000000E+000  0.000000000000000E+000
  0.000000000000000E+000  0.000000000000000E+000  0.000000000000000E+000
  0.000000000000000E+000  0.000000000000000E+000  0.000000000000000E+000
  0.000000000000000E+000  0.000000000000000E+000  0.000000000000000E+000
  0.000000000000000E+000  0.000000000000000E+000  0.000000000000000E+000
  0.000000000000000E+000  0.000000000000000E+000  0.000000000000000E+000
  0.000000000000000E+000  0.000000000000000E+000  0.000000000000000E+000
  0.000000000000000E+000  0.000000000000000E+000  0.000000000000000E+000
  0.000000000000000E+000  0.000000000000000E+000  0.000000000000000E+000
  0.000000000000000E+000  0.000000000000000E+000  0.000000000000000E+000
  0.000000000000000E+000  0.000000000000000E+000  0.000000000000000E+000
  0.000000000000000E+000  0.000000000000000E+000  0.000000000000000E+000
  0.000000000000000E+000  0.000000000000000E+000  0.000000000000000E+000
  0.000000000000000E+000  0.000000000000000E+000  0.000000000000000E+000
  0.000000000000000E+000  0.000000000000000E+000  0.000000000000000E+000
  0.000000000000000E+000  0.000000000000000E+000  0.000000000000000E+000
  0.000000000000000E+000  0.000000000000000E+000  0.000000000000000E+000
  0.000000000000000E+000  0.000000000000000E+000  0.000000000000000E+000
  0.000000000000000E+000  0.000000000000000E+000  0.000000000000000E+000
  0.000000000000000E+000  0.000000000000000E+000  0.000000000000000E+000
  0.000000000000000E+000  0.000000000000000E+000  0.000000000000000E+000
  0.000000000000000E+000  0.000000000000000E+000  0.000000000000000E+000
  0.000000000000000E+000  0.000000000000000E+000  0.000000000000000E+000
  0.000000000000000E+000  0.000000000000000E+000  0.000000000000000E+000
  0.000000000000000E+000  0.000000000000000E+000  0.000000000000000E+000
  0.000000000000000E+000  0.000000000000000E+000  0.000000000000000E+000
  0.000000000000000E+000  0.000000000000000E+000  0.000000000000000E+000