 Title = "Wing and Wake"
 VARIABLES = "X" "Y" "Z" "GAM" "skew"
 Zone I=   11 J=   26 K=1  T="Blade"
 DATAPACKING=BLOCK
 VARLOCATION=([4]=CELLCENTERED,[5]=CELLCENTERED)
  9.454925814051354E-002  0.102382683534646       0.110216108928779     
  0.118049534322912       0.125882959717045       0.133716385111177     
  0.141549810505310       0.149383235899443       0.157216661293575     
  0.165050086687708       0.172883512081841       9.795653568760976E-002
  0.105789961081743       0.113623386475875       0.121456811870008     
  0.129290237264141       0.137123662658274       0.144957088052406     
  0.152790513446539       0.160623938840672       0.168457364234805     
  0.176290789628937       0.108124633526571       0.115958058920704     
  0.123791484314837       0.131624909708969       0.139458335103102     
  0.147291760497235       0.155125185891368       0.162958611285501     
  0.170792036679633       0.178625462073766       0.186458887467899     
  0.124893194680350       0.132726620074483       0.140560045468616     
  0.148393470862749       0.156226896256882       0.164060321651014     
  0.171893747045147       0.179727172439280       0.187560597833413     
  0.195394023227545       0.203227448621677       0.147997768922499     
  0.155831194316632       0.163664619710765       0.171498045104898     
  0.179331470499030       0.187164895893163       0.194998321287296     
  0.202831746681428       0.210665172075561       0.218498597469694     
  0.226332022863827       0.177073983315215       0.184907408709348     
  0.192740834103481       0.200574259497614       0.208407684891746     
  0.216241110285880       0.224074535680012       0.231907961074145     
  0.239741386468278       0.247574811862410       0.255408237256543     
  0.211663288588237       0.219496713982371       0.227330139376503     
  0.235163564770636       0.242996990164768       0.250830415558902     
  0.258663840953034       0.266497266347166       0.274330691741299     
  0.282164117135431       0.289997542529564       0.251220190734760     
  0.259053616128892       0.266887041523026       0.274720466917159     
  0.282553892311291       0.290387317705424       0.298220743099557     
  0.306054168493690       0.313887593887822       0.321721019281955     
  0.329554444676088       0.295120853777785       0.302954279171919     
  0.310787704566051       0.318621129960184       0.326454555354317     
  0.334287980748449       0.342121406142581       0.349954831536715     
  0.357788256930848       0.365621682324981       0.373455107719113     
  0.342672938036139       0.350506363430272       0.358339788824405     
  0.366173214218538       0.374006639612670       0.381840065006802     
  0.389673490400936       0.397506915795069       0.405340341189201     
  0.413173766583333       0.421007191977466       0.393126518734830     
  0.400959944128963       0.408793369523095       0.416626794917228     
  0.424460220311360       0.432293645705494       0.440127071099625     
  0.447960496493759       0.455793921887890       0.463627347282024     
  0.471460772676156       0.445685912766729       0.453519338160861     
  0.461352763554996       0.469186188949126       0.477019614343260     
  0.484853039737393       0.492686465131526       0.500519890525658     
  0.508353315919791       0.516186741313923       0.524020166708056     
  0.499522227090496       0.507355652484628       0.515189077878761     
  0.523022503272893       0.530855928667026       0.538689354061158     
  0.546522779455292       0.554356204849425       0.562189630243558     
  0.570023055637690       0.577856481031822       0.553786430868988     
  0.561619856263120       0.569453281657252       0.577286707051384     
  0.585120132445517       0.592953557839651       0.600786983233784     
  0.608620408627915       0.616453834022051       0.624287259416181     
  0.632120684810314       0.607622745192752       0.615456170586885     
  0.623289595981019       0.631123021375150       0.638956446769284     
  0.646789872163417       0.654623297557548       0.662456722951682     
  0.670290148345813       0.678123573739946       0.685956999134081     
  0.660182139224652       0.668015564618785       0.675848990012918     
  0.683682415407050       0.691515840801184       0.699349266195316     
  0.707182691589448       0.715016116983581       0.722849542377714     
  0.730682967771845       0.738516393165981       0.710635719923343     
  0.718469145317474       0.726302570711608       0.734135996105741     
  0.741969421499873       0.749802846894007       0.757636272288139     
  0.765469697682273       0.773303123076405       0.781136548470539     
  0.788969973864671       0.758187804181696       0.766021229575829     
  0.773854654969962       0.781688080364095       0.789521505758227     
  0.797354931152361       0.805188356546493       0.813021781940625     
  0.820855207334758       0.828688632728890       0.836522058123023     
  0.802088467224721       0.809921892618853       0.817755318012986     
  0.825588743407119       0.833422168801252       0.841255594195385     
  0.849089019589515       0.856922444983649       0.864755870377783     
  0.872589295771916       0.880422721166048       0.841645369371245     
  0.849478794765376       0.857312220159509       0.865145645553643     
  0.872979070947775       0.880812496341907       0.888645921736040     
  0.896479347130174       0.904312772524306       0.912146197918440     
  0.919979623312570       0.876234674644267       0.884068100038400     
  0.891901525432530       0.899734950826661       0.907568376220797     
  0.915401801614929       0.923235227009064       0.931068652403195     
  0.938902077797327       0.946735503191461       0.954568928585592     
  0.905310889036980       0.913144314431114       0.920977739825249     
  0.928811165219380       0.936644590613513       0.944478016007648     
  0.952311441401779       0.960144866795911       0.967978292190044     
  0.975811717584178       0.983645142978312       0.928415463279132     
  0.936248888673262       0.944082314067395       0.951915739461530     
  0.959749164855664       0.967582590249795       0.975416015643928     
  0.983249441038062       0.991082866432193       0.998916291826326     
   1.00674971722046       0.945184024432910       0.953017449827043     
  0.960850875221175       0.968684300615308       0.976517726009442     
  0.984351151403574       0.992184576797709        1.00001800219184     
   1.00785142758597        1.01568485298011        1.02351827837424     
  0.955352122271870       0.963185547666002       0.971018973060137     
  0.978852398454267       0.986685823848401       0.994519249242536     
   1.00235267463667        1.01018610003080        1.01801952542493     
   1.02585295081907        1.03368637621320       0.958759399818966     
  0.966592825213101       0.974426250607232       0.982259676001365     
  0.990093101395500       0.997926526789631        1.00575995218377     
   1.01359337757790        1.02142680297203        1.02926022836616     
   1.03709365376030     
  0.249172082823887       0.232264905004523       0.215357727185158     
  0.198450549365793       0.181543371546429       0.164636193727063     
  0.147729015907699       0.130821838088334       0.113914660268969     
  9.700748244960411E-002  8.010030463023961E-002  0.250750740997797     
  0.233843563178432       0.216936385359067       0.200029207539703     
  0.183122029720337       0.166214851900973       0.149307674081608     
  0.132400496262243       0.115493318442879       9.858614062351399E-002
  8.167896280414905E-002  0.255461819137078       0.238554641317713     
  0.221647463498348       0.204740285678984       0.187833107859619     
  0.170925930040254       0.154018752220889       0.137111574401525     
  0.120204396582160       0.103297218762795       8.639004094342997E-002
  0.263231020725213       0.246323842905848       0.229416665086483     
  0.212509487267118       0.195602309447753       0.178695131628388     
  0.161787953809024       0.144880775989659       0.127973598170294     
  0.111066420350929       9.415924253156456E-002  0.273935820812059     
  0.257028642992695       0.240121465173330       0.223214287353965     
  0.206307109534600       0.189399931715236       0.172492753895871     
  0.155585576076506       0.138678398257141       0.121771220437777     
  0.104864042618412       0.287407398305512       0.270500220486147     
  0.253593042666782       0.236685864847417       0.219778687028053     
  0.202871509208688       0.185964331389323       0.169057153569958     
  0.152149975750593       0.135242797931229       0.118335620111864     
  0.303433298380967       0.286526120561603       0.269618942742238     
  0.252711764922873       0.235804587103508       0.218897409284144     
  0.201990231464779       0.185083053645414       0.168175875826049     
  0.151268698006684       0.134361520187319       0.321760783020828     
  0.304853605201462       0.287946427382098       0.271039249562734     
  0.254132071743368       0.237224893924004       0.220317716104639     
  0.203410538285275       0.186503360465909       0.169596182646545     
  0.152689004827180       0.342100816844014       0.325193639024649     
  0.308286461205284       0.291379283385920       0.274472105566555     
  0.257564927747190       0.240657749927824       0.223750572108460     
  0.206843394289096       0.189936216469730       0.173029038650366     
  0.364132625366586       0.347225447547221       0.330318269727857     
  0.313411091908492       0.296503914089127       0.279596736269762     
  0.262689558450397       0.245782380631033       0.228875202811668     
  0.211968024992303       0.195060847172938       0.387508753806980     
  0.370601575987615       0.353694398168250       0.336787220348886     
  0.319880042529521       0.302972864710156       0.286065686890791     
  0.269158509071425       0.252251331252061       0.235344153432696     
  0.218436975613331       0.411860546655467       0.394953368836102     
  0.378046191016738       0.361139013197371       0.344231835378008     
  0.327324657558644       0.310417479739279       0.293510301919913     
  0.276603124100548       0.259695946281184       0.242788768461819     
  0.436803961591772       0.419896783772407       0.402989605953042     
  0.386082428133677       0.369175250314313       0.352268072494948     
  0.335360894675582       0.318453716856218       0.301546539036854     
  0.284639361217489       0.267732183398124       0.461945626061875     
  0.445038448242509       0.428131270423145       0.411224092603780     
  0.394316914784415       0.377409736965050       0.360502559145684     
  0.343595381326321       0.326688203506957       0.309781025687591     
  0.292873847868226       0.486889040998178       0.469981863178814     
  0.453074685359449       0.436167507540084       0.419260329720719     
  0.402353151901356       0.385445974081990       0.368538796262624     
  0.351631618443260       0.334724440623895       0.317817262804531     
  0.511240833846667       0.494333656027300       0.477426478207936     
  0.460519300388573       0.443612122569208       0.426704944749842     
  0.409797766930477       0.392890589111113       0.375983411291748     
  0.359076233472382       0.342169055653019       0.534616962287059     
  0.517709784467695       0.500802606648330       0.483895428828966     
  0.466988251009600       0.450081073190236       0.433173895370870     
  0.416266717551507       0.399359539732141       0.382452361912776     
  0.365545184093413       0.556648770809632       0.539741592990267     
  0.522834415170902       0.505927237351538       0.489020059532173     
  0.472112881712808       0.455205703893443       0.438298526074078     
  0.421391348254713       0.404484170435348       0.387576992615984     
  0.576988804632817       0.560081626813452       0.543174448994087     
  0.526267271174724       0.509360093355358       0.492452915535994     
  0.475545737716629       0.458638559897264       0.441731382077901     
  0.424824204258534       0.407917026439169       0.595316289272679     
  0.578409111453312       0.561501933633948       0.544594755814583     
  0.527687577995220       0.510780400175852       0.493873222356491     
  0.476966044537125       0.460058866717759       0.443151688898395     
  0.426244511079031       0.611342189348133       0.594435011528770     
  0.577527833709403       0.560620655890037       0.543713478070674     
  0.526806300251310       0.509899122431945       0.492991944612580     
  0.476084766793216       0.459177588973850       0.442270411154485     
  0.624813766841586       0.607906589022222       0.590999411202855     
  0.574092233383491       0.557185055564128       0.540277877744763     
  0.523370699925396       0.506463522106033       0.489556344286669     
  0.472649166467302       0.455741988647938       0.635518566928433     
  0.618611389109068       0.601704211289702       0.584797033470339     
  0.567889855650975       0.550982677831609       0.534075500012245     
  0.517168322192880       0.500261144373515       0.483353966554151     
  0.466446788734784       0.643287768516568       0.626380590697204     
  0.609473412877838       0.592566235058474       0.575659057239109     
  0.558751879419742       0.541844701600379       0.524937523781013     
  0.508030345961649       0.491123168142283       0.474215990322919     
  0.647998846655848       0.631091668836484       0.614184491017121     
  0.597277313197753       0.580370135378390       0.563462957559023     
  0.546555779739658       0.529648601920295       0.512741424100931     
  0.495834246281565       0.478927068462200       0.649577504829758     
  0.632670327010392       0.615763149191029       0.598855971371663     
  0.581948793552299       0.565041615732934       0.548134437913570     
  0.531227260094204       0.514320082274839       0.497412904455474     
  0.480505726636110     
  3.960717710078315E-002  3.564645939070483E-002  3.168574168062652E-002
  2.772502397054821E-002  2.376430626046989E-002  1.980358855039158E-002
  1.584287084031326E-002  1.188215313023495E-002  7.921435420156629E-003
  3.960717710078312E-003  0.000000000000000E+000  3.960717710078315E-002
  3.564645939070483E-002  3.168574168062652E-002  2.772502397054821E-002
  2.376430626046989E-002  1.980358855039158E-002  1.584287084031326E-002
  1.188215313023495E-002  7.921435420156629E-003  3.960717710078312E-003
  0.000000000000000E+000  3.960717710078315E-002  3.564645939070483E-002
  3.168574168062652E-002  2.772502397054821E-002  2.376430626046989E-002
  1.980358855039158E-002  1.584287084031326E-002  1.188215313023495E-002
  7.921435420156629E-003  3.960717710078312E-003  0.000000000000000E+000
  3.960717710078315E-002  3.564645939070483E-002  3.168574168062652E-002
  2.772502397054821E-002  2.376430626046989E-002  1.980358855039158E-002
  1.584287084031326E-002  1.188215313023495E-002  7.921435420156629E-003
  3.960717710078312E-003  0.000000000000000E+000  3.960717710078315E-002
  3.564645939070483E-002  3.168574168062652E-002  2.772502397054821E-002
  2.376430626046989E-002  1.980358855039158E-002  1.584287084031326E-002
  1.188215313023495E-002  7.921435420156629E-003  3.960717710078312E-003
  0.000000000000000E+000  3.960717710078315E-002  3.564645939070483E-002
  3.168574168062652E-002  2.772502397054821E-002  2.376430626046989E-002
  1.980358855039158E-002  1.584287084031326E-002  1.188215313023495E-002
  7.921435420156629E-003  3.960717710078312E-003  0.000000000000000E+000
  3.960717710078315E-002  3.564645939070483E-002  3.168574168062652E-002
  2.772502397054821E-002  2.376430626046989E-002  1.980358855039158E-002
  1.584287084031326E-002  1.188215313023495E-002  7.921435420156629E-003
  3.960717710078312E-003  0.000000000000000E+000  3.960717710078315E-002
  3.564645939070483E-002  3.168574168062652E-002  2.772502397054821E-002
  2.376430626046989E-002  1.980358855039158E-002  1.584287084031326E-002
  1.188215313023495E-002  7.921435420156629E-003  3.960717710078312E-003
  0.000000000000000E+000  3.960717710078315E-002  3.564645939070483E-002
  3.168574168062652E-002  2.772502397054821E-002  2.376430626046989E-002
  1.980358855039158E-002  1.584287084031326E-002  1.188215313023495E-002
  7.921435420156629E-003  3.960717710078312E-003  0.000000000000000E+000
  3.960717710078315E-002  3.564645939070483E-002  3.168574168062652E-002
  2.772502397054821E-002  2.376430626046989E-002  1.980358855039158E-002
  1.584287084031326E-002  1.188215313023495E-002  7.921435420156629E-003
  3.960717710078312E-003  0.000000000000000E+000  3.960717710078315E-002
  3.564645939070483E-002  3.168574168062652E-002  2.772502397054821E-002
  2.376430626046989E-002  1.980358855039158E-002  1.584287084031326E-002
  1.188215313023495E-002  7.921435420156629E-003  3.960717710078312E-003
  0.000000000000000E+000  3.960717710078315E-002  3.564645939070483E-002
  3.168574168062652E-002  2.772502397054821E-002  2.376430626046989E-002
  1.980358855039158E-002  1.584287084031326E-002  1.188215313023495E-002
  7.921435420156629E-003  3.960717710078312E-003  0.000000000000000E+000
  3.960717710078315E-002  3.564645939070483E-002  3.168574168062652E-002
  2.772502397054821E-002  2.376430626046989E-002  1.980358855039158E-002
  1.584287084031326E-002  1.188215313023495E-002  7.921435420156629E-003
  3.960717710078312E-003  0.000000000000000E+000  3.960717710078315E-002
  3.564645939070483E-002  3.168574168062652E-002  2.772502397054821E-002
  2.376430626046989E-002  1.980358855039158E-002  1.584287084031326E-002
  1.188215313023495E-002  7.921435420156629E-003  3.960717710078312E-003
  0.000000000000000E+000  3.960717710078315E-002  3.564645939070483E-002
  3.168574168062652E-002  2.772502397054821E-002  2.376430626046989E-002
  1.980358855039158E-002  1.584287084031326E-002  1.188215313023495E-002
  7.921435420156629E-003  3.960717710078312E-003  0.000000000000000E+000
  3.960717710078315E-002  3.564645939070483E-002  3.168574168062652E-002
  2.772502397054821E-002  2.376430626046989E-002  1.980358855039158E-002
  1.584287084031326E-002  1.188215313023495E-002  7.921435420156629E-003
  3.960717710078312E-003  0.000000000000000E+000  3.960717710078315E-002
  3.564645939070483E-002  3.168574168062652E-002  2.772502397054821E-002
  2.376430626046989E-002  1.980358855039158E-002  1.584287084031326E-002
  1.188215313023495E-002  7.921435420156629E-003  3.960717710078312E-003
  0.000000000000000E+000  3.960717710078315E-002  3.564645939070483E-002
  3.168574168062652E-002  2.772502397054821E-002  2.376430626046989E-002
  1.980358855039158E-002  1.584287084031326E-002  1.188215313023495E-002
  7.921435420156629E-003  3.960717710078312E-003  0.000000000000000E+000
  3.960717710078315E-002  3.564645939070483E-002  3.168574168062652E-002
  2.772502397054821E-002  2.376430626046989E-002  1.980358855039158E-002
  1.584287084031326E-002  1.188215313023495E-002  7.921435420156629E-003
  3.960717710078312E-003  0.000000000000000E+000  3.960717710078315E-002
  3.564645939070483E-002  3.168574168062652E-002  2.772502397054821E-002
  2.376430626046989E-002  1.980358855039158E-002  1.584287084031326E-002
  1.188215313023495E-002  7.921435420156629E-003  3.960717710078312E-003
  0.000000000000000E+000  3.960717710078315E-002  3.564645939070483E-002
  3.168574168062652E-002  2.772502397054821E-002  2.376430626046989E-002
  1.980358855039158E-002  1.584287084031326E-002  1.188215313023495E-002
  7.921435420156629E-003  3.960717710078312E-003  0.000000000000000E+000
  3.960717710078315E-002  3.564645939070483E-002  3.168574168062652E-002
  2.772502397054821E-002  2.376430626046989E-002  1.980358855039158E-002
  1.584287084031326E-002  1.188215313023495E-002  7.921435420156629E-003
  3.960717710078312E-003  0.000000000000000E+000  3.960717710078315E-002
  3.564645939070483E-002  3.168574168062652E-002  2.772502397054821E-002
  2.376430626046989E-002  1.980358855039158E-002  1.584287084031326E-002
  1.188215313023495E-002  7.921435420156629E-003  3.960717710078312E-003
  0.000000000000000E+000  3.960717710078315E-002  3.564645939070483E-002
  3.168574168062652E-002  2.772502397054821E-002  2.376430626046989E-002
  1.980358855039158E-002  1.584287084031326E-002  1.188215313023495E-002
  7.921435420156629E-003  3.960717710078312E-003  0.000000000000000E+000
  3.960717710078315E-002  3.564645939070483E-002  3.168574168062652E-002
  2.772502397054821E-002  2.376430626046989E-002  1.980358855039158E-002
  1.584287084031326E-002  1.188215313023495E-002  7.921435420156629E-003
  3.960717710078312E-003  0.000000000000000E+000  3.960717710078315E-002
  3.564645939070483E-002  3.168574168062652E-002  2.772502397054821E-002
  2.376430626046989E-002  1.980358855039158E-002  1.584287084031326E-002
  1.188215313023495E-002  7.921435420156629E-003  3.960717710078312E-003
  0.000000000000000E+000
  0.177893917823187       0.258090993041919       0.319639208857908     
  0.370045809494687       0.411286027785444       0.444524426186742     
  0.470852528633781       0.491572686238842       0.507820651520631     
  0.518767073058570       0.289552258413114       0.426882023410438     
  0.531244745945309       0.616451508287825       0.686210606010964     
  0.742636809524335       0.787721603323677       0.823787372884158     
  0.853272033160858       0.877371122010517       0.365417895990737     
  0.553523158208831       0.696399368510599       0.812675827492295     
  0.908106941261002       0.986047596700615        1.04954952635287     
   1.10209909790102        1.14777213621640        1.18959057051533     
  0.393973630297337       0.609372228198104       0.776228257474512     
  0.912635511830703        1.02531719950262        1.11863680760339     
   1.19615058661562        1.26141538571075        1.31787514526340     
   1.36491041018026       0.383743884676364       0.601143425986619     
  0.772907545920817       0.914198890712798        1.03244630669377     
   1.13171088686157        1.21456787084096        1.28308613124242     
   1.33863807163897        1.37862378165600       0.368206443147765     
  0.573572988864924       0.733629218789628       0.865878772862978     
  0.977907896520711        1.07207820205576        1.14968933395187     
   1.21199744945112        1.25926888190888        1.28839796049964     
  0.377731679627095       0.577724843449519       0.729633475643681     
  0.853305011048509       0.956166695316261        1.04176781824480     
   1.11181680833334        1.16692054737966        1.20646296202604     
   1.22780807940953       0.431824650092579       0.649701271267438     
  0.810463045604993       0.938974976778175        1.04415326562861     
   1.13022461947087        1.19932647886324        1.25225850695272     
   1.28857380285682        1.30639816395096       0.539788856910072     
  0.802763932416828       0.992042675236360        1.14077355607271     
   1.26100715984011        1.35846782896483        1.43613421281569     
   1.49538247395838        1.53625914549688        1.55720645909728     
  0.686960878221533        1.01526323332295        1.24814173846063     
   1.42930259776206        1.57488874291963        1.69268637726016     
   1.78685238810712        1.85945978988138        1.91088235702710     
   1.93925689968409       0.859403717894802        1.26609708396568     
   1.55235996262422        1.77386815244593        1.95138836993066     
   2.09503038605230        2.21025427116091        2.29986132005436     
   2.36450327807666        2.40188727805308        1.04808245938874     
   1.54126394743183        1.88678522940283        2.15320757914417     
   2.36624768371099        2.53850954766176        2.67686873442865     
   2.78493900036932        2.86372578877140        2.91059989390352     
   1.24728234436216        1.83189858658581        2.24004977614426     
   2.55382292078523        2.80412061047931        3.00616996421131     
   3.16835875559239        3.29520534942884        3.38817241760929     
   3.44443723089457        1.45410076314611        2.13338542337587     
   2.60608343877859        2.96832800691693        3.25642111450613     
   3.48834075939452        3.67408415851623        3.81916281075327     
   3.92559816930892        3.99055163423366        1.67034232045204     
   2.44774321758384        2.98659333697902        3.39783889718271     
   3.72352900323244        3.98460165653414        4.19280316056013     
   4.35474140144734        4.47310191026003        4.54525909015087     
   1.90728704707121        2.78966728417355        3.39754232245319     
   3.85864860215712        4.22168339037512        4.51105002535991     
   4.74052888342958        4.91796163299622        5.04674000697427     
   5.12453054017995        2.18292412053962        3.18213285285539     
   3.86377242384009        4.37648791152065        4.77744375212378     
   5.09547766370686        5.34692760726930        5.54110127784886     
   5.68206438379340        5.76730034210613        2.48378352492404     
   3.60496034320938        4.36071430180424        4.92403793615650     
   5.36211330605735        5.70908648788703        5.98440432914060     
   6.19918966680904        6.35827476061401        6.45816243594767     
   2.73137323907277        3.94753795912849        4.75768423437930     
   5.35626873731632        5.81963925341406        6.18705041630133     
   6.48112502158755        6.71492231483221        6.89398552635917     
   7.01308211349444        2.84566458722396        4.09303564851787     
   4.91233473820379        5.51122968193181        5.97233424113223     
   6.33872538460460        6.63566553048548        6.87801946832658     
   7.07190916185459        7.20944868668687        2.79899201556932     
   3.99557611438491        4.76448020142380        5.31768874183907     
   5.74021158985693        6.07651977516064        6.35315471516627     
   6.58667361029767        6.78495979691951        6.93861832932295     
   2.59424390255416        3.65413974973435        4.31250238562160     
   4.77652940450212        5.12734924028426        5.40605930602086     
   5.63709006692604        5.83701696114301        6.01723884285431     
   6.17441006302448        2.23377348346028        3.07460450117179     
   3.57703193260116        3.92596082794305        4.18811312432517     
   4.39537659745926        4.56599695805513        4.71228973173673     
   4.84469138030548        4.97171132260708        1.70421197347691     
   2.27109342012387        2.60516475196411        2.83743199281945     
   3.01205422640226        3.14961172803549        3.26141323297858     
   3.35413984435244        3.43137414967419        3.49403137179118     
   1.03514980591512        1.35254330325341        1.54129093898105     
   1.67315843040518        1.77248410892323        1.85063387377637     
   1.91374732575891        1.96511037023202        2.00532964561391     
   2.02863996389913     
  0.000000000000000E+000  0.000000000000000E+000  0.000000000000000E+000
  0.000000000000000E+000  0.000000000000000E+000  0.000000000000000E+000
  0.000000000000000E+000  0.000000000000000E+000  0.000000000000000E+000
  0.000000000000000E+000  0.000000000000000E+000  0.000000000000000E+000
  0.000000000000000E+000  0.000000000000000E+000  0.000000000000000E+000
  0.000000000000000E+000  0.000000000000000E+000  0.000000000000000E+000
  0.000000000000000E+000  0.000000000000000E+000  0.000000000000000E+000
  0.000000000000000E+000  0.000000000000000E+000  0.000000000000000E+000
  0.000000000000000E+000  0.000000000000000E+000  0.000000000000000E+000
  0.000000000000000E+000  0.000000000000000E+000  0.000000000000000E+000
  0.000000000000000E+000  0.000000000000000E+000  0.000000000000000E+000
  0.000000000000000E+000  0.000000000000000E+000  0.000000000000000E+000
  0.000000000000000E+000  0.000000000000000E+000  0.000000000000000E+000
  0.000000000000000E+000  0.000000000000000E+000  0.000000000000000E+000
  0.000000000000000E+000  0.000000000000000E+000  0.000000000000000E+000
  0.000000000000000E+000  0.000000000000000E+000  0.000000000000000E+000
  0.000000000000000E+000  0.000000000000000E+000  0.000000000000000E+000
  0.000000000000000E+000  0.000000000000000E+000  0.000000000000000E+000
  0.000000000000000E+000  0.000000000000000E+000  0.000000000000000E+000
  0.000000000000000E+000  0.000000000000000E+000  0.000000000000000E+000
  0.000000000000000E+000  0.000000000000000E+000  0.000000000000000E+000
  0.000000000000000E+000  0.000000000000000E+000  0.000000000000000E+000
  0.000000000000000E+000  0.000000000000000E+000  0.000000000000000E+000
  0.000000000000000E+000  0.000000000000000E+000  0.000000000000000E+000
  0.000000000000000E+000  0.000000000000000E+000  0.000000000000000E+000
  0.000000000000000E+000  0.000000000000000E+000  0.000000000000000E+000
  0.000000000000000E+000  0.000000000000000E+000  0.000000000000000E+000
  0.000000000000000E+000  0.000000000000000E+000  0.000000000000000E+000
  0.000000000000000E+000  0.000000000000000E+000  0.000000000000000E+000
  0.000000000000000E+000  0.000000000000000E+000  0.000000000000000E+000
  0.000000000000000E+000  0.000000000000000E+000  0.000000000000000E+000
  0.000000000000000E+000  0.000000000000000E+000  0.000000000000000E+000
  0.000000000000000E+000  0.000000000000000E+000  0.000000000000000E+000
  0.000000000000000E+000  0.000000000000000E+000  0.000000000000000E+000
  0.000000000000000E+000  0.000000000000000E+000  0.000000000000000E+000
  0.000000000000000E+000  0.000000000000000E+000  0.000000000000000E+000
  0.000000000000000E+000  0.000000000000000E+000  0.000000000000000E+000
  0.000000000000000E+000  0.000000000000000E+000  0.000000000000000E+000
  0.000000000000000E+000  0.000000000000000E+000  0.000000000000000E+000