 Title = "Wing and Wake"
 VARIABLES = "X" "Y" "Z" "GAM" "skew"
 Zone I=   11 J=   26 K=1  T="Blade"
 DATAPACKING=BLOCK
 VARLOCATION=([4]=CELLCENTERED,[5]=CELLCENTERED)
  0.182743386721485       0.183506858015727       0.184270329309968     
  0.185033800604209       0.185797271898450       0.186560743192691     
  0.187324214486932       0.188087685781174       0.188851157075415     
  0.189614628369656       0.190378099663897       0.186495456636264     
  0.187258927930506       0.188022399224747       0.188785870518988     
  0.189549341813229       0.190312813107470       0.191076284401711     
  0.191839755695952       0.192603226990194       0.193366698284435     
  0.194130169578676       0.197692493996667       0.198455965290909     
  0.199219436585150       0.199982907879391       0.200746379173632     
  0.201509850467873       0.202273321762114       0.203036793056356     
  0.203800264350597       0.204563735644838       0.205327206939079     
  0.216157914834735       0.216921386128976       0.217684857423217     
  0.218448328717459       0.219211800011699       0.219975271305941     
  0.220738742600182       0.221502213894423       0.222265685188664     
  0.223029156482906       0.223792627777146       0.241600508433142     
  0.242363979727384       0.243127451021625       0.243890922315866     
  0.244654393610107       0.245417864904349       0.246181336198590     
  0.246944807492831       0.247708278787072       0.248471750081313     
  0.249235221375555       0.273619029892175       0.274382501186417     
  0.275145972480657       0.275909443774899       0.276672915069140     
  0.277436386363382       0.278199857657622       0.278963328951864     
  0.279726800246105       0.280490271540346       0.281253742834587     
  0.311708528001486       0.312471999295727       0.313235470589969     
  0.313998941884210       0.314762413178451       0.315525884472693     
  0.316289355766933       0.317052827061175       0.317816298355415     
  0.318579769649657       0.319343240943898       0.355268308622329     
  0.356031779916570       0.356795251210811       0.357558722505052     
  0.358322193799293       0.359085665093535       0.359849136387776     
  0.360612607682017       0.361376078976258       0.362139550270499     
  0.362903021564741       0.403611407992960       0.404374879287201     
  0.405138350581443       0.405901821875684       0.406665293169925     
  0.407428764464166       0.408192235758407       0.408955707052648     
  0.409719178346890       0.410482649641131       0.411246120935372     
  0.455975426557537       0.456738897851779       0.457502369146020     
  0.458265840440261       0.459029311734502       0.459792783028743     
  0.460556254322984       0.461319725617226       0.462083196911467     
  0.462846668205708       0.463610139499949       0.511534552462550     
  0.512298023756791       0.513061495051032       0.513824966345273     
  0.514588437639515       0.515351908933756       0.516115380227996     
  0.516878851522238       0.517642322816478       0.518405794110720     
  0.519169265404961       0.569412585103061       0.570176056397302     
  0.570939527691544       0.571702998985784       0.572466470280026     
  0.573229941574267       0.573993412868508       0.574756884162749     
  0.575520355456990       0.576283826751231       0.577047298045473     
  0.628696753329670       0.629460224623911       0.630223695918151     
  0.630987167212393       0.631750638506634       0.632514109800875     
  0.633277581095117       0.634041052389358       0.634804523683599     
  0.635567994977840       0.636331466272082       0.688452110394798     
  0.689215581689038       0.689979052983279       0.690742524277520     
  0.691505995571762       0.692269466866003       0.693032938160245     
  0.693796409454485       0.694559880748728       0.695323352042968     
  0.696086823337209       0.747736278621406       0.748499749915647     
  0.749263221209890       0.750026692504129       0.750790163798370     
  0.751553635092612       0.752317106386852       0.753080577681094     
  0.753844048975335       0.754607520269576       0.755370991563819     
  0.805614311261918       0.806377782556158       0.807141253850400     
  0.807904725144641       0.808668196438883       0.809431667733124     
  0.810195139027364       0.810958610321606       0.811722081615847     
  0.812485552910087       0.813249024204330       0.861173437166930     
  0.861936908461171       0.862700379755411       0.863463851049654     
  0.864227322343894       0.864990793638135       0.865754264932377     
  0.866517736226618       0.867281207520859       0.868044678815101     
  0.868808150109342       0.913537455731508       0.914300927025748     
  0.915064398319989       0.915827869614230       0.916591340908471     
  0.917354812202714       0.918118283496954       0.918881754791195     
  0.919645226085436       0.920408697379677       0.921172168673918     
  0.961880555102138       0.962644026396378       0.963407497690621     
  0.964170968984861       0.964934440279103       0.965697911573345     
  0.966461382867584       0.967224854161827       0.967988325456068     
  0.968751796750309       0.969515268044550        1.00544033572298     
   1.00620380701722        1.00696727831146        1.00773074960571     
   1.00849422089994        1.00925769219419        1.01002116348843     
   1.01078463478267        1.01154810607691        1.01231157737115     
   1.01307504866539        1.04352983383229        1.04429330512653     
   1.04505677642077        1.04582024771501        1.04658371900926     
   1.04734719030350        1.04811066159774        1.04887413289198     
   1.04963760418622        1.05040107548046        1.05116454677470     
   1.07554835529132        1.07631182658557        1.07707529787981     
   1.07783876917405        1.07860224046829        1.07936571176253     
   1.08012918305677        1.08089265435101        1.08165612564525     
   1.08241959693949        1.08318306823374        1.10099094888973     
   1.10175442018397        1.10251789147821        1.10328136277245     
   1.10404483406670        1.10480830536094        1.10557177665518     
   1.10633524794942        1.10709871924366        1.10786219053790     
   1.10862566183214        1.11945636972780        1.12021984102204     
   1.12098331231628        1.12174678361052        1.12251025490476     
   1.12327372619901        1.12403719749325        1.12480066878749     
   1.12556414008173        1.12632761137597        1.12709108267021     
   1.13065340708820        1.13141687838244        1.13218034967669     
   1.13294382097092        1.13370729226517        1.13447076355941     
   1.13523423485365        1.13599770614789        1.13676117744213     
   1.13752464873637        1.13828812003061        1.13440547700298     
   1.13516894829722        1.13593241959146        1.13669589088570     
   1.13745936217995        1.13822283347419        1.13898630476843     
   1.13974977606267        1.14051324735691        1.14127671865115     
   1.14204018994539     
  0.193987483316008       0.175369418787063       0.156751354258119     
  0.138133289729174       0.119515225200230       0.100897160671285     
  8.227909614234101E-002  6.366103161339653E-002  4.504296708445225E-002
  2.642490255550759E-002  7.806838026563184E-003  0.194141344511916     
  0.175523279982972       0.156905215454027       0.138287150925083     
  0.119669086396138       0.101051021867194       8.243295733824922E-002
  6.381489280930482E-002  4.519682828036039E-002  2.657876375141600E-002
  7.960699222471335E-003  0.194600501616669       0.175982437087725     
  0.157364372558780       0.138746308029835       0.120128243500891     
  0.101510178971947       8.289211444300200E-002  6.427404991405784E-002
  4.565598538511340E-002  2.703792085616875E-002  8.419856327224492E-003
  0.195357713448437       0.176739648919493       0.158121584390548     
  0.139503519861604       0.120885455332660       0.102267390803715     
  8.364932627477077E-002  6.503126174582642E-002  4.641319721688189E-002
  2.779513268793735E-002  9.177068158993230E-003  0.196401038324298     
  0.177782973795354       0.159164909266409       0.140546844737465     
  0.121928780208520       0.103310715679576       8.469265115063143E-002
  6.607458662168714E-002  4.745652209274273E-002  2.883845756379831E-002
  1.022039303485382E-002  0.197714022387707       0.179095957858762     
  0.160477893329818       0.141859828800873       0.123241764271929     
  0.104623699742984       8.600563521404014E-002  6.738757068509568E-002
  4.876950615615102E-002  3.015144162720648E-002  1.153337709826211E-002
  0.199275959095644       0.180657894566700       0.162039830037756     
  0.143421765508811       0.124803700979867       0.106185636450922     
  8.756757192197796E-002  6.894950739303363E-002  5.033144286408937E-002
  3.171337833514458E-002  1.309531380620027E-002  0.201062215773172     
  0.182444151244227       0.163826086715282       0.145208022186338     
  0.126589957657394       0.107971893128449       8.935382859950486E-002
  7.073576407056076E-002  5.211769954161589E-002  3.349963501267179E-002
  1.488157048372726E-002  0.203044622085425       0.184426557556480     
  0.165808493027536       0.147190428498592       0.128572363969648     
  0.109954299440703       9.133623491175850E-002  7.271817038281428E-002
  5.410010585386948E-002  3.548204132492531E-002  1.686397679598119E-002
  0.205191914300629       0.186573849771685       0.167955785242741     
  0.149337720713796       0.130719656184851       0.112101591655907     
  9.348352712696271E-002  7.486546259801827E-002  5.624739806907364E-002
  3.762933354012928E-002  1.901126901118491E-002  0.207470228337820     
  0.188852163808875       0.170234099279931       0.151616034750987     
  0.132997970222042       0.114379905693097       9.576184116415302E-002
  7.714377663520819E-002  5.852571210626407E-002  3.990764757731961E-002
  2.128958304837521E-002  0.209843633823630       0.191225569294686     
  0.172607504765742       0.153989440236797       0.135371375707853     
  0.116753311178909       9.813524664996448E-002  7.951718212101959E-002
  6.089911759207513E-002  4.228105306313108E-002  2.366298853418656E-002
  0.212274700735748       0.193656636206804       0.175038571677858     
  0.156420507148915       0.137802442619970       0.119184378091026     
  0.100566313562081       8.194824903313681E-002  6.333018450419294E-002
  4.471211997524841E-002  2.609405544630338E-002  0.214725089696719     
  0.196107025167773       0.177488960638830       0.158870896109885     
  0.140252831580941       0.121634767051996       0.103016702523051     
  8.439863799410778E-002  6.578057346516261E-002  4.716250893621809E-002
  2.854444440727377E-002  0.217156156608835       0.198538092079891     
  0.179920027550947       0.161301963022003       0.142683898493057     
  0.124065833964114       0.105447769435169       8.682970490622384E-002
  6.821164037727957E-002  4.959357584833565E-002  3.097551131939129E-002
  0.219529562094647       0.200911497565702       0.182293433036758     
  0.163675368507814       0.145057303978869       0.126439239449924     
  0.107821174920980       8.920311039203553E-002  7.058504586309165E-002
  5.196698133414671E-002  3.334891680520231E-002  0.221807876131837     
  0.203189811602893       0.184571747073948       0.165953682545004     
  0.147335618016059       0.128717553487115       0.110099488958170     
  9.148142442922617E-002  7.286335990028164E-002  5.424529537133704E-002
  3.562723084239294E-002  0.223955168347041       0.205337103818096     
  0.186719039289152       0.168100974760208       0.149482910231263     
  0.130864845702319       0.112246781173374       9.362871664442969E-002
  7.501065211548527E-002  5.639258758654071E-002  3.777452305759686E-002
  0.225937574659294       0.207319510130350       0.188701445601405     
  0.170083381072462       0.151465316543517       0.132847252014572     
  0.114229187485629       9.561112295668368E-002  7.699305842773913E-002
  5.837499389879446E-002  3.975692936985058E-002  0.227723831336822     
  0.209105766807877       0.190487702278933       0.171869637749988     
  0.153251573221045       0.134633508692098       0.116015444163156     
  9.739737963421101E-002  7.877931510526548E-002  6.016125057632112E-002
  4.154318604737745E-002  0.229285768044759       0.210667703515815     
  0.192049638986871       0.173431574457927       0.154813509928982     
  0.136195445400038       0.117577380871092       9.895931634214795E-002
  8.034125181320395E-002  6.172318728425927E-002  4.310512275531507E-002
  0.230598752108169       0.211980687579224       0.193362623050278     
  0.174744558521334       0.156126493992392       0.137508429463446     
  0.118890364934501       0.100272300405557       8.165423587661333E-002
  6.303617134766769E-002  4.441810681872260E-002  0.231642076984028     
  0.213024012455085       0.194405947926140       0.175787883397196     
  0.157169818868251       0.138551754339307       0.119933689810362     
  0.101315625281417       8.269756075247306E-002  6.407949622352947E-002
  4.546143169458368E-002  0.232399288815798       0.213781224286854     
  0.195163159757908       0.176545095228964       0.157927030700020     
  0.139308966171074       0.120690901642131       0.102072837113185     
  8.345477258424223E-002  6.483670805529645E-002  4.621864352635247E-002
  0.232858445920550       0.214240381391607       0.195622316862663     
  0.177004252333717       0.158386187804772       0.139768123275827     
  0.121150058746883       0.102531994217939       8.391392968899525E-002
  6.529586516005052E-002  4.667780063110599E-002  0.233012307116458     
  0.214394242587513       0.195776178058571       0.177158113529625     
  0.158540049000681       0.139921984471737       0.121303919942791     
  0.102685855413847       8.406779088490353E-002  6.544972635595846E-002
  4.683166182701365E-002
  3.960717710078315E-002  3.564645939070483E-002  3.168574168062652E-002
  2.772502397054821E-002  2.376430626046989E-002  1.980358855039158E-002
  1.584287084031326E-002  1.188215313023495E-002  7.921435420156629E-003
  3.960717710078312E-003  0.000000000000000E+000  3.960717710078315E-002
  3.564645939070483E-002  3.168574168062652E-002  2.772502397054821E-002
  2.376430626046989E-002  1.980358855039158E-002  1.584287084031326E-002
  1.188215313023495E-002  7.921435420156629E-003  3.960717710078312E-003
  0.000000000000000E+000  3.960717710078315E-002  3.564645939070483E-002
  3.168574168062652E-002  2.772502397054821E-002  2.376430626046989E-002
  1.980358855039158E-002  1.584287084031326E-002  1.188215313023495E-002
  7.921435420156629E-003  3.960717710078312E-003  0.000000000000000E+000
  3.960717710078315E-002  3.564645939070483E-002  3.168574168062652E-002
  2.772502397054821E-002  2.376430626046989E-002  1.980358855039158E-002
  1.584287084031326E-002  1.188215313023495E-002  7.921435420156629E-003
  3.960717710078312E-003  0.000000000000000E+000  3.960717710078315E-002
  3.564645939070483E-002  3.168574168062652E-002  2.772502397054821E-002
  2.376430626046989E-002  1.980358855039158E-002  1.584287084031326E-002
  1.188215313023495E-002  7.921435420156629E-003  3.960717710078312E-003
  0.000000000000000E+000  3.960717710078315E-002  3.564645939070483E-002
  3.168574168062652E-002  2.772502397054821E-002  2.376430626046989E-002
  1.980358855039158E-002  1.584287084031326E-002  1.188215313023495E-002
  7.921435420156629E-003  3.960717710078312E-003  0.000000000000000E+000
  3.960717710078315E-002  3.564645939070483E-002  3.168574168062652E-002
  2.772502397054821E-002  2.376430626046989E-002  1.980358855039158E-002
  1.584287084031326E-002  1.188215313023495E-002  7.921435420156629E-003
  3.960717710078312E-003  0.000000000000000E+000  3.960717710078315E-002
  3.564645939070483E-002  3.168574168062652E-002  2.772502397054821E-002
  2.376430626046989E-002  1.980358855039158E-002  1.584287084031326E-002
  1.188215313023495E-002  7.921435420156629E-003  3.960717710078312E-003
  0.000000000000000E+000  3.960717710078315E-002  3.564645939070483E-002
  3.168574168062652E-002  2.772502397054821E-002  2.376430626046989E-002
  1.980358855039158E-002  1.584287084031326E-002  1.188215313023495E-002
  7.921435420156629E-003  3.960717710078312E-003  0.000000000000000E+000
  3.960717710078315E-002  3.564645939070483E-002  3.168574168062652E-002
  2.772502397054821E-002  2.376430626046989E-002  1.980358855039158E-002
  1.584287084031326E-002  1.188215313023495E-002  7.921435420156629E-003
  3.960717710078312E-003  0.000000000000000E+000  3.960717710078315E-002
  3.564645939070483E-002  3.168574168062652E-002  2.772502397054821E-002
  2.376430626046989E-002  1.980358855039158E-002  1.584287084031326E-002
  1.188215313023495E-002  7.921435420156629E-003  3.960717710078312E-003
  0.000000000000000E+000  3.960717710078315E-002  3.564645939070483E-002
  3.168574168062652E-002  2.772502397054821E-002  2.376430626046989E-002
  1.980358855039158E-002  1.584287084031326E-002  1.188215313023495E-002
  7.921435420156629E-003  3.960717710078312E-003  0.000000000000000E+000
  3.960717710078315E-002  3.564645939070483E-002  3.168574168062652E-002
  2.772502397054821E-002  2.376430626046989E-002  1.980358855039158E-002
  1.584287084031326E-002  1.188215313023495E-002  7.921435420156629E-003
  3.960717710078312E-003  0.000000000000000E+000  3.960717710078315E-002
  3.564645939070483E-002  3.168574168062652E-002  2.772502397054821E-002
  2.376430626046989E-002  1.980358855039158E-002  1.584287084031326E-002
  1.188215313023495E-002  7.921435420156629E-003  3.960717710078312E-003
  0.000000000000000E+000  3.960717710078315E-002  3.564645939070483E-002
  3.168574168062652E-002  2.772502397054821E-002  2.376430626046989E-002
  1.980358855039158E-002  1.584287084031326E-002  1.188215313023495E-002
  7.921435420156629E-003  3.960717710078312E-003  0.000000000000000E+000
  3.960717710078315E-002  3.564645939070483E-002  3.168574168062652E-002
  2.772502397054821E-002  2.376430626046989E-002  1.980358855039158E-002
  1.584287084031326E-002  1.188215313023495E-002  7.921435420156629E-003
  3.960717710078312E-003  0.000000000000000E+000  3.960717710078315E-002
  3.564645939070483E-002  3.168574168062652E-002  2.772502397054821E-002
  2.376430626046989E-002  1.980358855039158E-002  1.584287084031326E-002
  1.188215313023495E-002  7.921435420156629E-003  3.960717710078312E-003
  0.000000000000000E+000  3.960717710078315E-002  3.564645939070483E-002
  3.168574168062652E-002  2.772502397054821E-002  2.376430626046989E-002
  1.980358855039158E-002  1.584287084031326E-002  1.188215313023495E-002
  7.921435420156629E-003  3.960717710078312E-003  0.000000000000000E+000
  3.960717710078315E-002  3.564645939070483E-002  3.168574168062652E-002
  2.772502397054821E-002  2.376430626046989E-002  1.980358855039158E-002
  1.584287084031326E-002  1.188215313023495E-002  7.921435420156629E-003
  3.960717710078312E-003  0.000000000000000E+000  3.960717710078315E-002
  3.564645939070483E-002  3.168574168062652E-002  2.772502397054821E-002
  2.376430626046989E-002  1.980358855039158E-002  1.584287084031326E-002
  1.188215313023495E-002  7.921435420156629E-003  3.960717710078312E-003
  0.000000000000000E+000  3.960717710078315E-002  3.564645939070483E-002
  3.168574168062652E-002  2.772502397054821E-002  2.376430626046989E-002
  1.980358855039158E-002  1.584287084031326E-002  1.188215313023495E-002
  7.921435420156629E-003  3.960717710078312E-003  0.000000000000000E+000
  3.960717710078315E-002  3.564645939070483E-002  3.168574168062652E-002
  2.772502397054821E-002  2.376430626046989E-002  1.980358855039158E-002
  1.584287084031326E-002  1.188215313023495E-002  7.921435420156629E-003
  3.960717710078312E-003  0.000000000000000E+000  3.960717710078315E-002
  3.564645939070483E-002  3.168574168062652E-002  2.772502397054821E-002
  2.376430626046989E-002  1.980358855039158E-002  1.584287084031326E-002
  1.188215313023495E-002  7.921435420156629E-003  3.960717710078312E-003
  0.000000000000000E+000  3.960717710078315E-002  3.564645939070483E-002
  3.168574168062652E-002  2.772502397054821E-002  2.376430626046989E-002
  1.980358855039158E-002  1.584287084031326E-002  1.188215313023495E-002
  7.921435420156629E-003  3.960717710078312E-003  0.000000000000000E+000
  3.960717710078315E-002  3.564645939070483E-002  3.168574168062652E-002
  2.772502397054821E-002  2.376430626046989E-002  1.980358855039158E-002
  1.584287084031326E-002  1.188215313023495E-002  7.921435420156629E-003
  3.960717710078312E-003  0.000000000000000E+000  3.960717710078315E-002
  3.564645939070483E-002  3.168574168062652E-002  2.772502397054821E-002
  2.376430626046989E-002  1.980358855039158E-002  1.584287084031326E-002
  1.188215313023495E-002  7.921435420156629E-003  3.960717710078312E-003
  0.000000000000000E+000
  1.352239926423729E-002  3.712532125551060E-002  6.453891207504486E-002
  9.586744530620385E-002  0.131906993873479       0.173763395106059     
  0.222612433047692       0.279214638443901       0.343016680721732     
  0.409203965756239       2.888450631154328E-002  6.969755524501058E-002
  0.116576687438941       0.169811743431570       0.230738455949755     
  0.301204704056457       0.383252800945497       0.478421231458682     
  0.586420757237404       0.701352550515993       6.022414838688864E-002
  0.121131280855449       0.188084851433209       0.262608702835881     
  0.346682198720280       0.442816628926902       0.553926454416266     
  0.682696710911246       0.829821977928215       0.986920393023247     
  0.110539993198071       0.196498777653026       0.284037348439783     
  0.377864651185038       0.481030913537153       0.596589263922539     
  0.727920053189543       0.878311558475513        1.04850050701356     
   1.22664813549782       0.180810824631517       0.298763701547056     
  0.409007982634414       0.521132406361675       0.639873808980181     
  0.768943429779102       0.911885587619915        1.07186312109233     
   1.24938793230578        1.43252096482775       0.271625693827398     
  0.429765167359431       0.566526930534213       0.697706745467929     
  0.830166516194659       0.968306869693085        1.11552337454280     
   1.27428266431570        1.44466335325366        1.61679125965375     
  0.383637305374924       0.591203773877597       0.759904035280162     
  0.913040492843465        1.06008672257499        1.20641800642414     
   1.35554398824633        1.50957756684085        1.66844483206374     
   1.82380742833798       0.517034827852278       0.783968119551696     
  0.991285678133197        1.17112665381603        1.33609113075489     
   1.49290996470128        1.64566369031846        1.79661646825652     
   1.94573018472140        2.08548757071481       0.670610544458193     
   1.00658345119123        1.25944349583789        1.47147778443597     
   1.65890016200085        1.83004266489196        1.98973467646737     
   2.14056929546521        2.28267096761682        2.40920324434858     
  0.840698882701419        1.25361083841091        1.55773721172924     
   1.80662231736995        2.02050604627161        2.20949963601897     
   2.37924520112299        2.53266032713766        2.66995151988746     
   2.78472436468674        1.02192501721867        1.51680136589341     
   1.87560425292433        2.16396390277276        2.40650986100294     
   2.61533977723469        2.79702319792119        2.95483191971987     
   3.08897393323714        3.19320747333924        1.20939535437695     
   1.78872654457076        2.20368164912567        2.53253926512591     
   2.80462127079621        3.03424339266234        3.22910591828706     
   3.39301504887025        3.52632814209985        3.62296978042559     
   1.40036498851726        2.06529036999419        2.53688972837645     
   2.90648579358967        3.20834328895376        3.45922103335922     
   3.66818101519549        3.83981769072640        3.97491150766940     
   4.06771669666972        1.59454162510371        2.34594940076600     
   2.87441383140664        3.28468733152908        3.61622081757172     
   3.88842917005448        4.11194187637875        4.29234853609819     
   4.43106692537187        4.52280231754687        1.79473313395143     
   2.63434619575189        3.22012221348332        3.67089092813892     
   4.03164584746868        4.32472467269656        4.56254760060634     
   4.75189255476202        4.89498782703726        4.98710852397232     
   2.00897350070903        2.94076341748912        3.58490719301167     
   4.07582078779466        4.46476527673615        4.77745103472756     
   5.02839902739281        5.22580061745300        5.37286576807508     
   5.46557007522621        2.24774610723588        3.27797975336453     
   3.98177218585868        4.51197738002842        4.92739673159713     
   5.25778419653549        5.52013117307111        5.72425419081849     
   5.87447043613453        5.96750848086895        2.49920525009496     
   3.62792712513932        4.38824798441659        4.95373478426988     
   5.39172159700782        5.73647451816034        6.00766929927262     
   6.21684771855385        6.36949904470475        6.46312923715624     
   2.70643666549655        3.90962638000871        4.70809010034073     
   5.29397194670142        5.74236180351167        6.09162858976218     
   6.36389672493817        6.57231129324851        6.72355823222804     
   6.81628683510733        2.79831354714755        4.02024449468809     
   4.81708012086293        5.39242453140286        5.82654747563246     
   6.16061282639709        6.41831497036985        6.61372651984925     
   6.75431210640570        6.84020152578556        2.74202744053443     
   3.90840725237731        4.65081664790345        5.17613511553967     
   5.56627803653274        5.86289672434829        6.08957481904610     
   6.26007000086082        6.38168152735016        6.45538428809624     
   2.53788411119222        3.56923407650554        4.20325251792276     
   4.64199522502012        4.96357770709025        5.20627808703807     
   5.39114346885212        5.53034024750693        5.63051466095443     
   5.69275793698850        2.18572227839715        3.00398443396044     
   3.48790501390110        3.81809897655014        4.05911606027013     
   4.24106642470874        4.38026788204889        4.48659795101680     
   4.56712606446838        4.62785891552423        1.66873986119022     
   2.22058946787657        2.54257992243327        2.76284764298843     
   2.92429669714580        3.04668751581618        3.14076305994671     
   3.21309429808852        3.26854990831843        3.31394301764672     
   1.01398320556176        1.32297257714767        1.50495172946706     
   1.63013841796935        1.72221671529954        1.79217039842456     
   1.84596088085178        1.88708304673308        1.91751377536452     
   1.93676185959993     
  0.000000000000000E+000  0.000000000000000E+000  0.000000000000000E+000
  0.000000000000000E+000  0.000000000000000E+000  0.000000000000000E+000
  0.000000000000000E+000  0.000000000000000E+000  0.000000000000000E+000
  0.000000000000000E+000  0.000000000000000E+000  0.000000000000000E+000
  0.000000000000000E+000  0.000000000000000E+000  0.000000000000000E+000
  0.000000000000000E+000  0.000000000000000E+000  0.000000000000000E+000
  0.000000000000000E+000  0.000000000000000E+000  0.000000000000000E+000
  0.000000000000000E+000  0.000000000000000E+000  0.000000000000000E+000
  0.000000000000000E+000  0.000000000000000E+000  0.000000000000000E+000
  0.000000000000000E+000  0.000000000000000E+000  0.000000000000000E+000
  0.000000000000000E+000  0.000000000000000E+000  0.000000000000000E+000
  0.000000000000000E+000  0.000000000000000E+000  0.000000000000000E+000
  0.000000000000000E+000  0.000000000000000E+000  0.000000000000000E+000
  0.000000000000000E+000  0.000000000000000E+000  0.000000000000000E+000
  0.000000000000000E+000  0.000000000000000E+000  0.000000000000000E+000
  0.000000000000000E+000  0.000000000000000E+000  0.000000000000000E+000
  0.000000000000000E+000  0.000000000000000E+000  0.000000000000000E+000
  0.000000000000000E+000  0.000000000000000E+000  0.000000000000000E+000
  0.000000000000000E+000  0.000000000000000E+000  0.000000000000000E+000
  0.000000000000000E+000  0.000000000000000E+000  0.000000000000000E+000
  0.000000000000000E+000  0.000000000000000E+000  0.000000000000000E+000
  0.000000000000000E+000  0.000000000000000E+000  0.000000000000000E+000
  0.000000000000000E+000  0.000000000000000E+000  0.000000000000000E+000
  0.000000000000000E+000  0.000000000000000E+000  0.000000000000000E+000
  0.000000000000000E+000  0.000000000000000E+000  0.000000000000000E+000
  0.000000000000000E+000  0.000000000000000E+000  0.000000000000000E+000
  0.000000000000000E+000  0.000000000000000E+000  0.000000000000000E+000
  0.000000000000000E+000  0.000000000000000E+000  0.000000000000000E+000
  0.000000000000000E+000  0.000000000000000E+000  0.000000000000000E+000
  0.000000000000000E+000  0.000000000000000E+000  0.000000000000000E+000
  0.000000000000000E+000  0.000000000000000E+000  0.000000000000000E+000
  0.000000000000000E+000  0.000000000000000E+000  0.000000000000000E+000
  0.000000000000000E+000  0.000000000000000E+000  0.000000000000000E+000
  0.000000000000000E+000  0.000000000000000E+000  0.000000000000000E+000
  0.000000000000000E+000  0.000000000000000E+000  0.000000000000000E+000
  0.000000000000000E+000  0.000000000000000E+000  0.000000000000000E+000
  0.000000000000000E+000  0.000000000000000E+000  0.000000000000000E+000
  0.000000000000000E+000  0.000000000000000E+000  0.000000000000000E+000
  0.000000000000000E+000  0.000000000000000E+000  0.000000000000000E+000