 Title = "Wing and Wake"
 VARIABLES = "X" "Y" "Z" "GAM" "skew"
 Zone I=   11 J=   26 K=1  T="Blade"
 DATAPACKING=BLOCK
 VARLOCATION=([4]=CELLCENTERED,[5]=CELLCENTERED)
 -0.168466688029715      -0.149908318756700      -0.131349949483686     
 -0.112791580210672      -9.423321093765701E-002 -7.567484166464276E-002
 -5.711647239162834E-002 -3.855810311861400E-002 -1.999973384559973E-002
 -1.441364572585236E-003  1.711700470042914E-002 -0.168129337260477     
 -0.149570967987463      -0.131012598714448      -0.112454229441434     
 -9.389586016841953E-002 -7.533749089540519E-002 -5.677912162239086E-002
 -3.822075234937645E-002 -1.966238307636203E-002 -1.104013803347747E-003
  1.745435546966677E-002 -0.167122605175919      -0.148564235902904     
 -0.130005866629890      -0.111447497356875      -9.288912808386117E-002
 -7.433075881084679E-002 -5.577238953783226E-002 -3.721402026481812E-002
 -1.865565099180374E-002 -9.728171878922434E-005  1.846108755422503E-002
 -0.165462368542406      -0.146903999269391      -0.128345629996377     
 -0.109787260723363      -9.122889145034818E-002 -7.267052217733368E-002
 -5.411215290431932E-002 -3.555378363130504E-002 -1.699541435829062E-002
  1.562954914723795E-003  2.012132418773796E-002 -0.163174810283426     
 -0.144616441010411      -0.126058071737397      -0.107499702464382     
 -8.894133319136807E-002 -7.038296391835372E-002 -5.182459464533933E-002
 -3.326622537232506E-002 -1.470785609931064E-002  3.850513173703505E-003
  2.240888244671800E-002 -0.160296006559244      -0.141737637286230     
 -0.123179268013215      -0.104620898740201      -8.606252946718655E-002
 -6.750416019417189E-002 -4.894579092115781E-002 -3.038742164814344E-002
 -1.182905237512871E-002  6.729316897885639E-003  2.528768617089987E-002
 -0.156871357824305      -0.138312988551291      -0.119754619278276     
 -0.101196250005262      -8.263788073224711E-002 -6.407951145923309E-002
 -4.552114218621886E-002 -2.696277291320440E-002 -8.404403640190180E-003
  1.015396563282436E-002  2.871233490583862E-002 -0.152954872834945     
 -0.134396503561930      -0.115838134288916      -9.727976501590138E-002
 -7.872139574288714E-002 -6.016302646987281E-002 -4.160465719685816E-002
 -2.304628792384397E-002 -4.487918650829505E-003  1.407045062218466E-002
  3.262881989519929E-002 -0.148608316899040      -0.130049947626025     
 -0.111491578353011      -9.293320907999686E-002 -7.437483980698219E-002
 -5.581647053396772E-002 -3.725810126095318E-002 -1.869973198793922E-002
 -1.413627149245149E-004  1.841700655808966E-002  3.697537583110378E-002
 -0.143900237800206      -0.125341868527192      -0.106783499254177     
 -8.822512998116276E-002 -6.966676070814845E-002 -5.110839143513457E-002
 -3.255002216212009E-002 -1.399165288910557E-002  4.566716383908874E-003
  2.312508565692322E-002  4.168345492993742E-002 -0.138904884758303     
 -0.120346515485288      -0.101788146212274      -8.322977693925994E-002
 -6.467140766624550E-002 -4.611303839323092E-002 -2.755466912021675E-002
 -8.996299847202006E-003  9.562069425811700E-003  2.812043869882635E-002
  4.667880797184060E-002 -0.133701037474879      -0.115142668201866     
 -9.658429892885080E-002 -7.802592965583646E-002 -5.946756038282243E-002
 -4.090919110980796E-002 -2.235082183679371E-002 -3.792452563779190E-003
  1.476591670923517E-002  3.332428598224936E-002  5.188265525526371E-002
 -0.128370763730224      -0.109812394457210      -9.125402518419515E-002
 -7.269565591118118E-002 -5.413728663816640E-002 -3.557891736515293E-002
 -1.702054809213716E-002  1.537821180876314E-003  2.009619045389025E-002
  3.865455972690475E-002  5.721292899991983E-002 -0.122998125125441     
 -0.104439755852426      -8.588138657941251E-002 -6.732301730639717E-002
 -4.876464803338280E-002 -3.020627876036809E-002 -1.164790948735370E-002
  6.910459785659601E-003  2.546882905867474E-002  4.402719833168926E-002
  6.258556760470334E-002 -0.117667851380785      -9.910948210777068E-002
 -8.055111283475595E-002 -6.199274356174239E-002 -4.343437428872700E-002
 -2.487600501571344E-002 -6.317635742698891E-003  1.224073353031608E-002
  3.079910280333021E-002  4.935747207634393E-002  6.791584134935905E-002
 -0.112464004097362      -9.390563482434724E-002 -7.534726555133299E-002
 -5.678889627831928E-002 -3.823052700530472E-002 -1.967215773228975E-002
 -1.113788459276175E-003  1.744458081373882E-002  3.600295008675257E-002
  5.456131935976748E-002  7.311968863278193E-002 -0.107468651055458     
 -8.891028178244412E-002 -7.035191250942985E-002 -5.179354323641557E-002
 -3.323517396340097E-002 -1.467680469038680E-002  3.881564582627662E-003
  2.243993385564180E-002  4.099830312865643E-002  5.955667240167108E-002
  7.811504167468498E-002 -0.102760571956625      -8.420220268361044E-002
 -6.564383341059639E-002 -4.708546413758242E-002 -2.852709486456740E-002
 -9.968725591553564E-003  8.589643681461458E-003  2.714801295447551E-002
  4.570638222748981E-002  6.426475150050451E-002  8.282312077351836E-002
 -9.841401602071961E-002 -7.985564674770596E-002 -6.129727747469115E-002
 -4.273890820167726E-002 -2.418053892866274E-002 -5.622169655648353E-003
  1.293619961736561E-002  3.149456889038019E-002  5.005293816339447E-002
  6.861130743640946E-002  8.716967670942323E-002 -9.449753103135999E-002
 -7.593916175834553E-002 -5.738079248533156E-002 -3.882242321231603E-002
 -2.026405393930293E-002 -1.705684666287321E-003  1.685268460672548E-002
  3.541105387974087E-002  5.396942315275558E-002  7.252779242577011E-002
  9.108616169878393E-002 -9.107288229642047E-002 -7.251451302340620E-002
 -5.395614375039218E-002 -3.539777447737843E-002 -1.683940520436354E-002
  1.718964068650591E-003  2.027733334166593E-002  3.883570261468031E-002
  5.739407188769386E-002  7.595244116070902E-002  9.451081043372279E-002
 -8.819407857223943E-002 -6.963570929922537E-002 -5.107734002621025E-002
 -3.251897075319547E-002 -1.396060148018266E-002  4.597767792832913E-003
  2.315613706584724E-002  4.171450633886129E-002  6.027287561187529E-002
  7.883124488489045E-002  9.738961415790562E-002 -8.590652031325850E-002
 -6.734815104024455E-002 -4.878978176723069E-002 -3.023141249421615E-002
 -1.167304322120184E-002  6.885326051813041E-003  2.544369532482726E-002
  4.400206459784093E-002  6.256043387085598E-002  8.111880314386986E-002
  9.967717241688502E-002 -8.424628367974578E-002 -6.568791440673252E-002
 -4.712954513371714E-002 -2.857117586070281E-002 -1.001280658768843E-002
  8.545562685326568E-003  2.710393195833989E-002  4.566230123135528E-002
  6.422067050436855E-002  8.277903977738406E-002  0.101337409050398     
 -8.323955159518720E-002 -6.468118232217403E-002 -4.612281304916025E-002
 -2.756444377614463E-002 -9.006074503130321E-003  9.552294769884621E-003
  2.811066404289905E-002  4.666903331591334E-002  6.522740258892727E-002
  8.378577186194150E-002  0.102344141134956      -8.290220082595021E-002
 -6.434383155293565E-002 -4.578546227992235E-002 -2.722709300690643E-002
 -8.668723733892493E-003  9.889645539121283E-003  2.844801481213656E-002
  4.700638408515027E-002  6.556475335816449E-002  8.412312263117894E-002
  0.102681491904194     
  0.206507297929191       0.204833337013427       0.203159376097663     
  0.201485415181898       0.199811454266134       0.198137493350370     
  0.196463532434605       0.194789571518841       0.193115610603077     
  0.191441649687313       0.189767688771549       0.210247337550838     
  0.208573376635074       0.206899415719310       0.205225454803546     
  0.203551493887781       0.201877532972017       0.200203572056253     
  0.198529611140488       0.196855650224724       0.195181689308960     
  0.193507728393196       0.221408473756755       0.219734512840991     
  0.218060551925227       0.216386591009462       0.214712630093698     
  0.213038669177934       0.211364708262169       0.209690747346405     
  0.208016786430641       0.206342825514877       0.204668864599112     
  0.239814688761635       0.238140727845870       0.236466766930106     
  0.234792806014342       0.233118845098578       0.231444884182813     
  0.229770923267049       0.228096962351285       0.226423001435521     
  0.224749040519756       0.223075079603992       0.265175705559509     
  0.263501744643746       0.261827783727981       0.260153822812217     
  0.258479861896452       0.256805900980689       0.255131940064924     
  0.253457979149160       0.251784018233396       0.250110057317631     
  0.248436096401867       0.297091565765541       0.295417604849777     
  0.293743643934012       0.292069683018248       0.290395722102484     
  0.288721761186720       0.287047800270956       0.285373839355191     
  0.283699878439427       0.282025917523663       0.280351956607899     
  0.335058937198669       0.333384976282905       0.331711015367140     
  0.330037054451376       0.328363093535612       0.326689132619848     
  0.325015171704083       0.323341210788319       0.321667249872555     
  0.319993288956790       0.318319328041026       0.378479051730785     
  0.376805090815020       0.375131129899256       0.373457168983492     
  0.371783208067727       0.370109247151964       0.368435286236199     
  0.366761325320435       0.365087364404670       0.363413403488906     
  0.361739442573143       0.426667148217798       0.424993187302033     
  0.423319226386269       0.421645265470505       0.419971304554741     
  0.418297343638976       0.416623382723212       0.414949421807448     
  0.413275460891684       0.411601499975919       0.409927539060155     
  0.478863271591933       0.477189310676169       0.475515349760405     
  0.473841388844641       0.472167427928877       0.470493467013112     
  0.468819506097347       0.467145545181584       0.465471584265819     
  0.463797623350055       0.462123662434291       0.534244257807130     
  0.532570296891366       0.530896335975601       0.529222375059837     
  0.527548414144073       0.525874453228309       0.524200492312544     
  0.522526531396780       0.520852570481016       0.519178609565252     
  0.517504648649487       0.591936715627776       0.590262754712012     
  0.588588793796247       0.586914832880483       0.585240871964719     
  0.583566911048954       0.581892950133190       0.580218989217426     
  0.578545028301662       0.576871067385898       0.575197106470133     
  0.651030800530236       0.649356839614471       0.647682878698706     
  0.646008917782942       0.644334956867178       0.642660995951414     
  0.640987035035649       0.639313074119886       0.637639113204121     
  0.635965152288357       0.634291191372593       0.710594563494502     
  0.708920602578738       0.707246641662973       0.705572680747208     
  0.703898719831445       0.702224758915680       0.700550797999917     
  0.698876837084152       0.697202876168389       0.695528915252624     
  0.693854954336859       0.769688648396962       0.768014687481197     
  0.766340726565433       0.764666765649668       0.762992804733904     
  0.761318843818141       0.759644882902376       0.757970921986612     
  0.756296961070847       0.754623000155083       0.752949039239320     
  0.827381106217608       0.825707145301842       0.824033184386079     
  0.822359223470314       0.820685262554550       0.819011301638786     
  0.817337340723021       0.815663379807258       0.813989418891493     
  0.812315457975728       0.810641497059965       0.882762092432804     
  0.881088131517040       0.879414170601275       0.877740209685512     
  0.876066248769746       0.874392287853982       0.872718326938217     
  0.871044366022454       0.869370405106690       0.867696444190926     
  0.866022483275162       0.934958215806940       0.933284254891175     
  0.931610293975411       0.929936333059646       0.928262372143882     
  0.926588411228119       0.924914450312354       0.923240489396590     
  0.921566528480826       0.919892567565061       0.918218606649297     
  0.983146312293952       0.981472351378188       0.979798390462424     
  0.978124429546659       0.976450468630895       0.974776507715132     
  0.973102546799367       0.971428585883603       0.969754624967839     
  0.968080664052074       0.966406703136310        1.02656642682607     
   1.02489246591030        1.02321850499454        1.02154454407878     
   1.01987058316301        1.01819662224725        1.01652266133148     
   1.01484870041572        1.01317473949995        1.01150077858419     
   1.00982681766842        1.06453379825920        1.06285983734343     
   1.06118587642767        1.05951191551190        1.05783795459614     
   1.05616399368037        1.05449003276461        1.05281607184885     
   1.05114211093308        1.04946815001732        1.04779418910155     
   1.09644965846523        1.09477569754946        1.09310173663370     
   1.09142777571794        1.08975381480217        1.08807985388641     
   1.08640589297064        1.08473193205488        1.08305797113911     
   1.08138401022335        1.07971004930759        1.12181067526310     
   1.12013671434734        1.11846275343157        1.11678879251581     
   1.11511483160004        1.11344087068428        1.11176690976852     
   1.11009294885275        1.10841898793699        1.10674502702122     
   1.10507106610546        1.14021689026798        1.13854292935222     
   1.13686896843645        1.13519500752069        1.13352104660493     
   1.13184708568916        1.13017312477340        1.12849916385763     
   1.12682520294187        1.12515124202610        1.12347728111034     
   1.15137802647390        1.14970406555813        1.14803010464237     
   1.14635614372660        1.14468218281084        1.14300822189508     
   1.14133426097931        1.13966030006355        1.13798633914779     
   1.13631237823202        1.13463841731626        1.15511806609554     
   1.15344410517978        1.15177014426402        1.15009618334825     
   1.14842222243249        1.14674826151672        1.14507430060096     
   1.14340033968519        1.14172637876943        1.14005241785367     
   1.13837845693790     
  3.960717710078315E-002  3.564645939070483E-002  3.168574168062652E-002
  2.772502397054821E-002  2.376430626046989E-002  1.980358855039158E-002
  1.584287084031326E-002  1.188215313023495E-002  7.921435420156629E-003
  3.960717710078312E-003  0.000000000000000E+000  3.960717710078315E-002
  3.564645939070483E-002  3.168574168062652E-002  2.772502397054821E-002
  2.376430626046989E-002  1.980358855039158E-002  1.584287084031326E-002
  1.188215313023495E-002  7.921435420156629E-003  3.960717710078312E-003
  0.000000000000000E+000  3.960717710078315E-002  3.564645939070483E-002
  3.168574168062652E-002  2.772502397054821E-002  2.376430626046989E-002
  1.980358855039158E-002  1.584287084031326E-002  1.188215313023495E-002
  7.921435420156629E-003  3.960717710078312E-003  0.000000000000000E+000
  3.960717710078315E-002  3.564645939070483E-002  3.168574168062652E-002
  2.772502397054821E-002  2.376430626046989E-002  1.980358855039158E-002
  1.584287084031326E-002  1.188215313023495E-002  7.921435420156629E-003
  3.960717710078312E-003  0.000000000000000E+000  3.960717710078315E-002
  3.564645939070483E-002  3.168574168062652E-002  2.772502397054821E-002
  2.376430626046989E-002  1.980358855039158E-002  1.584287084031326E-002
  1.188215313023495E-002  7.921435420156629E-003  3.960717710078312E-003
  0.000000000000000E+000  3.960717710078315E-002  3.564645939070483E-002
  3.168574168062652E-002  2.772502397054821E-002  2.376430626046989E-002
  1.980358855039158E-002  1.584287084031326E-002  1.188215313023495E-002
  7.921435420156629E-003  3.960717710078312E-003  0.000000000000000E+000
  3.960717710078315E-002  3.564645939070483E-002  3.168574168062652E-002
  2.772502397054821E-002  2.376430626046989E-002  1.980358855039158E-002
  1.584287084031326E-002  1.188215313023495E-002  7.921435420156629E-003
  3.960717710078312E-003  0.000000000000000E+000  3.960717710078315E-002
  3.564645939070483E-002  3.168574168062652E-002  2.772502397054821E-002
  2.376430626046989E-002  1.980358855039158E-002  1.584287084031326E-002
  1.188215313023495E-002  7.921435420156629E-003  3.960717710078312E-003
  0.000000000000000E+000  3.960717710078315E-002  3.564645939070483E-002
  3.168574168062652E-002  2.772502397054821E-002  2.376430626046989E-002
  1.980358855039158E-002  1.584287084031326E-002  1.188215313023495E-002
  7.921435420156629E-003  3.960717710078312E-003  0.000000000000000E+000
  3.960717710078315E-002  3.564645939070483E-002  3.168574168062652E-002
  2.772502397054821E-002  2.376430626046989E-002  1.980358855039158E-002
  1.584287084031326E-002  1.188215313023495E-002  7.921435420156629E-003
  3.960717710078312E-003  0.000000000000000E+000  3.960717710078315E-002
  3.564645939070483E-002  3.168574168062652E-002  2.772502397054821E-002
  2.376430626046989E-002  1.980358855039158E-002  1.584287084031326E-002
  1.188215313023495E-002  7.921435420156629E-003  3.960717710078312E-003
  0.000000000000000E+000  3.960717710078315E-002  3.564645939070483E-002
  3.168574168062652E-002  2.772502397054821E-002  2.376430626046989E-002
  1.980358855039158E-002  1.584287084031326E-002  1.188215313023495E-002
  7.921435420156629E-003  3.960717710078312E-003  0.000000000000000E+000
  3.960717710078315E-002  3.564645939070483E-002  3.168574168062652E-002
  2.772502397054821E-002  2.376430626046989E-002  1.980358855039158E-002
  1.584287084031326E-002  1.188215313023495E-002  7.921435420156629E-003
  3.960717710078312E-003  0.000000000000000E+000  3.960717710078315E-002
  3.564645939070483E-002  3.168574168062652E-002  2.772502397054821E-002
  2.376430626046989E-002  1.980358855039158E-002  1.584287084031326E-002
  1.188215313023495E-002  7.921435420156629E-003  3.960717710078312E-003
  0.000000000000000E+000  3.960717710078315E-002  3.564645939070483E-002
  3.168574168062652E-002  2.772502397054821E-002  2.376430626046989E-002
  1.980358855039158E-002  1.584287084031326E-002  1.188215313023495E-002
  7.921435420156629E-003  3.960717710078312E-003  0.000000000000000E+000
  3.960717710078315E-002  3.564645939070483E-002  3.168574168062652E-002
  2.772502397054821E-002  2.376430626046989E-002  1.980358855039158E-002
  1.584287084031326E-002  1.188215313023495E-002  7.921435420156629E-003
  3.960717710078312E-003  0.000000000000000E+000  3.960717710078315E-002
  3.564645939070483E-002  3.168574168062652E-002  2.772502397054821E-002
  2.376430626046989E-002  1.980358855039158E-002  1.584287084031326E-002
  1.188215313023495E-002  7.921435420156629E-003  3.960717710078312E-003
  0.000000000000000E+000  3.960717710078315E-002  3.564645939070483E-002
  3.168574168062652E-002  2.772502397054821E-002  2.376430626046989E-002
  1.980358855039158E-002  1.584287084031326E-002  1.188215313023495E-002
  7.921435420156629E-003  3.960717710078312E-003  0.000000000000000E+000
  3.960717710078315E-002  3.564645939070483E-002  3.168574168062652E-002
  2.772502397054821E-002  2.376430626046989E-002  1.980358855039158E-002
  1.584287084031326E-002  1.188215313023495E-002  7.921435420156629E-003
  3.960717710078312E-003  0.000000000000000E+000  3.960717710078315E-002
  3.564645939070483E-002  3.168574168062652E-002  2.772502397054821E-002
  2.376430626046989E-002  1.980358855039158E-002  1.584287084031326E-002
  1.188215313023495E-002  7.921435420156629E-003  3.960717710078312E-003
  0.000000000000000E+000  3.960717710078315E-002  3.564645939070483E-002
  3.168574168062652E-002  2.772502397054821E-002  2.376430626046989E-002
  1.980358855039158E-002  1.584287084031326E-002  1.188215313023495E-002
  7.921435420156629E-003  3.960717710078312E-003  0.000000000000000E+000
  3.960717710078315E-002  3.564645939070483E-002  3.168574168062652E-002
  2.772502397054821E-002  2.376430626046989E-002  1.980358855039158E-002
  1.584287084031326E-002  1.188215313023495E-002  7.921435420156629E-003
  3.960717710078312E-003  0.000000000000000E+000  3.960717710078315E-002
  3.564645939070483E-002  3.168574168062652E-002  2.772502397054821E-002
  2.376430626046989E-002  1.980358855039158E-002  1.584287084031326E-002
  1.188215313023495E-002  7.921435420156629E-003  3.960717710078312E-003
  0.000000000000000E+000  3.960717710078315E-002  3.564645939070483E-002
  3.168574168062652E-002  2.772502397054821E-002  2.376430626046989E-002
  1.980358855039158E-002  1.584287084031326E-002  1.188215313023495E-002
  7.921435420156629E-003  3.960717710078312E-003  0.000000000000000E+000
  3.960717710078315E-002  3.564645939070483E-002  3.168574168062652E-002
  2.772502397054821E-002  2.376430626046989E-002  1.980358855039158E-002
  1.584287084031326E-002  1.188215313023495E-002  7.921435420156629E-003
  3.960717710078312E-003  0.000000000000000E+000  3.960717710078315E-002
  3.564645939070483E-002  3.168574168062652E-002  2.772502397054821E-002
  2.376430626046989E-002  1.980358855039158E-002  1.584287084031326E-002
  1.188215313023495E-002  7.921435420156629E-003  3.960717710078312E-003
  0.000000000000000E+000
  9.547187215608217E-002  0.140184964673562       0.175474703034352     
  0.206145222898135       0.233632081398451       0.258423733291028     
  0.280555225462163       0.299922308507073       0.316301517683095     
  0.328727951914476       0.161743028282452       0.240058743674542     
  0.300949301915639       0.353395173477344       0.400104912326809     
  0.442070715294985       0.479514968720344       0.512391325569944     
  0.540584463938300       0.563834780442071       0.227396007469050     
  0.342453312018836       0.430493783383956       0.505072359068992     
  0.570620221721771       0.628964988290829       0.680847109551644     
  0.726523678737436       0.766131495756749       0.798823246336595     
  0.292362495810129       0.442730420520551       0.557107511822758     
  0.652701205974263       0.735554375567698       0.808342972772472     
  0.872333328444802       0.928042449748198       0.975274784951621     
   1.01143845295034       0.359977129722084       0.544539609306907     
  0.684039611842707       0.799476427020776       0.898379356475796     
  0.984248517527461        1.05881869034497        1.12272360258042     
   1.17545334024827        1.21385978311107       0.433493190075275     
  0.653194558805193       0.817674114152410       0.952515300754603     
   1.06689730542205        1.16510056664133        1.24925226652320     
   1.32016306678245        1.37732587642814        1.41744294017129     
  0.516955150605310       0.775233022743259       0.966335763583589     
   1.12136153859077        1.25151603794254        1.36207961555960     
   1.45573490501993        1.53356107859533        1.59509843368167     
   1.63691843543329       0.614648037746374       0.917318801772695     
   1.13854711088236        1.31612390150305        1.46378101735163     
   1.58799376343622        1.69209155819621        1.77753606009513     
   1.84404253381752        1.88806668322113       0.729911029788376     
   1.08476368283357        1.34124916425160        1.54508311676476     
   1.71303205433151        1.85308676127945        1.96942436836126     
   2.06397874427539        2.13665121326148        2.18376171551680     
  0.864405228038834        1.28015835725573        1.57777307051466     
   1.81224947503298        2.00393864283819        2.16263894147621     
   2.29352991665471        2.39909887856096        2.47948279041097     
   2.53084948733457        1.01779851281562        1.50312525753752     
   1.84781638406134        2.11743991698244        2.33641777155262     
   2.51660299963048        2.66434684650482        2.78281701235464     
   2.87246368726197        2.92929649640222        1.18838041976457     
   1.75114773360379        2.14826189813801        2.45702165301244     
   2.70636892128301        2.91045750348759        3.07697726500832     
   3.20989417441349        3.31004059970095        3.37328065130633     
   1.37353292405845        2.02024185726650        2.47405208775143     
   2.82500979196102        3.10699334607879        3.33668336856157     
   3.52324197511773        3.67152888875260        3.78284651479782     
   3.85297571445186        1.57066693420712        2.30631509663825     
   2.81983598778707        3.21491644749056        3.53074068768184     
   3.78672940350535        3.99366752884419        4.15742419671081     
   4.27987443941224        4.35682481624360        1.77907079136504     
   2.60767580035155        3.18277699379776        3.62266933392768     
   3.97228228983513        4.25405270340380        4.48058975245428     
   4.65893134058416        4.79166253768289        4.87477603750174     
   2.00170423638863        2.92722508418013        3.56484515894601     
   4.04897000079713        4.43097093232164        4.73671682421097     
   4.98092350604019        5.17200742463018        5.31343901791301     
   5.40159413165582        2.24051233586236        3.26586665757299     
   3.96521102383538        4.49119223783528        4.90259974396315     
   5.22926408355419        5.48831287911340        5.68973421477453     
   5.83803574130846        5.93013898393254        2.47647875063863     
   3.59539727472674        4.34932272499268        4.91011213984602     
   5.34447682785651        5.68646836848360        5.95574335629304     
   6.16392079736616        6.31662571682162        6.41150127054054     
   2.65805066824428        3.84190365651059        4.62870871913654     
   5.20665688923734        5.64936421492450        5.99459411569182     
   6.26421933596316        6.47129148491162        6.62251513907082     
   6.71664974636461        2.72945235274521        3.92387584538125     
   4.70420251621593        5.26843394873752        5.69467942025020     
   6.02311751381767        6.27696212725043        6.47004873090413     
   6.60975892560467        6.69626133367864        2.66553901754234     
   3.80118842629961        4.52509958784218        5.03798436019262     
   5.41932047790214        5.70957057207775        5.93170014892964     
   6.09915312038434        6.21910697702395        6.29255894563977     
   2.46442647822243        3.46685259764462        4.08368248065776     
   4.51091916995138        4.82432815189882        5.06105277293152     
   5.24154433112842        5.37765934113180        5.47591910421206     
   5.53745409380363        2.12217846550180        2.91696947380173     
   3.38727296520324        3.70836348016992        3.94286144760452     
   4.11997912232114        4.25556310388324        4.35923099238929     
   4.43790183992492        4.49749342420183        1.62042295531988     
   2.15630615994040        2.46908090475229        2.68312657429016     
   2.84006904406940        2.95907826204356        3.05058473921657     
   3.12098429903145        3.17503895979228        3.21942731316674     
  0.984703200544959        1.28472559962100        1.46146639507143     
   1.58308754604139        1.67256765414178        1.74056191991408     
   1.79285791736538        1.83285719574157        1.86249723806039     
   1.88132998693426     
  0.000000000000000E+000  0.000000000000000E+000  0.000000000000000E+000
  0.000000000000000E+000  0.000000000000000E+000  0.000000000000000E+000
  0.000000000000000E+000  0.000000000000000E+000  0.000000000000000E+000
  0.000000000000000E+000  0.000000000000000E+000  0.000000000000000E+000
  0.000000000000000E+000  0.000000000000000E+000  0.000000000000000E+000
  0.000000000000000E+000  0.000000000000000E+000  0.000000000000000E+000
  0.000000000000000E+000  0.000000000000000E+000  0.000000000000000E+000
  0.000000000000000E+000  0.000000000000000E+000  0.000000000000000E+000
  0.000000000000000E+000  0.000000000000000E+000  0.000000000000000E+000
  0.000000000000000E+000  0.000000000000000E+000  0.000000000000000E+000
  0.000000000000000E+000  0.000000000000000E+000  0.000000000000000E+000
  0.000000000000000E+000  0.000000000000000E+000  0.000000000000000E+000
  0.000000000000000E+000  0.000000000000000E+000  0.000000000000000E+000
  0.000000000000000E+000  0.000000000000000E+000  0.000000000000000E+000
  0.000000000000000E+000  0.000000000000000E+000  0.000000000000000E+000
  0.000000000000000E+000  0.000000000000000E+000  0.000000000000000E+000
  0.000000000000000E+000  0.000000000000000E+000  0.000000000000000E+000
  0.000000000000000E+000  0.000000000000000E+000  0.000000000000000E+000
  0.000000000000000E+000  0.000000000000000E+000  0.000000000000000E+000
  0.000000000000000E+000  0.000000000000000E+000  0.000000000000000E+000
  0.000000000000000E+000  0.000000000000000E+000  0.000000000000000E+000
  0.000000000000000E+000  0.000000000000000E+000  0.000000000000000E+000
  0.000000000000000E+000  0.000000000000000E+000  0.000000000000000E+000
  0.000000000000000E+000  0.000000000000000E+000  0.000000000000000E+000
  0.000000000000000E+000  0.000000000000000E+000  0.000000000000000E+000
  0.000000000000000E+000  0.000000000000000E+000  0.000000000000000E+000
  0.000000000000000E+000  0.000000000000000E+000  0.000000000000000E+000
  0.000000000000000E+000  0.000000000000000E+000  0.000000000000000E+000
  0.000000000000000E+000  0.000000000000000E+000  0.000000000000000E+000
  0.000000000000000E+000  0.000000000000000E+000  0.000000000000000E+000
  0.000000000000000E+000  0.000000000000000E+000  0.000000000000000E+000
  0.000000000000000E+000  0.000000000000000E+000  0.000000000000000E+000
  0.000000000000000E+000  0.000000000000000E+000  0.000000000000000E+000
  0.000000000000000E+000  0.000000000000000E+000  0.000000000000000E+000
  0.000000000000000E+000  0.000000000000000E+000  0.000000000000000E+000
  0.000000000000000E+000  0.000000000000000E+000  0.000000000000000E+000
  0.000000000000000E+000  0.000000000000000E+000  0.000000000000000E+000
  0.000000000000000E+000  0.000000000000000E+000  0.000000000000000E+000
  0.000000000000000E+000  0.000000000000000E+000  0.000000000000000E+000