 Title = "Wing and Wake"
 VARIABLES = "X" "Y" "Z" "GAM" "skew"
 Zone I=   11 J=   26 K=1  T="Blade"
 DATAPACKING=BLOCK
 VARLOCATION=([4]=CELLCENTERED,[5]=CELLCENTERED)
 -0.193974729018710      -0.175356611251761      -0.156738493484813     
 -0.138120375717864      -0.119502257950915      -0.100884140183966     
 -8.226602241701771E-002 -6.364790465006889E-002 -4.502978688312030E-002
 -2.641166911617148E-002 -7.793551349222726E-003 -0.194128328353919     
 -0.175510210586970      -0.156892092820021      -0.138273975053073     
 -0.119655857286124      -0.101037739519175      -8.241962175222661E-002
 -6.380150398527776E-002 -4.518338621832912E-002 -2.656526845138046E-002
 -7.947150684431647E-003 -0.194586704006273      -0.175968586239325     
 -0.157350468472376      -0.138732350705427      -0.120114232938479     
 -0.101496115171530      -8.287799740458110E-002 -6.425987963763249E-002
 -4.564176187068367E-002 -2.702364410373488E-002 -8.405526336786245E-003
 -0.195342627117916      -0.176724509350967      -0.158106391584018     
 -0.139488273817070      -0.120870156050121      -0.102252038283172     
 -8.363392051622344E-002 -6.501580274927475E-002 -4.639768498232607E-002
 -2.777956721537736E-002 -9.161449448428727E-003 -0.196384176329809     
 -0.177766058562860      -0.159147940795911      -0.140529823028963     
 -0.121911705262014      -0.103293587495065      -8.467546972811635E-002
 -6.605735196116763E-002 -4.743923419421896E-002 -2.882111642727033E-002
 -1.020299866032156E-002 -0.197694925788689      -0.179076808021740     
 -0.160458690254792      -0.141840572487843      -0.123222454720894     
 -0.104604336953945      -8.598621918699699E-002 -6.736810142004827E-002
 -4.874998365309929E-002 -3.013186588615042E-002 -1.151374811920196E-002
 -0.199254204192587      -0.180636086425638      -0.162017968658690     
 -0.143399850891741      -0.124781733124792      -0.106163615357844     
 -8.754549759089497E-002 -6.892737982394620E-002 -5.030926205699759E-002
 -3.169114429004870E-002 -1.307302652310004E-002 -0.201037420789605     
 -0.182419303022656      -0.163801185255708      -0.145183067488759     
 -0.126564949721810      -0.107946831954862      -8.932871418791291E-002
 -7.071059642096419E-002 -5.209247865401530E-002 -3.347436088706680E-002
 -1.485624312011802E-002 -0.203016453188766      -0.184398335421817     
 -0.165780217654869      -0.147162099887921      -0.128543982120972     
 -0.109925864354023      -9.130774658707386E-002 -7.268962882012550E-002
 -5.407151105317655E-002 -3.545339328622799E-002 -1.683527551927946E-002
 -0.205160090866919      -0.186541973099971      -0.167923855333022     
 -0.149305737566073      -0.130687619799124      -0.112069502032176     
 -9.345138426522712E-002 -7.483326649827830E-002 -5.621514873132938E-002
 -3.759703096438072E-002 -1.897891319743232E-002 -0.207434527377332     
 -0.188816409610384      -0.170198291843435      -0.151580174076487     
 -0.132962056309538      -0.114343938542589      -9.572582077564033E-002
 -7.710770300869130E-002 -5.848958524174310E-002 -3.987146747479413E-002
 -2.125334970784548E-002 -0.209803893497554      -0.191185775730606     
 -0.172567657963657      -0.153949540196708      -0.135331422429759     
 -0.116713304662811      -9.809518689586225E-002 -7.947706912891316E-002
 -6.085895136196455E-002 -4.224083359501590E-002 -2.362271582806724E-002
 -0.212230822908478      -0.193612705141529      -0.174994587374580     
 -0.156376469607632      -0.137758351840683      -0.119140234073735     
 -0.100522116306785      -8.190399853983692E-002 -6.328588077288833E-002
 -4.466776300593944E-002 -2.604964523899041E-002 -0.214677041483516     
 -0.196058923716567      -0.177440805949619      -0.158822688182669     
 -0.140204570415720      -0.121586452648771      -0.102968334881823     
 -8.435021711487455E-002 -6.573209934792562E-002 -4.711398158097680E-002
 -2.849586381402837E-002 -0.217103970894439      -0.198485853127490     
 -0.179867735360541      -0.161249617593593      -0.142631499826644     
 -0.124013382059696      -0.105395264292747      -8.677714652579768E-002
 -6.815902875884913E-002 -4.954091099190062E-002 -3.092279322495168E-002
 -0.219473337014661      -0.200855219247712      -0.182237101480763     
 -0.163618983713815      -0.145000865946866      -0.126382748179917     
 -0.107764630412969      -8.914651264601972E-002 -7.052839487907141E-002
 -5.191027711212205E-002 -3.329215934517330E-002 -0.221747773525074     
 -0.203129655758125      -0.184511537991176      -0.165893420224228     
 -0.147275302457279      -0.128657184690330      -0.110039066923381     
 -9.142094915643295E-002 -7.280283138948400E-002 -5.418471362253495E-002
 -3.556659585558671E-002 -0.223891411203227      -0.205273293436278     
 -0.186655175669329      -0.168037057902381      -0.149418940135432     
 -0.130800822368483      -0.112182704601534      -9.356458683458566E-002
 -7.494646906763694E-002 -5.632835130068797E-002 -3.771023353373979E-002
 -0.225870443602387      -0.207252325835439      -0.188634208068491     
 -0.170016090301542      -0.151397972534593      -0.132779854767645     
 -0.114161737000696      -9.554361923374713E-002 -7.692550146679827E-002
 -5.830738369984916E-002 -3.968926593290106E-002 -0.227653660199406     
 -0.209035542432457      -0.190417424665509      -0.171799306898559     
 -0.153181189131612      -0.134563071364662      -0.115944953597715     
 -9.732683583076517E-002 -7.870871806381591E-002 -6.009060029686707E-002
 -4.147248252991861E-002 -0.229212938603304      -0.210594820836355     
 -0.191976703069407      -0.173358585302458      -0.154740467535509     
 -0.136122349768561      -0.117504232001611      -9.888611423466273E-002
 -8.026799646771443E-002 -6.164987870076514E-002 -4.303176093381664E-002
 -0.230523688062185      -0.211905570295236      -0.193287452528287     
 -0.174669334761338      -0.156051216994391      -0.137433099227441     
 -0.118814981460492      -0.100196863693544      -8.157874592659506E-002
 -6.296062815964637E-002 -4.434251039269666E-002 -0.231565237274077     
 -0.212947119507129      -0.194329001740180      -0.175710883973231     
 -0.157092766206283      -0.138474648439334      -0.119856530672385     
 -0.101238412905437      -8.262029513848734E-002 -6.400217737153918E-002
 -4.538405960459000E-002 -0.232321160385720      -0.213703042618772     
 -0.195084924851822      -0.176466807084874      -0.157848689317925     
 -0.139230571550976      -0.120612453784028      -0.101994336017078     
 -8.337621825013022E-002 -6.475810048318126E-002 -4.613998271623279E-002
 -0.232779536038074      -0.214161418271126      -0.195543300504178     
 -0.176925182737228      -0.158307064970280      -0.139688947203330     
 -0.121070829436382      -0.102452711669433      -8.383459390248409E-002
 -6.521647613553568E-002 -4.659835836858707E-002 -0.232933135373283     
 -0.214315017606334      -0.195696899839386      -0.177078782072437     
 -0.158460664305488      -0.139842546538540      -0.121224428771590     
 -0.102606311004642      -8.398819323769402E-002 -6.537007547074467E-002
 -4.675195770379612E-002
  0.182756924836885       0.183519096757845       0.184281268678805     
  0.185043440599764       0.185805612520724       0.186567784441683     
  0.187329956362643       0.188092128283603       0.188854300204562     
  0.189616472125522       0.190378644046482       0.186509005480637     
  0.187271177401597       0.188033349322557       0.188795521243517     
  0.189557693164476       0.190319865085436       0.191082037006395     
  0.191844208927355       0.192606380848314       0.193368552769274     
  0.194130724690234       0.197706074858757       0.198468246779717     
  0.199230418700677       0.199992590621636       0.200754762542596     
  0.201516934463556       0.202279106384515       0.203041278305475     
  0.203803450226434       0.204565622147394       0.205327794068354     
  0.216171548498348       0.216933720419307       0.217695892340267     
  0.218458064261227       0.219220236182186       0.219982408103146     
  0.220744580024105       0.221506751945065       0.222268923866025     
  0.223031095786984       0.223793267707944       0.241614214849372     
  0.242376386770332       0.243138558691291       0.243900730612251     
  0.244662902533210       0.245425074454170       0.246187246375130     
  0.246949418296089       0.247711590217049       0.248473762138008     
  0.249235934058968       0.273632827864762       0.274394999785722     
  0.275157171706682       0.275919343627641       0.276681515548602     
  0.277443687469561       0.278205859390520       0.278968031311480     
  0.279730203232440       0.280492375153399       0.281254547074359     
  0.311722434890275       0.312484606811235       0.313246778732194     
  0.314008950653154       0.314771122574114       0.315533294495074     
  0.316295466416033       0.317057638336992       0.317819810257952     
  0.318581982178911       0.319344154099871       0.355282340069489     
  0.356044511990448       0.356806683911408       0.357568855832367     
  0.358331027753327       0.359093199674286       0.359855371595246     
  0.360617543516206       0.361379715437165       0.362141887358125     
  0.362904059279085       0.403625577676300       0.404387749597260     
  0.405149921518219       0.405912093439179       0.406674265360139     
  0.407436437281098       0.408198609202058       0.408960781123018     
  0.409722953043977       0.410485124964937       0.411247296885896     
  0.455989745974801       0.456751917895760       0.457514089816720     
  0.458276261737680       0.459038433658639       0.459800605579599     
  0.460562777500558       0.461324949421518       0.462087121342477     
  0.462849293263437       0.463611465184397       0.511549030750085     
  0.512311202671045       0.513073374592005       0.513835546512964     
  0.514597718433924       0.515359890354884       0.516122062275843     
  0.516884234196803       0.517646406117762       0.518408578038722     
  0.519170749959681       0.569427228891739       0.570189400812699     
  0.570951572733658       0.571713744654617       0.572475916575578     
  0.573238088496537       0.574000260417497       0.574762432338456     
  0.575524604259416       0.576286776180376       0.577048948101336     
  0.628711566640309       0.629473738561268       0.630235910482227     
  0.630998082403187       0.631760254324147       0.632522426245106     
  0.633284598166066       0.634046770087025       0.634808942007985     
  0.635571113928945       0.636333285849905       0.688467094574753     
  0.689229266495712       0.689991438416672       0.690753610337631     
  0.691515782258591       0.692277954179550       0.693040126100511     
  0.693802298021469       0.694564469942429       0.695326641863389     
  0.696088813784348       0.747751432323322       0.748513604244281     
  0.749275776165241       0.750037948086200       0.750800120007160     
  0.751562291928120       0.752324463849079       0.753086635770038     
  0.753848807690999       0.754610979611958       0.755373151532919     
  0.805629630464976       0.806391802385935       0.807153974306895     
  0.807916146227854       0.808678318148814       0.809440490069774     
  0.810202661990733       0.810964833911693       0.811727005832652     
  0.812489177753611       0.813251349674572       0.861188915240260     
  0.861951087161220       0.862713259082179       0.863475431003139     
  0.864237602924098       0.864999774845058       0.865761946766017     
  0.866524118686978       0.867286290607937       0.868048462528897     
  0.868810634449856       0.913553083538761       0.914315255459720     
  0.915077427380680       0.915839599301639       0.916601771222599     
  0.917363943143559       0.918126115064518       0.918888286985478     
  0.919650458906437       0.920412630827397       0.921174802748356     
  0.961896321145572       0.962658493066532       0.963420664987492     
  0.964182836908451       0.964945008829411       0.965707180750371     
  0.966469352671329       0.967231524592289       0.967993696513249     
  0.968755868434209       0.969518040355168        1.00545622632479     
   1.00621839824575        1.00698057016670        1.00774274208767     
   1.00850491400862        1.00926708592958        1.01002925785054     
   1.01079142977150        1.01155360169246        1.01231577361342     
   1.01307794553438        1.04354583335030        1.04430800527126     
   1.04507017719222        1.04583234911318        1.04659452103414     
   1.04735669295510        1.04811886487606        1.04888103679702     
   1.04964320871797        1.05040538063893        1.05116755255989     
   1.07556444636569        1.07632661828665        1.07708879020761     
   1.07785096212857        1.07861313404953        1.07937530597049     
   1.08013747789145        1.08089964981241        1.08166182173337     
   1.08242399365432        1.08318616557529        1.10100711271671     
   1.10176928463767        1.10253145655863        1.10329362847959     
   1.10405580040055        1.10481797232151        1.10558014424247     
   1.10634231616343        1.10710448808439        1.10786666000535     
   1.10862883192631        1.11947258635630        1.12023475827726     
   1.12099693019822        1.12175910211918        1.12252127404014     
   1.12328344596110        1.12404561788206        1.12480778980302     
   1.12556996172398        1.12633213364494        1.12709430556590     
   1.13066965573442        1.13143182765538        1.13219399957634     
   1.13295617149730        1.13371834341826        1.13448051533922     
   1.13524268726018        1.13600485918114        1.13676703110210     
   1.13752920302306        1.13829137494402        1.13442173637817     
   1.13518390829913        1.13594608022009        1.13670825214105     
   1.13747042406201        1.13823259598297        1.13899476790393     
   1.13975693982489        1.14051911174585        1.14128128366681     
   1.14204345558777     
  3.960717710078315E-002  3.564645939070483E-002  3.168574168062652E-002
  2.772502397054821E-002  2.376430626046989E-002  1.980358855039158E-002
  1.584287084031326E-002  1.188215313023495E-002  7.921435420156629E-003
  3.960717710078312E-003  0.000000000000000E+000  3.960717710078315E-002
  3.564645939070483E-002  3.168574168062652E-002  2.772502397054821E-002
  2.376430626046989E-002  1.980358855039158E-002  1.584287084031326E-002
  1.188215313023495E-002  7.921435420156629E-003  3.960717710078312E-003
  0.000000000000000E+000  3.960717710078315E-002  3.564645939070483E-002
  3.168574168062652E-002  2.772502397054821E-002  2.376430626046989E-002
  1.980358855039158E-002  1.584287084031326E-002  1.188215313023495E-002
  7.921435420156629E-003  3.960717710078312E-003  0.000000000000000E+000
  3.960717710078315E-002  3.564645939070483E-002  3.168574168062652E-002
  2.772502397054821E-002  2.376430626046989E-002  1.980358855039158E-002
  1.584287084031326E-002  1.188215313023495E-002  7.921435420156629E-003
  3.960717710078312E-003  0.000000000000000E+000  3.960717710078315E-002
  3.564645939070483E-002  3.168574168062652E-002  2.772502397054821E-002
  2.376430626046989E-002  1.980358855039158E-002  1.584287084031326E-002
  1.188215313023495E-002  7.921435420156629E-003  3.960717710078312E-003
  0.000000000000000E+000  3.960717710078315E-002  3.564645939070483E-002
  3.168574168062652E-002  2.772502397054821E-002  2.376430626046989E-002
  1.980358855039158E-002  1.584287084031326E-002  1.188215313023495E-002
  7.921435420156629E-003  3.960717710078312E-003  0.000000000000000E+000
  3.960717710078315E-002  3.564645939070483E-002  3.168574168062652E-002
  2.772502397054821E-002  2.376430626046989E-002  1.980358855039158E-002
  1.584287084031326E-002  1.188215313023495E-002  7.921435420156629E-003
  3.960717710078312E-003  0.000000000000000E+000  3.960717710078315E-002
  3.564645939070483E-002  3.168574168062652E-002  2.772502397054821E-002
  2.376430626046989E-002  1.980358855039158E-002  1.584287084031326E-002
  1.188215313023495E-002  7.921435420156629E-003  3.960717710078312E-003
  0.000000000000000E+000  3.960717710078315E-002  3.564645939070483E-002
  3.168574168062652E-002  2.772502397054821E-002  2.376430626046989E-002
  1.980358855039158E-002  1.584287084031326E-002  1.188215313023495E-002
  7.921435420156629E-003  3.960717710078312E-003  0.000000000000000E+000
  3.960717710078315E-002  3.564645939070483E-002  3.168574168062652E-002
  2.772502397054821E-002  2.376430626046989E-002  1.980358855039158E-002
  1.584287084031326E-002  1.188215313023495E-002  7.921435420156629E-003
  3.960717710078312E-003  0.000000000000000E+000  3.960717710078315E-002
  3.564645939070483E-002  3.168574168062652E-002  2.772502397054821E-002
  2.376430626046989E-002  1.980358855039158E-002  1.584287084031326E-002
  1.188215313023495E-002  7.921435420156629E-003  3.960717710078312E-003
  0.000000000000000E+000  3.960717710078315E-002  3.564645939070483E-002
  3.168574168062652E-002  2.772502397054821E-002  2.376430626046989E-002
  1.980358855039158E-002  1.584287084031326E-002  1.188215313023495E-002
  7.921435420156629E-003  3.960717710078312E-003  0.000000000000000E+000
  3.960717710078315E-002  3.564645939070483E-002  3.168574168062652E-002
  2.772502397054821E-002  2.376430626046989E-002  1.980358855039158E-002
  1.584287084031326E-002  1.188215313023495E-002  7.921435420156629E-003
  3.960717710078312E-003  0.000000000000000E+000  3.960717710078315E-002
  3.564645939070483E-002  3.168574168062652E-002  2.772502397054821E-002
  2.376430626046989E-002  1.980358855039158E-002  1.584287084031326E-002
  1.188215313023495E-002  7.921435420156629E-003  3.960717710078312E-003
  0.000000000000000E+000  3.960717710078315E-002  3.564645939070483E-002
  3.168574168062652E-002  2.772502397054821E-002  2.376430626046989E-002
  1.980358855039158E-002  1.584287084031326E-002  1.188215313023495E-002
  7.921435420156629E-003  3.960717710078312E-003  0.000000000000000E+000
  3.960717710078315E-002  3.564645939070483E-002  3.168574168062652E-002
  2.772502397054821E-002  2.376430626046989E-002  1.980358855039158E-002
  1.584287084031326E-002  1.188215313023495E-002  7.921435420156629E-003
  3.960717710078312E-003  0.000000000000000E+000  3.960717710078315E-002
  3.564645939070483E-002  3.168574168062652E-002  2.772502397054821E-002
  2.376430626046989E-002  1.980358855039158E-002  1.584287084031326E-002
  1.188215313023495E-002  7.921435420156629E-003  3.960717710078312E-003
  0.000000000000000E+000  3.960717710078315E-002  3.564645939070483E-002
  3.168574168062652E-002  2.772502397054821E-002  2.376430626046989E-002
  1.980358855039158E-002  1.584287084031326E-002  1.188215313023495E-002
  7.921435420156629E-003  3.960717710078312E-003  0.000000000000000E+000
  3.960717710078315E-002  3.564645939070483E-002  3.168574168062652E-002
  2.772502397054821E-002  2.376430626046989E-002  1.980358855039158E-002
  1.584287084031326E-002  1.188215313023495E-002  7.921435420156629E-003
  3.960717710078312E-003  0.000000000000000E+000  3.960717710078315E-002
  3.564645939070483E-002  3.168574168062652E-002  2.772502397054821E-002
  2.376430626046989E-002  1.980358855039158E-002  1.584287084031326E-002
  1.188215313023495E-002  7.921435420156629E-003  3.960717710078312E-003
  0.000000000000000E+000  3.960717710078315E-002  3.564645939070483E-002
  3.168574168062652E-002  2.772502397054821E-002  2.376430626046989E-002
  1.980358855039158E-002  1.584287084031326E-002  1.188215313023495E-002
  7.921435420156629E-003  3.960717710078312E-003  0.000000000000000E+000
  3.960717710078315E-002  3.564645939070483E-002  3.168574168062652E-002
  2.772502397054821E-002  2.376430626046989E-002  1.980358855039158E-002
  1.584287084031326E-002  1.188215313023495E-002  7.921435420156629E-003
  3.960717710078312E-003  0.000000000000000E+000  3.960717710078315E-002
  3.564645939070483E-002  3.168574168062652E-002  2.772502397054821E-002
  2.376430626046989E-002  1.980358855039158E-002  1.584287084031326E-002
  1.188215313023495E-002  7.921435420156629E-003  3.960717710078312E-003
  0.000000000000000E+000  3.960717710078315E-002  3.564645939070483E-002
  3.168574168062652E-002  2.772502397054821E-002  2.376430626046989E-002
  1.980358855039158E-002  1.584287084031326E-002  1.188215313023495E-002
  7.921435420156629E-003  3.960717710078312E-003  0.000000000000000E+000
  3.960717710078315E-002  3.564645939070483E-002  3.168574168062652E-002
  2.772502397054821E-002  2.376430626046989E-002  1.980358855039158E-002
  1.584287084031326E-002  1.188215313023495E-002  7.921435420156629E-003
  3.960717710078312E-003  0.000000000000000E+000  3.960717710078315E-002
  3.564645939070483E-002  3.168574168062652E-002  2.772502397054821E-002
  2.376430626046989E-002  1.980358855039158E-002  1.584287084031326E-002
  1.188215313023495E-002  7.921435420156629E-003  3.960717710078312E-003
  0.000000000000000E+000
  0.166120333699057       0.237963118930328       0.293604002988955     
  0.341372206482513       0.383406986466956       0.420527648165322     
  0.452968850512631       0.480670299899853       0.503558581874287     
  0.520576675309100       0.275018428524917       0.399866418298560     
  0.495185844899485       0.576396770449303       0.647611399884458     
  0.710407903304069       0.765314279498949       0.812440586197724     
  0.852066078862846       0.884374274549677       0.364569314399670     
  0.542568665735145       0.677090690522857       0.790247000708243     
  0.888788081026595       0.975413205822414        1.05120613852717     
   1.11670891421474        1.17248642253023        1.21770131846951     
  0.429431964390024       0.648426618518593       0.814828778514980     
  0.953939999446739        1.07430243136356        1.17953005838472     
   1.27112837135014        1.34959670108416        1.41466290578409     
   1.46327443452674       0.475016658252972       0.721458172848945     
  0.909807297464663        1.06709431611087        1.20265044356494     
   1.32052531256883        1.42249070424516        1.50904016504275     
   1.57933442939977        1.62935992159683       0.511280671959103     
  0.776821007151952       0.979604054107650        1.14852023189487     
   1.29358204012853        1.41918138636144        1.52722812170700     
   1.61809750270232        1.69065568557845        1.74068039977666     
  0.552673097012269       0.836860301727764        1.05215984548465     
   1.23027343725946        1.38226337249615        1.51302636419814     
   1.62476611968384        1.71803957555759        1.79178900516013     
   1.84175376509266       0.614117540698845       0.924414921222127     
   1.15624607268400        1.34584633234647        1.50606912119978     
   1.64274563340819        1.75862714854278        1.85458968132352     
   1.92974131742411        1.97988425419490       0.705619597898061     
   1.05502874783523        1.31179469148160        1.51890913735653     
   1.69187903803356        1.83789362859562        1.96049968854996     
   2.06108973566596        2.13909350504676        2.19035800385598     
  0.829269161264657        1.23263292047022        1.52450733399263     
   1.75681245462303        1.94855657936371        2.10875160846662     
   2.24203876051021        2.35049214131538        2.43390188812101     
   2.48807530874926       0.981423393642257        1.45230337333325     
   1.78882777229084        2.05371141159959        2.27019317966338     
   2.44946813888654        2.59746287878475        2.71704232942439     
   2.80841104967450        2.86730208102075        1.15667409569180     
   1.70613532728972        2.09516352412139        2.39872663626299     
   2.64483768409980        2.84715231334728        3.01304433117653     
   3.14625947685591        3.24746510049272        3.31233588113841     
   1.35004574481728        1.98657507083844        2.43397551026000     
   2.78064653592194        3.05982889686272        3.28786985541453     
   3.47372413387131        3.62211158171266        3.73423744580181     
   3.80575415046666        1.55764265723372        2.28741518006963     
   2.79711303463481        3.18958201675512        3.50369957628497     
   3.75873486842427        3.96538204866114        4.12944995310149     
   4.25276501525689        4.33103143053754        1.77706220360796     
   2.60433419187086        3.17838855947471        3.61753806223571     
   3.96675091044087        4.24849662888436        4.47540426802023     
   4.65451677791583        4.78840504031542        4.87296357130918     
   2.00635818944980        2.93325874650867        3.57151213575311     
   4.05607364219879        4.43855331883327        4.74495031582521     
   4.99005913353361        5.18233947494255        5.32526760612737     
   5.41511307925645        2.23750648174253        3.26128625264657     
   3.95959534440332        4.48495246705268        4.89608455242700     
   5.22280097528348        5.48224150377927        5.68442251001032     
   5.83387272838739        5.92745672895617        2.44515753395147     
   3.55124668063585        4.29732823231753        4.85272933157812     
   5.28312679440353        5.62208794435365        5.88906343746342     
   6.09561198379628        6.24738258879695        6.34213201810240     
   2.58834896676415        3.74361435784946        4.51261635472268     
   5.07791323342437        5.51088336708812        5.84823864224639     
   6.11135841036954        6.31308525306159        6.46009872531612     
   6.55143294936419        2.63184087886811        3.78571223458570     
   4.54043084495666        5.08628855248798        5.49835090932742     
   5.81532501892800        6.05968403315128        6.24491285888855     
   6.37830283353221        6.46031328963077        2.55916580707954     
   3.65045312042924        4.34629415683174        4.83906622016990     
   5.20496074133632        5.48282934814482        5.69480058749194     
   5.85390992124111        5.96722312532127        6.03600475826777     
   2.36401490796351        3.32536640235189        3.91653856849319     
   4.32550132995917        4.62491831512467        4.85044453417602     
   5.02176349092039        5.15035499586867        5.24263888950523     
   5.30000811382841        2.03671275017246        2.79850077560373     
   3.24860265936131        3.55532111130294        3.77876602997659     
   3.94699118251231        4.07524716448601        4.17283813627558     
   4.24652975661358        4.30225998563743        1.55625435314246     
   2.06973724985186        2.36882335466442        2.57303394329456     
   2.72234480242118        2.83517086610674        2.92155142877477     
   2.98767369389020        3.03819205170162        3.07969001982331     
  0.946026840483920        1.23345057850633        1.40239484363976     
   1.51837050730998        1.60344787986775        1.66786351829676     
   1.71718865550508        1.75471618973095        1.78235533131826     
   1.79978596136679     
  0.000000000000000E+000  0.000000000000000E+000  0.000000000000000E+000
  0.000000000000000E+000  0.000000000000000E+000  0.000000000000000E+000
  0.000000000000000E+000  0.000000000000000E+000  0.000000000000000E+000
  0.000000000000000E+000  0.000000000000000E+000  0.000000000000000E+000
  0.000000000000000E+000  0.000000000000000E+000  0.000000000000000E+000
  0.000000000000000E+000  0.000000000000000E+000  0.000000000000000E+000
  0.000000000000000E+000  0.000000000000000E+000  0.000000000000000E+000
  0.000000000000000E+000  0.000000000000000E+000  0.000000000000000E+000
  0.000000000000000E+000  0.000000000000000E+000  0.000000000000000E+000
  0.000000000000000E+000  0.000000000000000E+000  0.000000000000000E+000
  0.000000000000000E+000  0.000000000000000E+000  0.000000000000000E+000
  0.000000000000000E+000  0.000000000000000E+000  0.000000000000000E+000
  0.000000000000000E+000  0.000000000000000E+000  0.000000000000000E+000
  0.000000000000000E+000  0.000000000000000E+000  0.000000000000000E+000
  0.000000000000000E+000  0.000000000000000E+000  0.000000000000000E+000
  0.000000000000000E+000  0.000000000000000E+000  0.000000000000000E+000
  0.000000000000000E+000  0.000000000000000E+000  0.000000000000000E+000
  0.000000000000000E+000  0.000000000000000E+000  0.000000000000000E+000
  0.000000000000000E+000  0.000000000000000E+000  0.000000000000000E+000
  0.000000000000000E+000  0.000000000000000E+000  0.000000000000000E+000
  0.000000000000000E+000  0.000000000000000E+000  0.000000000000000E+000
  0.000000000000000E+000  0.000000000000000E+000  0.000000000000000E+000
  0.000000000000000E+000  0.000000000000000E+000  0.000000000000000E+000
  0.000000000000000E+000  0.000000000000000E+000  0.000000000000000E+000
  0.000000000000000E+000  0.000000000000000E+000  0.000000000000000E+000
  0.000000000000000E+000  0.000000000000000E+000  0.000000000000000E+000
  0.000000000000000E+000  0.000000000000000E+000  0.000000000000000E+000
  0.000000000000000E+000  0.000000000000000E+000  0.000000000000000E+000
  0.000000000000000E+000  0.000000000000000E+000  0.000000000000000E+000
  0.000000000000000E+000  0.000000000000000E+000  0.000000000000000E+000
  0.000000000000000E+000  0.000000000000000E+000  0.000000000000000E+000
  0.000000000000000E+000  0.000000000000000E+000  0.000000000000000E+000
  0.000000000000000E+000  0.000000000000000E+000  0.000000000000000E+000
  0.000000000000000E+000  0.000000000000000E+000  0.000000000000000E+000
  0.000000000000000E+000  0.000000000000000E+000  0.000000000000000E+000
  0.000000000000000E+000  0.000000000000000E+000  0.000000000000000E+000
  0.000000000000000E+000  0.000000000000000E+000  0.000000000000000E+000
  0.000000000000000E+000  0.000000000000000E+000  0.000000000000000E+000
  0.000000000000000E+000  0.000000000000000E+000  0.000000000000000E+000