 Title = "Wing and Wake"
 VARIABLES = "X" "Y" "Z" "GAM" "skew"
 Zone I=   11 J=   26 K=1  T="Blade"
 DATAPACKING=BLOCK
 VARLOCATION=([4]=CELLCENTERED,[5]=CELLCENTERED)
  0.109326366535084       9.183234213592743E-002  7.433831773677010E-002
  5.684429333761255E-002  3.935026893845504E-002  2.185624453929778E-002
  4.362220140140457E-003 -1.313180425901691E-002 -3.062582865817390E-002
 -4.811985305733150E-002 -6.561387745648882E-002  0.108033214349875     
  9.053918995071721E-002  7.304516555155968E-002  5.555114115240278E-002
  3.805711675324506E-002  2.056309235408785E-002  3.069067954930423E-003
 -1.442495644422663E-002 -3.191898084338422E-002 -4.941300524254131E-002
 -6.690702964169885E-002  0.104174151576697       8.668012717753999E-002
  6.918610277838233E-002  5.169207837922508E-002  3.419805398006784E-002
  1.670402958091048E-002 -7.899948182470743E-004 -1.828401921740410E-002
 -3.577804361656119E-002 -5.327206801571874E-002 -7.076609241487603E-002
  9.781003794077758E-002  8.031601354162010E-002  6.282198914246256E-002
  4.532796474330560E-002  2.783394034414818E-002  1.033991594499084E-002
 -7.154108454166193E-003 -2.464813285332374E-002 -4.214215725248122E-002
 -5.963618165163863E-002 -7.713020605079528E-002  8.904123931589152E-002
  7.154721491673473E-002  5.405319051757681E-002  3.655916611841966E-002
  1.906514171926229E-002  1.571117320104947E-003 -1.592290707905258E-002
 -3.341693147820955E-002 -5.091095587736702E-002 -6.840498027652413E-002
 -8.589900467568153E-002  7.800604489457996E-002  6.051202049542273E-002
  4.301799609626530E-002  2.552397169710798E-002  8.029947297950906E-003
 -9.464077101206952E-003 -2.695810150036413E-002 -4.445212589952121E-002
 -6.194615029867883E-002 -7.944017469783603E-002 -9.693419909699363E-002
  6.487848628497253E-002  4.738446188581517E-002  2.989043748665821E-002
  1.239641308750065E-002 -5.097611311656509E-003 -2.259163571081437E-002
 -4.008566010997131E-002 -5.757968450912847E-002 -7.507370890828545E-002
 -9.256773330744275E-002 -0.110061757706600       4.986559292836607E-002
  3.237156852920874E-002  1.487754413005116E-002 -2.616480269105806E-003
 -2.011050466826316E-002 -3.760452906742043E-002 -5.509855346657772E-002
 -7.259257786573489E-002 -9.008660226489255E-002 -0.107580626664049     
 -0.125074651063207       3.320412712126259E-002  1.571010272210422E-002
 -1.783921677052512E-003 -1.927794607620977E-002 -3.677197047536696E-002
 -5.426599487452436E-002 -7.176001927368179E-002 -8.925404367283919E-002
 -0.106748068071997      -0.124242092471154      -0.141736116870311     
  1.515685013251598E-002 -2.337174266641207E-003 -1.983119866579862E-002
 -3.732522306495631E-002 -5.481924746411344E-002 -7.231327186327026E-002
 -8.980729626242795E-002 -0.107301320661585      -0.124795345060742     
 -0.142289369459900      -0.159783393859057      -3.991621698839458E-003
 -2.148564609799687E-002 -3.897967049715386E-002 -5.647369489631081E-002
 -7.396771929546857E-002 -9.146174369462623E-002 -0.108955768093782     
 -0.126449792492941      -0.143943816892097      -0.161437841291255     
 -0.178931865690413      -2.393930553328093E-002 -4.143332993243748E-002
 -5.892735433159598E-002 -7.642137873075244E-002 -9.391540312990988E-002
 -0.111409427529067      -0.128903451928224      -0.146397476327382     
 -0.163891500726539      -0.181385525125696      -0.198879549524853     
 -4.437161448057016E-002 -6.186563887972749E-002 -7.935966327888509E-002
 -9.685368767804170E-002 -0.114347712077199      -0.131841736476356     
 -0.149335760875514      -0.166829785274672      -0.184323809673829     
 -0.201817834072986      -0.219311858472143      -6.496631882293885E-002
 -8.246034322209710E-002 -9.995436762125279E-002 -0.117448392020410     
 -0.134942416419568      -0.152436440818726      -0.169930465217884     
 -0.187424489617039      -0.204918514016198      -0.222412538415355     
 -0.239906562814512      -8.539862777022827E-002 -0.102892652169385     
 -0.120386676568543      -0.137880700967700      -0.155374725366858     
 -0.172868749766015      -0.190362774165172      -0.207856798564331     
 -0.225350822963486      -0.242844847362643      -0.260338871761802     
 -0.105346311604669      -0.122840336003827      -0.140334360402985     
 -0.157828384802140      -0.175322409201299      -0.192816433600456     
 -0.210310457999612      -0.227804482398770      -0.245298506797928     
 -0.262792531197084      -0.280286555596243      -0.124494783436025     
 -0.141988807835182      -0.159482832234339      -0.176976856633496     
 -0.194470881032654      -0.211964905431812      -0.229458929830969     
 -0.246952954230126      -0.264446978629283      -0.281941003028442     
 -0.299435027427598      -0.142542060424770      -0.160036084823928     
 -0.177530109223086      -0.195024133622243      -0.212518158021400     
 -0.230012182420558      -0.247506206819715      -0.265000231218873     
 -0.282494255618029      -0.299988280017186      -0.317482304416343     
 -0.159203526231876      -0.176697550631032      -0.194191575030190     
 -0.211685599429347      -0.229179623828504      -0.246673648227662     
 -0.264167672626818      -0.281661697025976      -0.299155721425133     
 -0.316649745824292      -0.334143770223447      -0.174216419588481     
 -0.191710443987639      -0.209204468386796      -0.226698492785954     
 -0.244192517185110      -0.261686541584269      -0.279180565983424     
 -0.296674590382583      -0.314168614781741      -0.331662639180898     
 -0.349156663580053      -0.187343978198090      -0.204838002597247     
 -0.222332026996403      -0.239826051395560      -0.257320075794718     
 -0.274814100193875      -0.292308124593034      -0.309802148992190     
 -0.327296173391346      -0.344790197790506      -0.362284222189661     
 -0.198379172619399      -0.215873197018556      -0.233367221417716     
 -0.250861245816873      -0.268355270216028      -0.285849294615188     
 -0.303343319014345      -0.320837343413501      -0.338331367812658     
 -0.355825392211817      -0.373319416610976      -0.207147971244287     
 -0.224641995643443      -0.242136020042601      -0.259630044441758     
 -0.277124068840916      -0.294618093240073      -0.312112117639230     
 -0.329606142038388      -0.347100166437545      -0.364594190836701     
 -0.382088215235859      -0.213512084880205      -0.231006109279362     
 -0.248500133678520      -0.265994158077677      -0.283488182476835     
 -0.300982206875993      -0.318476231275150      -0.335970255674308     
 -0.353464280073463      -0.370958304472623      -0.388452328871780     
 -0.217371147653383      -0.234865172052540      -0.252359196451696     
 -0.269853220850855      -0.287347245250012      -0.304841269649171     
 -0.322335294048328      -0.339829318447484      -0.357323342846642     
 -0.374817367245799      -0.392311391644956      -0.218664299838592     
 -0.236158324237751      -0.253652348636907      -0.271146373036066     
 -0.288640397435223      -0.306134421834380      -0.323628446233537     
 -0.341122470632694      -0.358616495031852      -0.376110519431009     
 -0.393604543830168     
 -0.243051506175033      -0.236634783838610      -0.230218061502187     
 -0.223801339165764      -0.217384616829340      -0.210967894492917     
 -0.204551172156493      -0.198134449820070      -0.191717727483647     
 -0.185301005147223      -0.178884282810800      -0.246577050010938     
 -0.240160327674515      -0.233743605338091      -0.227326883001668     
 -0.220910160665244      -0.214493438328821      -0.208076715992397     
 -0.201659993655974      -0.195243271319551      -0.188826548983128     
 -0.182409826646704      -0.257098081586301      -0.250681359249877     
 -0.244264636913453      -0.237847914577030      -0.231431192240607     
 -0.225014469904184      -0.218597747567760      -0.212181025231337     
 -0.205764302894914      -0.199347580558490      -0.192930858222067     
 -0.274448677948219      -0.268031955611795      -0.261615233275372     
 -0.255198510938949      -0.248781788602526      -0.242365066266102     
 -0.235948343929679      -0.229531621593255      -0.223114899256832     
 -0.216698176920409      -0.210281454583985      -0.298355209827321     
 -0.291938487490897      -0.285521765154474      -0.279105042818051     
 -0.272688320481627      -0.266271598145204      -0.259854875808781     
 -0.253438153472357      -0.247021431135934      -0.240604708799511     
 -0.234187986463087      -0.328440656934803      -0.322023934598381     
 -0.315607212261957      -0.309190489925533      -0.302773767589110     
 -0.296357045252688      -0.289940322916264      -0.283523600579840     
 -0.277106878243417      -0.270690155906993      -0.264273433570570     
 -0.364230553797607      -0.357813831461184      -0.351397109124761     
 -0.344980386788337      -0.338563664451913      -0.332146942115491     
 -0.325730219779068      -0.319313497442644      -0.312896775106220     
 -0.306480052769796      -0.300063330433373      -0.405160472362357     
 -0.398743750025933      -0.392327027689511      -0.385910305353088     
 -0.379493583016664      -0.373076860680240      -0.366660138343817     
 -0.360243416007394      -0.353826693670970      -0.347409971334547     
 -0.340993248998125      -0.450584923362939      -0.444168201026516     
 -0.437751478690093      -0.431334756353670      -0.424918034017247     
 -0.418501311680822      -0.412084589344399      -0.405667867007976     
 -0.399251144671553      -0.392834422335129      -0.386417699998706     
 -0.499787536071822      -0.493370813735399      -0.486954091398976     
 -0.480537369062552      -0.474120646726130      -0.467703924389705     
 -0.461287202053282      -0.454870479716860      -0.448453757380435     
 -0.442037035044011      -0.435620312707589      -0.551992355894373     
 -0.545575633557949      -0.539158911221525      -0.532742188885102     
 -0.526325466548678      -0.519908744212256      -0.513492021875830     
 -0.507075299539408      -0.500658577202984      -0.494241854866561     
 -0.487825132530137      -0.606376081636337      -0.599959359299913     
 -0.593542636963491      -0.587125914627065      -0.580709192290643     
 -0.574292469954221      -0.567875747617797      -0.561459025281373     
 -0.555042302944949      -0.548625580608526      -0.542208858272103     
 -0.662081049455505      -0.655664327119082      -0.649247604782657     
 -0.642830882446235      -0.636414160109812      -0.629997437773388     
 -0.623580715436965      -0.617163993100542      -0.610747270764118     
 -0.604330548427695      -0.597913826091271      -0.718228758732834     
 -0.711812036396409      -0.705395314059986      -0.698978591723561     
 -0.692561869387139      -0.686145147050716      -0.679728424714293     
 -0.673311702377869      -0.666894980041448      -0.660478257705022     
 -0.654061535368599      -0.773933726552000      -0.767517004215576     
 -0.761100281879154      -0.754683559542729      -0.748266837206306     
 -0.741850114869886      -0.735433392533460      -0.729016670197036     
 -0.722599947860612      -0.716183225524188      -0.709766503187768     
 -0.828317452293966      -0.821900729957541      -0.815484007621119     
 -0.809067285284696      -0.802650562948274      -0.796233840611850     
 -0.789817118275425      -0.783400395939003      -0.776983673602579     
 -0.770566951266154      -0.764150228929733      -0.880522272116515     
 -0.874105549780092      -0.867688827443667      -0.861272105107245     
 -0.854855382770821      -0.848438660434398      -0.842021938097974     
 -0.835605215761552      -0.829188493425128      -0.822771771088705     
 -0.816355048752282      -0.929724884825398      -0.923308162488974     
 -0.916891440152551      -0.910474717816128      -0.904057995479705     
 -0.897641273143282      -0.891224550806858      -0.884807828470434     
 -0.878391106134010      -0.871974383797587      -0.865557661461163     
 -0.975149335825979      -0.968732613489555      -0.962315891153132     
 -0.955899168816709      -0.949482446480286      -0.943065724143863     
 -0.936649001807438      -0.930232279471016      -0.923815557134594     
 -0.917398834798169      -0.910982112461745       -1.01607925439073     
  -1.00966253205431       -1.00324580971788      -0.996829087381460     
 -0.990412365045037      -0.983995642708611      -0.977578920372190     
 -0.971162198035768      -0.964745475699342      -0.958328753362920     
 -0.951912031026496       -1.05186915125353       -1.04545242891711     
  -1.03903570658068       -1.03261898424426       -1.02620226190784     
  -1.01978553957142       -1.01336881723499       -1.00695209489857     
  -1.00053537256215      -0.994118650225723      -0.987701927889298     
  -1.08195459836102       -1.07553787602459       -1.06912115368817     
  -1.06270443135175       -1.05628770901532       -1.04987098667890     
  -1.04345426434248       -1.03703754200605       -1.03062081966963     
  -1.02420409733321       -1.01778737499678       -1.10586113024012     
  -1.09944440790369       -1.09302768556727       -1.08661096323085     
  -1.08019424089443       -1.07377751855800       -1.06736079622158     
  -1.06094407388516       -1.05452735154873       -1.04811062921231     
  -1.04169390687588       -1.12321172660204       -1.11679500426561     
  -1.11037828192919       -1.10396155959277       -1.09754483725634     
  -1.09112811491992       -1.08471139258350       -1.07829467024707     
  -1.07187794791065       -1.06546122557423       -1.05904450323780     
  -1.13373275817740       -1.12731603584098       -1.12089931350455     
  -1.11448259116813       -1.10806586883170       -1.10164914649528     
  -1.09523242415886       -1.08881570182243       -1.08239897948601     
  -1.07598225714959       -1.06956553481316       -1.13725830201330     
  -1.13084157967688       -1.12442485734046       -1.11800813500403     
  -1.11159141266761       -1.10517469033119       -1.09875796799476     
  -1.09234124565834       -1.08592452332192       -1.07950780098549     
  -1.07309107864907     
  3.960717710078315E-002  3.564645939070483E-002  3.168574168062652E-002
  2.772502397054821E-002  2.376430626046989E-002  1.980358855039158E-002
  1.584287084031326E-002  1.188215313023495E-002  7.921435420156629E-003
  3.960717710078312E-003  0.000000000000000E+000  3.960717710078315E-002
  3.564645939070483E-002  3.168574168062652E-002  2.772502397054821E-002
  2.376430626046989E-002  1.980358855039158E-002  1.584287084031326E-002
  1.188215313023495E-002  7.921435420156629E-003  3.960717710078312E-003
  0.000000000000000E+000  3.960717710078315E-002  3.564645939070483E-002
  3.168574168062652E-002  2.772502397054821E-002  2.376430626046989E-002
  1.980358855039158E-002  1.584287084031326E-002  1.188215313023495E-002
  7.921435420156629E-003  3.960717710078312E-003  0.000000000000000E+000
  3.960717710078315E-002  3.564645939070483E-002  3.168574168062652E-002
  2.772502397054821E-002  2.376430626046989E-002  1.980358855039158E-002
  1.584287084031326E-002  1.188215313023495E-002  7.921435420156629E-003
  3.960717710078312E-003  0.000000000000000E+000  3.960717710078315E-002
  3.564645939070483E-002  3.168574168062652E-002  2.772502397054821E-002
  2.376430626046989E-002  1.980358855039158E-002  1.584287084031326E-002
  1.188215313023495E-002  7.921435420156629E-003  3.960717710078312E-003
  0.000000000000000E+000  3.960717710078315E-002  3.564645939070483E-002
  3.168574168062652E-002  2.772502397054821E-002  2.376430626046989E-002
  1.980358855039158E-002  1.584287084031326E-002  1.188215313023495E-002
  7.921435420156629E-003  3.960717710078312E-003  0.000000000000000E+000
  3.960717710078315E-002  3.564645939070483E-002  3.168574168062652E-002
  2.772502397054821E-002  2.376430626046989E-002  1.980358855039158E-002
  1.584287084031326E-002  1.188215313023495E-002  7.921435420156629E-003
  3.960717710078312E-003  0.000000000000000E+000  3.960717710078315E-002
  3.564645939070483E-002  3.168574168062652E-002  2.772502397054821E-002
  2.376430626046989E-002  1.980358855039158E-002  1.584287084031326E-002
  1.188215313023495E-002  7.921435420156629E-003  3.960717710078312E-003
  0.000000000000000E+000  3.960717710078315E-002  3.564645939070483E-002
  3.168574168062652E-002  2.772502397054821E-002  2.376430626046989E-002
  1.980358855039158E-002  1.584287084031326E-002  1.188215313023495E-002
  7.921435420156629E-003  3.960717710078312E-003  0.000000000000000E+000
  3.960717710078315E-002  3.564645939070483E-002  3.168574168062652E-002
  2.772502397054821E-002  2.376430626046989E-002  1.980358855039158E-002
  1.584287084031326E-002  1.188215313023495E-002  7.921435420156629E-003
  3.960717710078312E-003  0.000000000000000E+000  3.960717710078315E-002
  3.564645939070483E-002  3.168574168062652E-002  2.772502397054821E-002
  2.376430626046989E-002  1.980358855039158E-002  1.584287084031326E-002
  1.188215313023495E-002  7.921435420156629E-003  3.960717710078312E-003
  0.000000000000000E+000  3.960717710078315E-002  3.564645939070483E-002
  3.168574168062652E-002  2.772502397054821E-002  2.376430626046989E-002
  1.980358855039158E-002  1.584287084031326E-002  1.188215313023495E-002
  7.921435420156629E-003  3.960717710078312E-003  0.000000000000000E+000
  3.960717710078315E-002  3.564645939070483E-002  3.168574168062652E-002
  2.772502397054821E-002  2.376430626046989E-002  1.980358855039158E-002
  1.584287084031326E-002  1.188215313023495E-002  7.921435420156629E-003
  3.960717710078312E-003  0.000000000000000E+000  3.960717710078315E-002
  3.564645939070483E-002  3.168574168062652E-002  2.772502397054821E-002
  2.376430626046989E-002  1.980358855039158E-002  1.584287084031326E-002
  1.188215313023495E-002  7.921435420156629E-003  3.960717710078312E-003
  0.000000000000000E+000  3.960717710078315E-002  3.564645939070483E-002
  3.168574168062652E-002  2.772502397054821E-002  2.376430626046989E-002
  1.980358855039158E-002  1.584287084031326E-002  1.188215313023495E-002
  7.921435420156629E-003  3.960717710078312E-003  0.000000000000000E+000
  3.960717710078315E-002  3.564645939070483E-002  3.168574168062652E-002
  2.772502397054821E-002  2.376430626046989E-002  1.980358855039158E-002
  1.584287084031326E-002  1.188215313023495E-002  7.921435420156629E-003
  3.960717710078312E-003  0.000000000000000E+000  3.960717710078315E-002
  3.564645939070483E-002  3.168574168062652E-002  2.772502397054821E-002
  2.376430626046989E-002  1.980358855039158E-002  1.584287084031326E-002
  1.188215313023495E-002  7.921435420156629E-003  3.960717710078312E-003
  0.000000000000000E+000  3.960717710078315E-002  3.564645939070483E-002
  3.168574168062652E-002  2.772502397054821E-002  2.376430626046989E-002
  1.980358855039158E-002  1.584287084031326E-002  1.188215313023495E-002
  7.921435420156629E-003  3.960717710078312E-003  0.000000000000000E+000
  3.960717710078315E-002  3.564645939070483E-002  3.168574168062652E-002
  2.772502397054821E-002  2.376430626046989E-002  1.980358855039158E-002
  1.584287084031326E-002  1.188215313023495E-002  7.921435420156629E-003
  3.960717710078312E-003  0.000000000000000E+000  3.960717710078315E-002
  3.564645939070483E-002  3.168574168062652E-002  2.772502397054821E-002
  2.376430626046989E-002  1.980358855039158E-002  1.584287084031326E-002
  1.188215313023495E-002  7.921435420156629E-003  3.960717710078312E-003
  0.000000000000000E+000  3.960717710078315E-002  3.564645939070483E-002
  3.168574168062652E-002  2.772502397054821E-002  2.376430626046989E-002
  1.980358855039158E-002  1.584287084031326E-002  1.188215313023495E-002
  7.921435420156629E-003  3.960717710078312E-003  0.000000000000000E+000
  3.960717710078315E-002  3.564645939070483E-002  3.168574168062652E-002
  2.772502397054821E-002  2.376430626046989E-002  1.980358855039158E-002
  1.584287084031326E-002  1.188215313023495E-002  7.921435420156629E-003
  3.960717710078312E-003  0.000000000000000E+000  3.960717710078315E-002
  3.564645939070483E-002  3.168574168062652E-002  2.772502397054821E-002
  2.376430626046989E-002  1.980358855039158E-002  1.584287084031326E-002
  1.188215313023495E-002  7.921435420156629E-003  3.960717710078312E-003
  0.000000000000000E+000  3.960717710078315E-002  3.564645939070483E-002
  3.168574168062652E-002  2.772502397054821E-002  2.376430626046989E-002
  1.980358855039158E-002  1.584287084031326E-002  1.188215313023495E-002
  7.921435420156629E-003  3.960717710078312E-003  0.000000000000000E+000
  3.960717710078315E-002  3.564645939070483E-002  3.168574168062652E-002
  2.772502397054821E-002  2.376430626046989E-002  1.980358855039158E-002
  1.584287084031326E-002  1.188215313023495E-002  7.921435420156629E-003
  3.960717710078312E-003  0.000000000000000E+000  3.960717710078315E-002
  3.564645939070483E-002  3.168574168062652E-002  2.772502397054821E-002
  2.376430626046989E-002  1.980358855039158E-002  1.584287084031326E-002
  1.188215313023495E-002  7.921435420156629E-003  3.960717710078312E-003
  0.000000000000000E+000
  5.671000047097852E-002  9.773325022722371E-002  0.138416519234775     
  0.179434113384914       0.219939866276903       0.259803319763852     
  0.299261074271033       0.337975184167771       0.375466827414700     
  0.410399805836442       9.321860431763401E-002  0.161718505239275     
  0.229396783308236       0.297627484143517       0.365156468484258     
  0.431845806803608       0.497975674139104       0.563147558781363     
  0.626851452829933       0.688530553546264       0.122319426148352     
  0.213145278585842       0.302215203410904       0.391911813316559     
  0.481080807650970       0.569648162069674       0.657984283069692     
  0.745494254688917       0.831625767955368       0.914769637051008     
  0.146561370642919       0.251359974625551       0.352105488320329     
  0.452830705071809       0.553410809843400       0.653568236165881     
  0.753216498086820       0.851345803357649       0.946408743815299     
   1.03386417446416       0.176892311645757       0.292927249641336     
  0.399197855185349       0.502614910523061       0.604745267294618     
  0.705659587308735       0.804813427797068       0.901096920272459     
  0.992759974576278        1.07472318728620       0.225042985577200     
  0.358560431073024       0.472920064037473       0.578894128573525     
  0.679833837111350       0.776789321877008       0.869752069449623     
  0.958088956058389        1.04047748231412        1.11259591688250     
  0.299389968872886       0.462458645673988       0.593336053692401     
  0.708346530843485       0.813124040943587       0.910095791631690     
   1.00028411737332        1.08390635007497        1.16030013752135     
   1.22567065456307       0.403849677732251       0.611246770083733     
  0.769678028612112       0.903048384390598        1.01999117295463     
   1.12456934515310        1.21888840816563        1.30391831182158     
   1.37945272627177        1.44190819867691       0.537314985821025     
  0.803566018568096        1.00046674120917        1.16133207785328     
   1.29844312370640        1.41772566569250        1.52236083486761     
   1.61394385122992        1.69255536570916        1.75460976870884     
  0.695021615026192        1.03218724177824        1.27648315760890     
   1.47211912274009        1.63555835998626        1.77482969486592     
   1.89429751050309        1.99621116752573        2.08090746955280     
   2.14467465081623       0.871505411103526        1.28871796597312     
   1.58700877329765        1.82266364175944        2.01676856101973     
   2.17967074483051        2.31703826432516        2.43185149049369     
   2.52474846773861        2.59188337192169        1.06217627266687     
   1.56610242313084        1.92304509855761        2.20229840252176     
   2.42993047848710        2.61879842685492        2.77599696770919     
   2.90532051866940        3.00776958470273        3.07939555030750     
   1.26334405734394        1.85868367665002        2.27739278348672     
   2.60250451762121        2.86536064685694        3.08148566138208     
   3.25950845355448        3.40413037782599        3.51680161913170     
   3.59351586732354        1.47248076758433        2.16250433486054     
   2.64489456280556        3.01702425936038        3.31577003934242     
   3.55948352929599        3.75844417263506        3.91836039000042     
   4.04122521049528        4.12306249959662        1.69027519528312     
   2.47799384108540        3.02535584562202        3.44483055436370     
   3.77919373727721        4.04986341578942        4.26894531828218     
   4.44329237185377        4.57556919645482        4.66198551814870     
   1.92474197012923        2.81520917821306        3.42919297073910     
   3.89594133695103        4.26491853934461        4.56108231816982     
   4.79867641152861        4.98591301008020        5.12628541059685     
   5.21634342833674        2.18953795111527        3.19104511235418     
   3.87394197393688        4.38766189155499        4.78985893484718     
   5.10980505869006        5.36429245021845        5.56311472832607     
   5.71071632507607        5.80402230917588        2.47327237075641     
   3.58787861661746        4.33747236149334        4.89457007341572     
   5.32623827538820        5.66661858566356        5.93531445039171     
   6.14385991895089        6.29779211359680        6.39452615525172     
   2.71125511631666        3.91381854314754        4.71060379654925     
   5.29496434917791        5.74250417934397        6.09178256176925     
   6.36502601073732        6.57548787626691        6.72996848047053     
   6.82703199364432        2.82271424941733        4.05269087210449     
   4.85351132873518        5.43133571107904        5.86747971414855     
   6.20357362424062        6.46356163948399        6.66170271005863     
   6.80561819342014        6.89542775282645        2.77467653872693     
   3.95303195725573        4.70204767889514        5.23159749197743     
   5.62484580543121        5.92407666238203        6.15322611323288     
   6.32627380128984        6.45067616012097        6.52743641561857     
   2.57129073973216        3.61492460658646        4.25575577632980     
   4.69884342121964        5.02351805294247        5.26867226116457     
   5.45570029533557        5.59698425046635        5.69931537025382     
   5.76381811327824        2.21556656924399        3.04411879446841     
   3.53360365390383        3.86732718934340        4.11084291303286     
   4.29474794695156        4.43563438535869        4.54355694009924     
   4.62572398129359        4.68823914520767        1.69185410520187     
   2.25075733553142        2.57652748376377        2.79921036274943     
   2.96237871692621        3.08611479074497        3.18134428817767     
   3.25475707530294        3.31131633393929        3.35793975013059     
   1.02808771272993        1.34103282752077        1.52515575801371     
   1.65172264267040        1.74478780773997        1.81551473319681     
   1.86996693303224        1.91170350869963        1.94274355006862     
   1.96259389832351     
  0.000000000000000E+000  0.000000000000000E+000  0.000000000000000E+000
  0.000000000000000E+000  0.000000000000000E+000  0.000000000000000E+000
  0.000000000000000E+000  0.000000000000000E+000  0.000000000000000E+000
  0.000000000000000E+000  0.000000000000000E+000  0.000000000000000E+000
  0.000000000000000E+000  0.000000000000000E+000  0.000000000000000E+000
  0.000000000000000E+000  0.000000000000000E+000  0.000000000000000E+000
  0.000000000000000E+000  0.000000000000000E+000  0.000000000000000E+000
  0.000000000000000E+000  0.000000000000000E+000  0.000000000000000E+000
  0.000000000000000E+000  0.000000000000000E+000  0.000000000000000E+000
  0.000000000000000E+000  0.000000000000000E+000  0.000000000000000E+000
  0.000000000000000E+000  0.000000000000000E+000  0.000000000000000E+000
  0.000000000000000E+000  0.000000000000000E+000  0.000000000000000E+000
  0.000000000000000E+000  0.000000000000000E+000  0.000000000000000E+000
  0.000000000000000E+000  0.000000000000000E+000  0.000000000000000E+000
  0.000000000000000E+000  0.000000000000000E+000  0.000000000000000E+000
  0.000000000000000E+000  0.000000000000000E+000  0.000000000000000E+000
  0.000000000000000E+000  0.000000000000000E+000  0.000000000000000E+000
  0.000000000000000E+000  0.000000000000000E+000  0.000000000000000E+000
  0.000000000000000E+000  0.000000000000000E+000  0.000000000000000E+000
  0.000000000000000E+000  0.000000000000000E+000  0.000000000000000E+000
  0.000000000000000E+000  0.000000000000000E+000  0.000000000000000E+000
  0.000000000000000E+000  0.000000000000000E+000  0.000000000000000E+000
  0.000000000000000E+000  0.000000000000000E+000  0.000000000000000E+000
  0.000000000000000E+000  0.000000000000000E+000  0.000000000000000E+000
  0.000000000000000E+000  0.000000000000000E+000  0.000000000000000E+000
  0.000000000000000E+000  0.000000000000000E+000  0.000000000000000E+000
  0.000000000000000E+000  0.000000000000000E+000  0.000000000000000E+000
  0.000000000000000E+000  0.000000000000000E+000  0.000000000000000E+000
  0.000000000000000E+000  0.000000000000000E+000  0.000000000000000E+000
  0.000000000000000E+000  0.000000000000000E+000  0.000000000000000E+000
  0.000000000000000E+000  0.000000000000000E+000  0.000000000000000E+000
  0.000000000000000E+000  0.000000000000000E+000  0.000000000000000E+000
  0.000000000000000E+000  0.000000000000000E+000  0.000000000000000E+000
  0.000000000000000E+000  0.000000000000000E+000  0.000000000000000E+000
  0.000000000000000E+000  0.000000000000000E+000  0.000000000000000E+000
  0.000000000000000E+000  0.000000000000000E+000  0.000000000000000E+000
  0.000000000000000E+000  0.000000000000000E+000  0.000000000000000E+000
  0.000000000000000E+000  0.000000000000000E+000  0.000000000000000E+000
  0.000000000000000E+000  0.000000000000000E+000  0.000000000000000E+000