 Title = "Wing and Wake"
 VARIABLES = "X" "Y" "Z" "GAM" "skew"
 Zone I=   11 J=   26 K=1  T="Blade"
 DATAPACKING=BLOCK
 VARLOCATION=([4]=CELLCENTERED,[5]=CELLCENTERED)
  0.194000236668437       0.175382225468181       0.156764214267925     
  0.138146203067670       0.119528191867414       0.100910180667158     
  8.229216946690177E-002  6.367415826664599E-002  4.505614706639035E-002
  2.643813586613414E-002  7.820124665878347E-003  0.194154359724295     
  0.175536348524039       0.156918337323783       0.138300326123528     
  0.119682314923272       0.101064303723016       8.244629252275990E-002
  6.382828132250425E-002  4.521027012224837E-002  2.659225892199252E-002
  7.974247721736388E-003  0.194614298279210       0.175996287078954     
  0.157378275878698       0.138760264678442       0.120142253478186     
  0.101524242277931       8.290623107767456E-002  6.428821987741910E-002
  4.567020867716327E-002  2.705219747690711E-002  8.434186276651521E-003
  0.195372798827417       0.176754787627161       0.158136776426905     
  0.139518765226649       0.120900754026393       0.102282742826137     
  8.366473162588152E-002  6.504672042562562E-002  4.642870922536967E-002
  2.781069802511367E-002  9.192686824858229E-003  0.196417899362163     
  0.177799888161908       0.159181876961652       0.140563865761396     
  0.121945854561140       0.103327843360884       8.470983216062819E-002
  6.609182096037249E-002  4.747380976011648E-002  2.885579855986095E-002
  1.023778735960491E-002  0.197733118023705       0.179115106823449     
  0.160497095623193       0.141879084422937       0.123261073222682     
  0.104643062022425       8.602505082216967E-002  6.740703962191381E-002
  4.878902842165774E-002  3.017101722140176E-002  1.155300602114585E-002
  0.199297713028074       0.180679701827819       0.162061690627563     
  0.143443679427307       0.124825668227051       0.106207657026795     
  8.758964582653951E-002  6.897163462628397E-002  5.035362342602819E-002
  3.173561222577203E-002  1.311760102551612E-002  0.201087009777410     
  0.182468998577154       0.163850987376898       0.145232976176643     
  0.126614964976387       0.107996953776131       8.937894257587493E-002
  7.076093137561960E-002  5.214292017536332E-002  3.352490897510774E-002
  1.490689777485177E-002  0.203072789993101       0.184454778792844     
  0.165836767592589       0.147218756392333       0.128600745192078     
  0.109982733991821       9.136472279156527E-002  7.274671159130951E-002
  5.412870039105339E-002  3.551068919079779E-002  1.689267799054230E-002
  0.205223736734896       0.186605725534641       0.167987714334385     
  0.149369703134129       0.130751691933873       0.112133680733617     
  9.351566953336145E-002  7.489765833310565E-002  5.627964713284960E-002
  3.766163593259394E-002  1.904362473233820E-002  0.207505928287767     
  0.188887917087511       0.170269905887255       0.151651894687000     
  0.133033883486744       0.114415872286488       9.579786108623206E-002
  7.717984988597525E-002  5.856183868572021E-002  3.994382748546404E-002
  2.132581628520846E-002  0.209883373127607       0.191265361927352     
  0.172647350727096       0.154029339526839       0.135411328326583     
  0.116793317126328       9.817530592607239E-002  7.955729472581619E-002
  6.093928352556013E-002  4.232127232530473E-002  2.370326112504897E-002
  0.212318577529077       0.193700566328821       0.175082555128565     
  0.156464543928310       0.137846532728054       0.119228521527798     
  0.100610510327541       8.199249912728579E-002  6.337448792703049E-002
  4.475647672677422E-002  2.613846552651846E-002  0.214773136864045     
  0.196155125663788       0.177537114463533       0.158919103263277     
  0.140301092063021       0.121683080862765       0.103065069662509     
  8.444705846225432E-002  6.582904726199793E-002  4.721103606174160E-002
  2.859302486148594E-002  0.217208341265514       0.198590330065259     
  0.179972318865003       0.161354307664747       0.142736296464491     
  0.124118285264236       0.105500274063980       8.688226286372240E-002
  6.826425166346729E-002  4.964624046321147E-002  3.102822926295600E-002
  0.219585786105355       0.200967774905099       0.182349763704843     
  0.163731752504588       0.145113741304332       0.126495730104076     
  0.107877718903820       8.925970770356412E-002  7.064169650330852E-002
  5.202368530305197E-002  3.340567410279633E-002  0.221867977658225     
  0.203249966457969       0.184631955257713       0.166013944057458     
  0.147395932857201       0.128777921656946       0.110159910456690     
  9.154189925643423E-002  7.292388805617814E-002  5.430587685592221E-002
  3.568786565566686E-002  0.224018924400021       0.205400913199765     
  0.186782901999509       0.168164890799254       0.149546879598998     
  0.130928868398742       0.112310857198486       9.369284599823001E-002
  7.507483479797418E-002  5.645682359771823E-002  3.783881239746305E-002
  0.226004704615711       0.207386693415455       0.188768682215199     
  0.170150671014944       0.151532659814688       0.132914648614432     
  0.114296637414176       9.567862621392070E-002  7.706061501366465E-002
  5.844260381340806E-002  3.982459261315310E-002  0.227794001365047     
  0.209175990164791       0.190557978964535       0.171939967764279     
  0.153321956564025       0.134703945363767       0.116085934163513     
  9.746792296325582E-002  7.884991176299964E-002  6.023190056274407E-002
  4.161388936248901E-002  0.229358596369416       0.210740585169161     
  0.192122573968905       0.173504562768649       0.154886551568394     
  0.136268540368137       0.117650529167881       9.903251796762534E-002
  8.041450676737018E-002  6.179649556711379E-002  4.317848436685833E-002
  0.230673815030959       0.212055803830704       0.193437792630446     
  0.174819781430190       0.156201770229936       0.137583759029679     
  0.118965747829423       0.100347736629168       8.172972542891214E-002
  6.311171422865439E-002  4.449370302839840E-002  0.231718915565704     
  0.213100904365449       0.194482893165194       0.175864881964938     
  0.157246870764682       0.138628859564426       0.120010848364171     
  0.101392837163914       8.277482596365822E-002  6.415681476340358E-002
  4.553880356314589E-002  0.232477416113912       0.213859404913657     
  0.195241393713400       0.176623382513144       0.158005371312888     
  0.139387360112631       0.120769348912376       0.102151337712119     
  8.353332651186553E-002  6.491531531160735E-002  4.629730411135220E-002
  0.232937354668826       0.214319343468572       0.195701332268316     
  0.177083321068059       0.158465309867803       0.139847298667546     
  0.121229287467290       0.102611276267035       8.399326506677970E-002
  6.537525386652335E-002  4.675724266626827E-002  0.233091477724685     
  0.214473466524428       0.195855455324174       0.177237444123917     
  0.158619432923661       0.140001421723406       0.121383410523150     
  0.102765399322893       8.414738812263804E-002  6.552937692238163E-002
  4.691136572212534E-002
 -0.182729847715984      -0.183494618379788      -0.184259389043592     
 -0.185024159707396      -0.185788930371201      -0.186553701035004     
 -0.187318471698809      -0.188083242362613      -0.188848013026417     
 -0.189612783690221      -0.190377554354025      -0.186481906883515     
 -0.187246677547319      -0.188011448211123      -0.188776218874927     
 -0.189540989538731      -0.190305760202535      -0.191070530866339     
 -0.191835301530143      -0.192600072193947      -0.193364842857751     
 -0.194129613521556      -0.197678912171662      -0.198443682835466     
 -0.199208453499270      -0.199973224163074      -0.200737994826878     
 -0.201502765490683      -0.202267536154487      -0.203032306818291     
 -0.203797077482095      -0.204561848145899      -0.205326618809703     
 -0.216144280118267      -0.216909050782071      -0.217673821445875     
 -0.218438592109679      -0.219203362773483      -0.219968133437287     
 -0.220732904101091      -0.221497674764895      -0.222262445428699     
 -0.223027216092503      -0.223791986756307      -0.241586800840133     
 -0.242351571503937      -0.243116342167741      -0.243881112831545     
 -0.244645883495349      -0.245410654159154      -0.246175424822958     
 -0.246940195486761      -0.247704966150565      -0.248469736814370     
 -0.249234507478174      -0.273605230586852      -0.274370001250657     
 -0.275134771914461      -0.275899542578265      -0.276664313242069     
 -0.277429083905874      -0.278193854569677      -0.278958625233482     
 -0.279723395897286      -0.280488166561089      -0.281252937224894     
 -0.311694619594437      -0.312459390258241      -0.313224160922046     
 -0.313988931585850      -0.314753702249653      -0.315518472913458     
 -0.316283243577262      -0.317048014241066      -0.317812784904870     
 -0.318577555568673      -0.319342326232477      -0.355254275444739     
 -0.356019046108543      -0.356783816772348      -0.357548587436152     
 -0.358313358099955      -0.359078128763759      -0.359842899427564     
 -0.360607670091368      -0.361372440755171      -0.362137211418976     
 -0.362901982082781      -0.403597236343722      -0.404362007007527     
 -0.405126777671330      -0.405891548335134      -0.406656318998939     
 -0.407421089662742      -0.408185860326545      -0.408950630990350     
 -0.409715401654155      -0.410480172317959      -0.411244942981763     
 -0.455961104919323      -0.456725875583127      -0.457490646246931     
 -0.458255416910735      -0.459020187574539      -0.459784958238343     
 -0.460549728902147      -0.461314499565952      -0.462079270229755     
 -0.462844040893559      -0.463608811557363      -0.511520071683447     
 -0.512284842347251      -0.513049613011055      -0.513814383674859     
 -0.514579154338664      -0.515343925002468      -0.516108695666271     
 -0.516873466330076      -0.517638236993879      -0.518403007657683     
 -0.519167778321487      -0.569397938540905      -0.570162709204709     
 -0.570927479868514      -0.571692250532317      -0.572457021196121     
 -0.573221791859926      -0.573986562523730      -0.574751333187533     
 -0.575516103851338      -0.576280874515141      -0.577045645178946     
 -0.628681936956794      -0.629446707620598      -0.630211478284402     
 -0.630976248948206      -0.631741019612010      -0.632505790275814     
 -0.633270560939619      -0.634035331603423      -0.634800102267227     
 -0.635564872931031      -0.636329643594835      -0.688437122861552     
 -0.689201893525355      -0.689966664189158      -0.690731434852963     
 -0.691496205516767      -0.692260976180571      -0.693025746844376     
 -0.693790517508179      -0.694555288171985      -0.695320058835788     
 -0.696084829499592      -0.747721121277439      -0.748485891941243     
 -0.749250662605049      -0.750015433268851      -0.750780203932655     
 -0.751544974596461      -0.752309745260263      -0.753074515924068     
 -0.753839286587871      -0.754604057251674      -0.755368827915481     
 -0.805598988134898      -0.806363758798702      -0.807128529462506     
 -0.807893300126310      -0.808658070790115      -0.809422841453919     
 -0.810187612117722      -0.810952382781526      -0.811717153445330     
 -0.812481924109133      -0.813246694772939      -0.861157954899022     
 -0.861922725562826      -0.862687496226629      -0.863452266890435     
 -0.864217037554238      -0.864981808218042      -0.865746578881847     
 -0.866511349545651      -0.867276120209454      -0.868040890873259     
 -0.868805661537063      -0.913521823474624      -0.914286594138427     
 -0.915051364802231      -0.915816135466035      -0.916580906129839     
 -0.917345676793645      -0.918110447457448      -0.918875218121251     
 -0.919639988785055      -0.920404759448859      -0.921169530112663     
 -0.961864784373605      -0.962629555037408      -0.963394325701213     
 -0.964159096365017      -0.964923867028822      -0.965688637692626     
 -0.966453408356429      -0.967218179020234      -0.967982949684039     
 -0.968747720347842      -0.969512491011645       -1.00542444022391     
  -1.00618921088771       -1.00695398155151       -1.00771875221532     
  -1.00848352287912       -1.00924829354293       -1.01001306420673     
  -1.01077783487054       -1.01154260553434       -1.01230737619814     
  -1.01307214686195       -1.04351382923149       -1.04427859989530     
  -1.04504337055910       -1.04580814122290       -1.04657291188671     
  -1.04733768255051       -1.04810245321432       -1.04886722387812     
  -1.04963199454192       -1.05039676520573       -1.05116153586953     
  -1.07553225897821       -1.07629702964202       -1.07706180030582     
  -1.07782657096962       -1.07859134163343       -1.07935611229723     
  -1.08012088296104       -1.08088565362484       -1.08165042428864     
  -1.08241519495245       -1.08317996561625       -1.10097477970008     
  -1.10173955036388       -1.10250432102769       -1.10326909169149     
  -1.10403386235529       -1.10479863301910       -1.10556340368290     
  -1.10632817434671       -1.10709294501051       -1.10785771567432     
  -1.10862248633812       -1.11944014764668       -1.12020491831049     
  -1.12096968897429       -1.12173445963809       -1.12249923030190     
  -1.12326400096570       -1.12402877162951       -1.12479354229331     
  -1.12555831295711       -1.12632308362092       -1.12708785428472     
  -1.13063715293483       -1.13140192359863       -1.13216669426244     
  -1.13293146492624       -1.13369623559005       -1.13446100625385     
  -1.13522577691765       -1.13599054758146       -1.13675531824526     
  -1.13752008890907       -1.13828485957287       -1.13438921210236     
  -1.13515398276616       -1.13591875342997       -1.13668352409377     
  -1.13744829475758       -1.13821306542138       -1.13897783608519     
  -1.13974260674899       -1.14050737741279       -1.14127214807660     
  -1.14203691874040     
  3.960717710078315E-002  3.564645939070483E-002  3.168574168062652E-002
  2.772502397054821E-002  2.376430626046989E-002  1.980358855039158E-002
  1.584287084031326E-002  1.188215313023495E-002  7.921435420156629E-003
  3.960717710078312E-003  0.000000000000000E+000  3.960717710078315E-002
  3.564645939070483E-002  3.168574168062652E-002  2.772502397054821E-002
  2.376430626046989E-002  1.980358855039158E-002  1.584287084031326E-002
  1.188215313023495E-002  7.921435420156629E-003  3.960717710078312E-003
  0.000000000000000E+000  3.960717710078315E-002  3.564645939070483E-002
  3.168574168062652E-002  2.772502397054821E-002  2.376430626046989E-002
  1.980358855039158E-002  1.584287084031326E-002  1.188215313023495E-002
  7.921435420156629E-003  3.960717710078312E-003  0.000000000000000E+000
  3.960717710078315E-002  3.564645939070483E-002  3.168574168062652E-002
  2.772502397054821E-002  2.376430626046989E-002  1.980358855039158E-002
  1.584287084031326E-002  1.188215313023495E-002  7.921435420156629E-003
  3.960717710078312E-003  0.000000000000000E+000  3.960717710078315E-002
  3.564645939070483E-002  3.168574168062652E-002  2.772502397054821E-002
  2.376430626046989E-002  1.980358855039158E-002  1.584287084031326E-002
  1.188215313023495E-002  7.921435420156629E-003  3.960717710078312E-003
  0.000000000000000E+000  3.960717710078315E-002  3.564645939070483E-002
  3.168574168062652E-002  2.772502397054821E-002  2.376430626046989E-002
  1.980358855039158E-002  1.584287084031326E-002  1.188215313023495E-002
  7.921435420156629E-003  3.960717710078312E-003  0.000000000000000E+000
  3.960717710078315E-002  3.564645939070483E-002  3.168574168062652E-002
  2.772502397054821E-002  2.376430626046989E-002  1.980358855039158E-002
  1.584287084031326E-002  1.188215313023495E-002  7.921435420156629E-003
  3.960717710078312E-003  0.000000000000000E+000  3.960717710078315E-002
  3.564645939070483E-002  3.168574168062652E-002  2.772502397054821E-002
  2.376430626046989E-002  1.980358855039158E-002  1.584287084031326E-002
  1.188215313023495E-002  7.921435420156629E-003  3.960717710078312E-003
  0.000000000000000E+000  3.960717710078315E-002  3.564645939070483E-002
  3.168574168062652E-002  2.772502397054821E-002  2.376430626046989E-002
  1.980358855039158E-002  1.584287084031326E-002  1.188215313023495E-002
  7.921435420156629E-003  3.960717710078312E-003  0.000000000000000E+000
  3.960717710078315E-002  3.564645939070483E-002  3.168574168062652E-002
  2.772502397054821E-002  2.376430626046989E-002  1.980358855039158E-002
  1.584287084031326E-002  1.188215313023495E-002  7.921435420156629E-003
  3.960717710078312E-003  0.000000000000000E+000  3.960717710078315E-002
  3.564645939070483E-002  3.168574168062652E-002  2.772502397054821E-002
  2.376430626046989E-002  1.980358855039158E-002  1.584287084031326E-002
  1.188215313023495E-002  7.921435420156629E-003  3.960717710078312E-003
  0.000000000000000E+000  3.960717710078315E-002  3.564645939070483E-002
  3.168574168062652E-002  2.772502397054821E-002  2.376430626046989E-002
  1.980358855039158E-002  1.584287084031326E-002  1.188215313023495E-002
  7.921435420156629E-003  3.960717710078312E-003  0.000000000000000E+000
  3.960717710078315E-002  3.564645939070483E-002  3.168574168062652E-002
  2.772502397054821E-002  2.376430626046989E-002  1.980358855039158E-002
  1.584287084031326E-002  1.188215313023495E-002  7.921435420156629E-003
  3.960717710078312E-003  0.000000000000000E+000  3.960717710078315E-002
  3.564645939070483E-002  3.168574168062652E-002  2.772502397054821E-002
  2.376430626046989E-002  1.980358855039158E-002  1.584287084031326E-002
  1.188215313023495E-002  7.921435420156629E-003  3.960717710078312E-003
  0.000000000000000E+000  3.960717710078315E-002  3.564645939070483E-002
  3.168574168062652E-002  2.772502397054821E-002  2.376430626046989E-002
  1.980358855039158E-002  1.584287084031326E-002  1.188215313023495E-002
  7.921435420156629E-003  3.960717710078312E-003  0.000000000000000E+000
  3.960717710078315E-002  3.564645939070483E-002  3.168574168062652E-002
  2.772502397054821E-002  2.376430626046989E-002  1.980358855039158E-002
  1.584287084031326E-002  1.188215313023495E-002  7.921435420156629E-003
  3.960717710078312E-003  0.000000000000000E+000  3.960717710078315E-002
  3.564645939070483E-002  3.168574168062652E-002  2.772502397054821E-002
  2.376430626046989E-002  1.980358855039158E-002  1.584287084031326E-002
  1.188215313023495E-002  7.921435420156629E-003  3.960717710078312E-003
  0.000000000000000E+000  3.960717710078315E-002  3.564645939070483E-002
  3.168574168062652E-002  2.772502397054821E-002  2.376430626046989E-002
  1.980358855039158E-002  1.584287084031326E-002  1.188215313023495E-002
  7.921435420156629E-003  3.960717710078312E-003  0.000000000000000E+000
  3.960717710078315E-002  3.564645939070483E-002  3.168574168062652E-002
  2.772502397054821E-002  2.376430626046989E-002  1.980358855039158E-002
  1.584287084031326E-002  1.188215313023495E-002  7.921435420156629E-003
  3.960717710078312E-003  0.000000000000000E+000  3.960717710078315E-002
  3.564645939070483E-002  3.168574168062652E-002  2.772502397054821E-002
  2.376430626046989E-002  1.980358855039158E-002  1.584287084031326E-002
  1.188215313023495E-002  7.921435420156629E-003  3.960717710078312E-003
  0.000000000000000E+000  3.960717710078315E-002  3.564645939070483E-002
  3.168574168062652E-002  2.772502397054821E-002  2.376430626046989E-002
  1.980358855039158E-002  1.584287084031326E-002  1.188215313023495E-002
  7.921435420156629E-003  3.960717710078312E-003  0.000000000000000E+000
  3.960717710078315E-002  3.564645939070483E-002  3.168574168062652E-002
  2.772502397054821E-002  2.376430626046989E-002  1.980358855039158E-002
  1.584287084031326E-002  1.188215313023495E-002  7.921435420156629E-003
  3.960717710078312E-003  0.000000000000000E+000  3.960717710078315E-002
  3.564645939070483E-002  3.168574168062652E-002  2.772502397054821E-002
  2.376430626046989E-002  1.980358855039158E-002  1.584287084031326E-002
  1.188215313023495E-002  7.921435420156629E-003  3.960717710078312E-003
  0.000000000000000E+000  3.960717710078315E-002  3.564645939070483E-002
  3.168574168062652E-002  2.772502397054821E-002  2.376430626046989E-002
  1.980358855039158E-002  1.584287084031326E-002  1.188215313023495E-002
  7.921435420156629E-003  3.960717710078312E-003  0.000000000000000E+000
  3.960717710078315E-002  3.564645939070483E-002  3.168574168062652E-002
  2.772502397054821E-002  2.376430626046989E-002  1.980358855039158E-002
  1.584287084031326E-002  1.188215313023495E-002  7.921435420156629E-003
  3.960717710078312E-003  0.000000000000000E+000  3.960717710078315E-002
  3.564645939070483E-002  3.168574168062652E-002  2.772502397054821E-002
  2.376430626046989E-002  1.980358855039158E-002  1.584287084031326E-002
  1.188215313023495E-002  7.921435420156629E-003  3.960717710078312E-003
  0.000000000000000E+000
  3.086472056441261E-002  5.957992837420904E-002  8.979943631029497E-002
  0.122058304795984       0.156473095210295       0.192842764831399     
  0.230810406974371       0.269949735502177       0.309600515199150     
  0.347239507380628       5.529887672319937E-002  0.104286390171283     
  0.155187551991184       0.209208447568553       0.266711685634265     
  0.327492484707473       0.391045479295499       0.456765859496132     
  0.523839162440581       0.589489138364150       8.802155792831101E-002
  0.157767602792961       0.227646470871874       0.300411387346051     
  0.377134357237758       0.458044423965201       0.542823064378809     
  0.630880240481068       0.721264812569623       0.809316616215849     
  0.132106925253333       0.223688337602209       0.310132693643360     
  0.396839836498018       0.485996596634529       0.578652860878864     
  0.675005125013273       0.774420298447235       0.875007732185843     
  0.969595161582236       0.191761342086868       0.309576969747850     
  0.413164094012056       0.511760729711633       0.608857198391591     
  0.706265998989029       0.804865436796821       0.904524145309077     
   1.00339931049260        1.09417232094281       0.270308639170472     
  0.421867437524408       0.546688343624832       0.659279587173082     
  0.764853556811114       0.865889647510578       0.963624558007341     
   1.05833512600536        1.14882852445677        1.22932628827634     
  0.368790319722910       0.563011255533862       0.714973556799415     
  0.845995377272195       0.963730783791594        1.07171803886044     
   1.17164958076106        1.26400869234642        1.34788499915951     
   1.41843227190172       0.486627435796800       0.732614428194629     
  0.918090490746540        1.07255703765828        1.20674484119566     
   1.32569109820884        1.43192862880372        1.52647139334517     
   1.60878101160158        1.67445903160949       0.622585123864541     
  0.928991192944091        1.15414474662832        1.33696273547090     
   1.49178943196794        1.62550150091385        1.74171549972563     
   1.84213149227305        1.92663492328252        1.99109720317075     
  0.774765464140119        1.14943193552411        1.41995596859859     
   1.63574662450620        1.81518484690508        1.96719828389179     
   2.09659137998421        2.20577112240017        2.29499519298467     
   2.36025260866483       0.941517072183040        1.39146096414895     
   1.71242386746003        1.96525377836021        2.17272703769384     
   2.34598878401893        2.49109989883489        2.61119590120151     
   2.70690259107196        2.77426458404453        1.12104267622893     
   1.65225848815007        2.02787764293401        2.32103550647984     
   2.55921469247243        2.75593822389953        2.91863706146168     
   3.05126041614578        3.15483810043533        3.22541508803968     
   1.31128810990753        1.92864467503236        2.36220700123739     
   2.69813802004109        2.96893134433636        3.19066090580655     
   3.37224093461767        3.51850872458866        3.63094760591795     
   3.70559270882874        1.51081883142556        2.21827411741399     
   2.71224052330777        3.09260005796548        3.39715596602419     
   3.64470110856392        3.84574231847888        4.00609327272126     
   4.12776996643834        4.20685933626927        1.72123105848917     
   2.52290584857297        3.07941202068118        3.50524683496871     
   3.84393041018049        4.11723280385381        4.33743929254792     
   4.51148049311260        4.64202529613538        4.72533958690054     
   1.95127462421179        2.85363793179719        3.47536209204575     
   3.94744502082061        4.31999364343946        4.61826303836585     
   4.85663744044746        5.04337440292079        5.18193969886701     
   5.26889528171308        2.21424212889183        3.22684158812289     
   3.91702126957910        4.43586137312457        4.84161692529050     
   5.16382898977641        5.41940274468205        5.61814433454720     
   5.76442445798121        5.85508798082134        2.49601647811238     
   3.62103708344340        4.37767101465961        4.93992644548545     
   5.37539731873893        5.71845126333264        5.98877963668983     
   6.19791068905033        6.35128258341974        6.44615595482717     
   2.72946242961764        3.94071101772529        4.74358895273138     
   5.33256154189320        5.78361079496424        6.13545413738670     
   6.41037437744466        6.62160844101266        6.77586619640922     
   6.87157887857672        2.83478528224855        4.07092789441804     
   4.87626544116034        5.45758818126563        5.89642300746445     
   6.23449708147351        6.49578698168049        6.69452973875961     
   6.83827264235567        6.92704580890001        2.78148145240842     
   3.96367014424554        4.71564911158388        5.24756355469425     
   5.64265202078845        5.94322516701202        6.17322369952374     
   6.34661095694010        6.47080296441101        6.54676697701134     
   2.57470214065764        3.62056946412589        4.26324519631207     
   4.70785540255088        5.03373427510648        5.27976734916969     
   5.46733910655221        5.60881780635987        5.71097477743732     
   5.77493155214281        2.21708342090426        3.04692887092429     
   3.53756347610835        3.87226383145633        4.11656123772471     
   4.30103745300135        4.44227325042475        4.55031363320187     
   4.63235984208228        4.69453321872947        1.69243767853838     
   2.25209596374137        2.57857227676861        2.80186502003212     
   2.96552459188618        3.08961995208293        3.18506802332154     
   3.25855224484968        3.31503255961174        3.36144384158428     
   1.02832122818747        1.34168154367373        1.52619796316803     
   1.65310628658056        1.74644704174931        1.81737563618842     
   1.87195033454164        1.91372645547264        1.94472086882240     
   1.96444638860185     
  0.000000000000000E+000  0.000000000000000E+000  0.000000000000000E+000
  0.000000000000000E+000  0.000000000000000E+000  0.000000000000000E+000
  0.000000000000000E+000  0.000000000000000E+000  0.000000000000000E+000
  0.000000000000000E+000  0.000000000000000E+000  0.000000000000000E+000
  0.000000000000000E+000  0.000000000000000E+000  0.000000000000000E+000
  0.000000000000000E+000  0.000000000000000E+000  0.000000000000000E+000
  0.000000000000000E+000  0.000000000000000E+000  0.000000000000000E+000
  0.000000000000000E+000  0.000000000000000E+000  0.000000000000000E+000
  0.000000000000000E+000  0.000000000000000E+000  0.000000000000000E+000
  0.000000000000000E+000  0.000000000000000E+000  0.000000000000000E+000
  0.000000000000000E+000  0.000000000000000E+000  0.000000000000000E+000
  0.000000000000000E+000  0.000000000000000E+000  0.000000000000000E+000
  0.000000000000000E+000  0.000000000000000E+000  0.000000000000000E+000
  0.000000000000000E+000  0.000000000000000E+000  0.000000000000000E+000
  0.000000000000000E+000  0.000000000000000E+000  0.000000000000000E+000
  0.000000000000000E+000  0.000000000000000E+000  0.000000000000000E+000
  0.000000000000000E+000  0.000000000000000E+000  0.000000000000000E+000
  0.000000000000000E+000  0.000000000000000E+000  0.000000000000000E+000
  0.000000000000000E+000  0.000000000000000E+000  0.000000000000000E+000
  0.000000000000000E+000  0.000000000000000E+000  0.000000000000000E+000
  0.000000000000000E+000  0.000000000000000E+000  0.000000000000000E+000
  0.000000000000000E+000  0.000000000000000E+000  0.000000000000000E+000
  0.000000000000000E+000  0.000000000000000E+000  0.000000000000000E+000
  0.000000000000000E+000  0.000000000000000E+000  0.000000000000000E+000
  0.000000000000000E+000  0.000000000000000E+000  0.000000000000000E+000
  0.000000000000000E+000  0.000000000000000E+000  0.000000000000000E+000
  0.000000000000000E+000  0.000000000000000E+000  0.000000000000000E+000
  0.000000000000000E+000  0.000000000000000E+000  0.000000000000000E+000
  0.000000000000000E+000  0.000000000000000E+000  0.000000000000000E+000
  0.000000000000000E+000  0.000000000000000E+000  0.000000000000000E+000
  0.000000000000000E+000  0.000000000000000E+000  0.000000000000000E+000
  0.000000000000000E+000  0.000000000000000E+000  0.000000000000000E+000
  0.000000000000000E+000  0.000000000000000E+000  0.000000000000000E+000
  0.000000000000000E+000  0.000000000000000E+000  0.000000000000000E+000
  0.000000000000000E+000  0.000000000000000E+000  0.000000000000000E+000
  0.000000000000000E+000  0.000000000000000E+000  0.000000000000000E+000
  0.000000000000000E+000  0.000000000000000E+000  0.000000000000000E+000
  0.000000000000000E+000  0.000000000000000E+000  0.000000000000000E+000
  0.000000000000000E+000  0.000000000000000E+000  0.000000000000000E+000