 Title = "Wing and Wake"
 VARIABLES = "X" "Y" "Z" "GAM" "skew"
 Zone I=   11 J=   26 K=1  T="Blade"
 DATAPACKING=BLOCK
 VARLOCATION=([4]=CELLCENTERED,[5]=CELLCENTERED)
  4.263666249430888E-002  2.740187330572747E-002  1.216708411714621E-002
 -3.067705071434919E-003 -1.830249426001646E-002 -3.353728344859755E-002
 -4.877207263717873E-002 -6.400686182576007E-002 -7.924165101434116E-002
 -9.447644020292247E-002 -0.109711229391504       4.047441692173489E-002
  2.523962773315353E-002  1.000483854457233E-002 -5.229950644008914E-003
 -2.046473983259009E-002 -3.569952902117132E-002 -5.093431820975254E-002
 -6.616910739833380E-002 -8.140389658691506E-002 -9.663868577549642E-002
 -0.111873474964078       3.402178010835594E-002  1.878699091977475E-002
  3.552201731193344E-003 -1.168258745738795E-002 -2.691737664596900E-002
 -4.215216583455031E-002 -5.738695502313169E-002 -7.262174421171277E-002
 -8.785653340029399E-002 -0.103091322588875      -0.118326111777457     
  2.338051399133695E-002  8.145724802755569E-003 -7.089064385825737E-003
 -2.232385357440675E-002 -3.755864276298801E-002 -5.279343195156932E-002
 -6.802822114015054E-002 -8.326301032873173E-002 -9.849779951731305E-002
 -0.113732588705894      -0.128967377894475       8.718437694127978E-003
 -6.516351494453322E-003 -2.175114068303476E-002 -3.698592987161582E-002
 -5.222071906019718E-002 -6.745550824877844E-002 -8.269029743735971E-002
 -9.792508662594086E-002 -0.113159875814522      -0.128394665003103     
 -0.143629454191685      -9.733219081364501E-003 -2.496800826994595E-002
 -4.020279745852712E-002 -5.543758664710830E-002 -7.067237583568979E-002
 -8.590716502427126E-002 -0.101141954212852      -0.116376743401433     
 -0.131611532590015      -0.146846321778596      -0.162081110967177     
 -3.168346268530555E-002 -4.691825187388673E-002 -6.215304106246782E-002
 -7.738783025104930E-002 -9.262261943963067E-002 -0.107857408628212     
 -0.123092197816793      -0.138326987005374      -0.153561776193955     
 -0.168796565382536      -0.184031354571118      -5.678612466362076E-002
 -7.202091385220194E-002 -8.725570304078339E-002 -0.102490492229364     
 -0.117725281417945      -0.132960070606527      -0.148194859795108     
 -0.163429648983689      -0.178664438172271      -0.193899227360852     
 -0.209134016549433      -8.464532104130898E-002 -9.988011022989013E-002
 -0.115114899418471      -0.130349688607052      -0.145584477795634     
 -0.160819266984215      -0.176054056172796      -0.191288845361377     
 -0.206523634549959      -0.221758423738540      -0.236993212927121     
 -0.114821695649216      -0.130056484837797      -0.145291274026379     
 -0.160526063214960      -0.175760852403542      -0.190995641592122     
 -0.206230430780703      -0.221465219969285      -0.236700009157866     
 -0.251934798346448      -0.267169587535029      -0.146839349033284     
 -0.162074138221866      -0.177308927410447      -0.192543716599028     
 -0.207778505787609      -0.223013294976191      -0.238248084164772     
 -0.253482873353353      -0.268717662541934      -0.283952451730516     
 -0.299187240919097      -0.180193343673227      -0.195428132861808     
 -0.210662922050390      -0.225897711238970      -0.241132500427552     
 -0.256367289616133      -0.271602078804714      -0.286836867993296     
 -0.302071657181877      -0.317306446370458      -0.332541235559039     
 -0.214357667148862      -0.229592456337443      -0.244827245526024     
 -0.260062034714605      -0.275296823903187      -0.290531613091767     
 -0.305766402280349      -0.321001191468930      -0.336235980657511     
 -0.351470769846093      -0.366705559034674      -0.248793527670200     
 -0.264028316858781      -0.279263106047362      -0.294497895235944     
 -0.309732684424525      -0.324967473613106      -0.340202262801688     
 -0.355437051990268      -0.370671841178850      -0.385906630367432     
 -0.401141419556012      -0.282957851145835      -0.298192640334416     
 -0.313427429522997      -0.328662218711578      -0.343897007900160     
 -0.359131797088741      -0.374366586277322      -0.389601375465903     
 -0.404836164654485      -0.420070953843065      -0.435305743031647     
 -0.316311845785777      -0.331546634974358      -0.346781424162940     
 -0.362016213351520      -0.377251002540102      -0.392485791728684     
 -0.407720580917264      -0.422955370105846      -0.438190159294427     
 -0.453424948483008      -0.468659737671590      -0.348329499169845     
 -0.363564288358427      -0.378799077547008      -0.394033866735589     
 -0.409268655924170      -0.424503445112751      -0.439738234301332     
 -0.454973023489914      -0.470207812678495      -0.485442601867077     
 -0.500677391055658      -0.378505873777753      -0.393740662966334     
 -0.408975452154915      -0.424210241343496      -0.439445030532077     
 -0.454679819720659      -0.469914608909241      -0.485149398097821     
 -0.500384187286403      -0.515618976474984      -0.530853765663565     
 -0.406365070155441      -0.421599859344022      -0.436834648532603     
 -0.452069437721184      -0.467304226909766      -0.482539016098347     
 -0.497773805286928      -0.513008594475509      -0.528243383664090     
 -0.543478172852672      -0.558712962041253      -0.431467732133756     
 -0.446702521322337      -0.461937310510917      -0.477172099699500     
 -0.492406888888080      -0.507641678076662      -0.522876467265243     
 -0.538111256453825      -0.553346045642406      -0.568580834830988     
 -0.583815624019568      -0.453417975737697      -0.468652764926278     
 -0.483887554114859      -0.499122343303440      -0.514357132492022     
 -0.529591921680602      -0.544826710869185      -0.560061500057766     
 -0.575296289246346      -0.590531078434928      -0.605765867623509     
 -0.471869632513189      -0.487104421701770      -0.502339210890351     
 -0.517574000078934      -0.532808789267514      -0.548043578456096     
 -0.563278367644677      -0.578513156833258      -0.593747946021839     
 -0.608982735210420      -0.624217524399002      -0.486531708810398     
 -0.501766497998979      -0.517001287187561      -0.532236076376142     
 -0.547470865564723      -0.562705654753305      -0.577940443941886     
 -0.593175233130467      -0.608410022319049      -0.623644811507629     
 -0.638879600696211      -0.497172974927418      -0.512407764115998     
 -0.527642553304579      -0.542877342493161      -0.558112131681742     
 -0.573346920870324      -0.588581710058904      -0.603816499247487     
 -0.619051288436066      -0.634286077624649      -0.649520866813229     
 -0.503625611740796      -0.518860400929377      -0.534095190117958     
 -0.549329979306539      -0.564564768495121      -0.579799557683703     
 -0.595034346872284      -0.610269136060866      -0.625503925249447     
 -0.640738714438027      -0.655973503626608      -0.505787857313370     
 -0.521022646501951      -0.536257435690531      -0.551492224879114     
 -0.566727014067695      -0.581961803256276      -0.597196592444858     
 -0.612431381633437      -0.627666170822020      -0.642900960010601     
 -0.658135749199183     
 -0.263074902043246      -0.252345670309307      -0.241616438575368     
 -0.230887206841429      -0.220157975107491      -0.209428743373552     
 -0.198699511639613      -0.187970279905674      -0.177241048171736     
 -0.166511816437797      -0.155782584703858      -0.266145145681278     
 -0.255415913947340      -0.244686682213401      -0.233957450479462     
 -0.223228218745523      -0.212498987011585      -0.201769755277646     
 -0.191040523543707      -0.180311291809768      -0.169582060075830     
 -0.158852828341891      -0.275307457019130      -0.264578225285192     
 -0.253848993551253      -0.243119761817314      -0.232390530083375     
 -0.221661298349437      -0.210932066615498      -0.200202834881559     
 -0.189473603147620      -0.178744371413681      -0.168015139679743     
 -0.290417340933704      -0.279688109199766      -0.268958877465827     
 -0.258229645731888      -0.247500413997949      -0.236771182264010     
 -0.226041950530072      -0.215312718796133      -0.204583487062194     
 -0.193854255328255      -0.183125023594317      -0.311236505529460     
 -0.300507273795521      -0.289778042061582      -0.279048810327643     
 -0.268319578593705      -0.257590346859766      -0.246861115125827     
 -0.236131883391888      -0.225402651657950      -0.214673419924011     
 -0.203944188190072      -0.337436620143956      -0.326707388410017     
 -0.315978156676078      -0.305248924942140      -0.294519693208201     
 -0.283790461474262      -0.273061229740323      -0.262331998006385     
 -0.251602766272446      -0.240873534538507      -0.230144302804568     
 -0.368604493318532      -0.357875261584593      -0.347146029850655     
 -0.336416798116716      -0.325687566382777      -0.314958334648839     
 -0.304229102914900      -0.293499871180961      -0.282770639447022     
 -0.272041407713083      -0.261312175979144      -0.404248589074441     
 -0.393519357340502      -0.382790125606563      -0.372060893872624     
 -0.361331662138685      -0.350602430404747      -0.339873198670808     
 -0.329143966936869      -0.318414735202930      -0.307685503468992     
 -0.296956271735053      -0.443806778728860      -0.433077546994921     
 -0.422348315260982      -0.411619083527044      -0.400889851793105     
 -0.390160620059166      -0.379431388325227      -0.368702156591289     
 -0.357972924857350      -0.347243693123411      -0.336514461389472     
 -0.486655206000023      -0.475925974266084      -0.465196742532145     
 -0.454467510798207      -0.443738279064268      -0.433009047330329     
 -0.422279815596390      -0.411550583862451      -0.400821352128512     
 -0.390092120394574      -0.379362888660635      -0.532118125593453     
 -0.521388893859515      -0.510659662125576      -0.499930430391637     
 -0.489201198657699      -0.478471966923760      -0.467742735189821     
 -0.457013503455882      -0.446284271721943      -0.435555039988005     
 -0.424825808254066      -0.579478560108931      -0.568749328374993     
 -0.558020096641054      -0.547290864907114      -0.536561633173176     
 -0.525832401439237      -0.515103169705299      -0.504373937971360     
 -0.493644706237421      -0.482915474503483      -0.472186242769544     
 -0.627989607202396      -0.617260375468456      -0.606531143734517     
 -0.595801912000579      -0.585072680266640      -0.574343448532701     
 -0.563614216798762      -0.552884985064824      -0.542155753330885     
 -0.531426521596946      -0.520697289863008      -0.676886218682087     
 -0.666156986948148      -0.655427755214209      -0.644698523480269     
 -0.633969291746331      -0.623240060012392      -0.612510828278454     
 -0.601781596544515      -0.591052364810577      -0.580323133076638     
 -0.569593901342699      -0.725397265775551      -0.714668034041611     
 -0.703938802307673      -0.693209570573734      -0.682480338839795     
 -0.671751107105857      -0.661021875371917      -0.650292643637978     
 -0.639563411904040      -0.628834180170101      -0.618104948436163     
 -0.772757700291028      -0.762028468557089      -0.751299236823151     
 -0.740570005089212      -0.729840773355273      -0.719111541621334     
 -0.708382309887395      -0.697653078153457      -0.686923846419519     
 -0.676194614685578      -0.665465382951640      -0.818220619884459     
 -0.807491388150520      -0.796762156416581      -0.786032924682643     
 -0.775303692948703      -0.764574461214765      -0.753845229480825     
 -0.743115997746888      -0.732386766012949      -0.721657534279010     
 -0.710928302545071      -0.861069047155622      -0.850339815421682     
 -0.839610583687744      -0.828881351953805      -0.818152120219866     
 -0.807422888485928      -0.796693656751989      -0.785964425018050     
 -0.775235193284112      -0.764505961550172      -0.753776729816233     
 -0.900627236810040      -0.889898005076102      -0.879168773342163     
 -0.868439541608224      -0.857710309874286      -0.846981078140347     
 -0.836251846406408      -0.825522614672469      -0.814793382938530     
 -0.804064151204592      -0.793334919470653      -0.936271332565949     
 -0.925542100832011      -0.914812869098071      -0.904083637364133     
 -0.893354405630194      -0.882625173896255      -0.871895942162317     
 -0.861166710428379      -0.850437478694439      -0.839708246960500     
 -0.828979015226561      -0.967439205740526      -0.956709974006586     
 -0.945980742272648      -0.935251510538709      -0.924522278804771     
 -0.913793047070831      -0.903063815336893      -0.892334583602954     
 -0.881605351869015      -0.870876120135076      -0.860146888401138     
 -0.993639320355022      -0.982910088621084      -0.972180856887143     
 -0.961451625153206      -0.950722393419268      -0.939993161685328     
 -0.929263929951389      -0.918534698217450      -0.907805466483512     
 -0.897076234749573      -0.886347003015634       -1.01445848495078     
  -1.00372925321684      -0.993000021482899      -0.982270789748960     
 -0.971541558015022      -0.960812326281083      -0.950083094547144     
 -0.939353862813206      -0.928624631079267      -0.917895399345328     
 -0.907166167611389       -1.02956836886535       -1.01883913713141     
  -1.00810990539747      -0.997380673663535      -0.986651441929596     
 -0.975922210195657      -0.965192978461718      -0.954463746727780     
 -0.943734514993840      -0.933005283259902      -0.922276051525963     
  -1.03873068020320       -1.02800144846926       -1.01727221673533     
  -1.00654298500139      -0.995813753267447      -0.985084521533509     
 -0.974355289799569      -0.963626058065632      -0.952896826331693     
 -0.942167594597753      -0.931438362863814       -1.04180092384123     
  -1.03107169210730       -1.02034246037336       -1.00961322863942     
 -0.998883996905480      -0.988154765171542      -0.977425533437603     
 -0.966696301703662      -0.955967069969726      -0.945237838235786     
 -0.934508606501849     
  3.960717710078315E-002  3.564645939070483E-002  3.168574168062652E-002
  2.772502397054821E-002  2.376430626046989E-002  1.980358855039158E-002
  1.584287084031326E-002  1.188215313023495E-002  7.921435420156629E-003
  3.960717710078312E-003  0.000000000000000E+000  3.960717710078315E-002
  3.564645939070483E-002  3.168574168062652E-002  2.772502397054821E-002
  2.376430626046989E-002  1.980358855039158E-002  1.584287084031326E-002
  1.188215313023495E-002  7.921435420156629E-003  3.960717710078312E-003
  0.000000000000000E+000  3.960717710078315E-002  3.564645939070483E-002
  3.168574168062652E-002  2.772502397054821E-002  2.376430626046989E-002
  1.980358855039158E-002  1.584287084031326E-002  1.188215313023495E-002
  7.921435420156629E-003  3.960717710078312E-003  0.000000000000000E+000
  3.960717710078315E-002  3.564645939070483E-002  3.168574168062652E-002
  2.772502397054821E-002  2.376430626046989E-002  1.980358855039158E-002
  1.584287084031326E-002  1.188215313023495E-002  7.921435420156629E-003
  3.960717710078312E-003  0.000000000000000E+000  3.960717710078315E-002
  3.564645939070483E-002  3.168574168062652E-002  2.772502397054821E-002
  2.376430626046989E-002  1.980358855039158E-002  1.584287084031326E-002
  1.188215313023495E-002  7.921435420156629E-003  3.960717710078312E-003
  0.000000000000000E+000  3.960717710078315E-002  3.564645939070483E-002
  3.168574168062652E-002  2.772502397054821E-002  2.376430626046989E-002
  1.980358855039158E-002  1.584287084031326E-002  1.188215313023495E-002
  7.921435420156629E-003  3.960717710078312E-003  0.000000000000000E+000
  3.960717710078315E-002  3.564645939070483E-002  3.168574168062652E-002
  2.772502397054821E-002  2.376430626046989E-002  1.980358855039158E-002
  1.584287084031326E-002  1.188215313023495E-002  7.921435420156629E-003
  3.960717710078312E-003  0.000000000000000E+000  3.960717710078315E-002
  3.564645939070483E-002  3.168574168062652E-002  2.772502397054821E-002
  2.376430626046989E-002  1.980358855039158E-002  1.584287084031326E-002
  1.188215313023495E-002  7.921435420156629E-003  3.960717710078312E-003
  0.000000000000000E+000  3.960717710078315E-002  3.564645939070483E-002
  3.168574168062652E-002  2.772502397054821E-002  2.376430626046989E-002
  1.980358855039158E-002  1.584287084031326E-002  1.188215313023495E-002
  7.921435420156629E-003  3.960717710078312E-003  0.000000000000000E+000
  3.960717710078315E-002  3.564645939070483E-002  3.168574168062652E-002
  2.772502397054821E-002  2.376430626046989E-002  1.980358855039158E-002
  1.584287084031326E-002  1.188215313023495E-002  7.921435420156629E-003
  3.960717710078312E-003  0.000000000000000E+000  3.960717710078315E-002
  3.564645939070483E-002  3.168574168062652E-002  2.772502397054821E-002
  2.376430626046989E-002  1.980358855039158E-002  1.584287084031326E-002
  1.188215313023495E-002  7.921435420156629E-003  3.960717710078312E-003
  0.000000000000000E+000  3.960717710078315E-002  3.564645939070483E-002
  3.168574168062652E-002  2.772502397054821E-002  2.376430626046989E-002
  1.980358855039158E-002  1.584287084031326E-002  1.188215313023495E-002
  7.921435420156629E-003  3.960717710078312E-003  0.000000000000000E+000
  3.960717710078315E-002  3.564645939070483E-002  3.168574168062652E-002
  2.772502397054821E-002  2.376430626046989E-002  1.980358855039158E-002
  1.584287084031326E-002  1.188215313023495E-002  7.921435420156629E-003
  3.960717710078312E-003  0.000000000000000E+000  3.960717710078315E-002
  3.564645939070483E-002  3.168574168062652E-002  2.772502397054821E-002
  2.376430626046989E-002  1.980358855039158E-002  1.584287084031326E-002
  1.188215313023495E-002  7.921435420156629E-003  3.960717710078312E-003
  0.000000000000000E+000  3.960717710078315E-002  3.564645939070483E-002
  3.168574168062652E-002  2.772502397054821E-002  2.376430626046989E-002
  1.980358855039158E-002  1.584287084031326E-002  1.188215313023495E-002
  7.921435420156629E-003  3.960717710078312E-003  0.000000000000000E+000
  3.960717710078315E-002  3.564645939070483E-002  3.168574168062652E-002
  2.772502397054821E-002  2.376430626046989E-002  1.980358855039158E-002
  1.584287084031326E-002  1.188215313023495E-002  7.921435420156629E-003
  3.960717710078312E-003  0.000000000000000E+000  3.960717710078315E-002
  3.564645939070483E-002  3.168574168062652E-002  2.772502397054821E-002
  2.376430626046989E-002  1.980358855039158E-002  1.584287084031326E-002
  1.188215313023495E-002  7.921435420156629E-003  3.960717710078312E-003
  0.000000000000000E+000  3.960717710078315E-002  3.564645939070483E-002
  3.168574168062652E-002  2.772502397054821E-002  2.376430626046989E-002
  1.980358855039158E-002  1.584287084031326E-002  1.188215313023495E-002
  7.921435420156629E-003  3.960717710078312E-003  0.000000000000000E+000
  3.960717710078315E-002  3.564645939070483E-002  3.168574168062652E-002
  2.772502397054821E-002  2.376430626046989E-002  1.980358855039158E-002
  1.584287084031326E-002  1.188215313023495E-002  7.921435420156629E-003
  3.960717710078312E-003  0.000000000000000E+000  3.960717710078315E-002
  3.564645939070483E-002  3.168574168062652E-002  2.772502397054821E-002
  2.376430626046989E-002  1.980358855039158E-002  1.584287084031326E-002
  1.188215313023495E-002  7.921435420156629E-003  3.960717710078312E-003
  0.000000000000000E+000  3.960717710078315E-002  3.564645939070483E-002
  3.168574168062652E-002  2.772502397054821E-002  2.376430626046989E-002
  1.980358855039158E-002  1.584287084031326E-002  1.188215313023495E-002
  7.921435420156629E-003  3.960717710078312E-003  0.000000000000000E+000
  3.960717710078315E-002  3.564645939070483E-002  3.168574168062652E-002
  2.772502397054821E-002  2.376430626046989E-002  1.980358855039158E-002
  1.584287084031326E-002  1.188215313023495E-002  7.921435420156629E-003
  3.960717710078312E-003  0.000000000000000E+000  3.960717710078315E-002
  3.564645939070483E-002  3.168574168062652E-002  2.772502397054821E-002
  2.376430626046989E-002  1.980358855039158E-002  1.584287084031326E-002
  1.188215313023495E-002  7.921435420156629E-003  3.960717710078312E-003
  0.000000000000000E+000  3.960717710078315E-002  3.564645939070483E-002
  3.168574168062652E-002  2.772502397054821E-002  2.376430626046989E-002
  1.980358855039158E-002  1.584287084031326E-002  1.188215313023495E-002
  7.921435420156629E-003  3.960717710078312E-003  0.000000000000000E+000
  3.960717710078315E-002  3.564645939070483E-002  3.168574168062652E-002
  2.772502397054821E-002  2.376430626046989E-002  1.980358855039158E-002
  1.584287084031326E-002  1.188215313023495E-002  7.921435420156629E-003
  3.960717710078312E-003  0.000000000000000E+000  3.960717710078315E-002
  3.564645939070483E-002  3.168574168062652E-002  2.772502397054821E-002
  2.376430626046989E-002  1.980358855039158E-002  1.584287084031326E-002
  1.188215313023495E-002  7.921435420156629E-003  3.960717710078312E-003
  0.000000000000000E+000
  0.158253119942256       0.227354723443470       0.281343576910007     
  0.328330656461214       0.370408811482728       0.407962932120202     
  0.440295407304476       0.466850900915420       0.487129239953197     
  0.500153501210615       0.263062580071279       0.383376405611344     
  0.475953395728926       0.555813081428194       0.626925384637439     
  0.690118679459582       0.744499318531908       0.789300543591655     
  0.824181195245961       0.849530998464975       0.352485855132298     
  0.525178848282602       0.656328856363497       0.767635786621036     
  0.865485577169694       0.951552109912480        1.02538347446498     
   1.08634392347719        1.13468724973497        1.17028736205828     
  0.422482005529161       0.637862660938639       0.801688500594224     
  0.939008947569027        1.05780543622477        1.16067563151994     
   1.24781512322865        1.31883073838395        1.37408261931386     
   1.41158805459800       0.478327816264196       0.725710728084916     
  0.914227137378171        1.07102626481162        1.20499482413049     
   1.31940629971312        1.41504582750629        1.49213593692859     
   1.55094921475026        1.58925287786693       0.527611865712837     
  0.800122333749716        1.00695709550019        1.17776457064184     
   1.32243028895616        1.44493491125812        1.54688955420330     
   1.62887938660155        1.69062048975073        1.72965672025322     
  0.580575183113719       0.877022210922679        1.09989390458891     
   1.28240336617131        1.43590165986014        1.56530433911520     
   1.67288084660118        1.75948566188503        1.82476719934166     
   1.86563408969483       0.648307982480892       0.973750031677656     
   1.21521139734314        1.41101424552582        1.57464206123113     
   1.71218074606627        1.82658365986403        1.91899874469600     
   1.98890063775598        2.03267225740332       0.739777908653915     
   1.10458989852093        1.37147287847578        1.58560864876260     
   1.76326680952681        1.91199093456806        2.03553419033286     
   2.13544023141334        2.21127296209814        2.25909655449438     
  0.859333037007140        1.27657956402655        1.57789320912502     
   1.81714067280666        2.01402610679349        2.17787719285479     
   2.31349744527026        2.42304661653654        2.50634492219106     
   2.55922761785689        1.00629299018008        1.48892768135388     
   1.83367785496910        2.10484074346458        2.32622629130607     
   2.50928765956033        2.66007120963557        2.78148471717699     
   2.87372528690224        2.93248513140838        1.17675404947091     
   1.73585155489506        2.13174598311550        2.44066740310771     
   2.69107894681549        2.89683470460434        3.06539653800361     
   3.20054255487788        3.30292826481247        3.36816140720828     
   1.36568010417387        2.00978695889075        2.46264673522095     
   2.81363022476263        3.09632148842373        3.32722146952322     
   3.51535739134618        3.66547123967122        3.77874957303351     
   3.85078722139154        1.56853683592747        2.30368630189544     
   2.81732299697839        3.21295085008177        3.52967865986907     
   3.78687856855667        3.99528778382277        4.16072358785604     
   4.28500156986021        4.36379258076430        1.78262595759613     
   2.61286196064084        3.18921654174191        3.63029200830683     
   3.98114597434258        4.26427960932289        4.49233246670985     
   4.67234947832979        4.80689797456204        4.89186174917487     
   2.00719424118858        2.93492421151129        3.57400987309182     
   4.05936000605943        4.44255072546277        4.74955802582657     
   4.99516308141635        5.18782106064521        5.33101360906264     
   5.42103465050772        2.23768132947405        3.26176157012546     
   3.96036898371329        4.48598145936416        4.89731482508508     
   5.22417441650431        5.48369734813880        5.68590318839151     
   5.83533981714428        5.92892553404513        2.45165587927854     
   3.56033504779622        4.30793057833493        4.86431152475664     
   5.29538978347286        5.63485366571101        5.90221593701344     
   6.10906984549601        6.26109432387674        6.35608122519032     
   2.60549751814713        3.76760056845694        4.54071652143752     
   5.10883333128282        5.54391528719660        5.88296636950015     
   6.14751704196187        6.35048895557466        6.49860166319767     
   6.59086680693447        2.65751193521916        3.82183423811481     
   4.58301477766338        5.13342303878690        5.54895937533279     
   5.86874783648736        6.11548188977684        6.30276045790990     
   6.43792178351584        6.52136980043196        2.58799126966049     
   3.69110694230238        4.39432056345808        4.89231410397913     
   5.26219593697413        5.54327329104850        5.75791612657084     
   5.91928229169770        6.03447854155367        6.10470214254150     
   2.39154265814584        3.36400813624931        3.96203951530193     
   4.37584361420403        4.67895295600542        4.90744233831946     
   5.08121332574147        5.21185344345872        5.30581207024689     
   5.36440556031049        2.06019132995653        2.83095390372710     
   3.28649288966560        3.59704892926167        3.82343420022717     
   3.99402835180237        4.12424981442063        4.22348987368150     
   4.29855367566405        4.35536336173283        1.57385706443679     
   2.09343670057137        2.39621349611876        2.60305613677342     
   2.75440161470571        2.86887699809916        2.95663125474200     
   3.02390876582863        3.07539034743181        3.11767558758775     
  0.956624903442910        1.24747724799940        1.41852392733809     
   1.53601089620088        1.62226235085157        1.68763246048592     
   1.73775304377223        1.77594666020291        1.80412842900573     
   1.82193770589450     
  0.000000000000000E+000  0.000000000000000E+000  0.000000000000000E+000
  0.000000000000000E+000  0.000000000000000E+000  0.000000000000000E+000
  0.000000000000000E+000  0.000000000000000E+000  0.000000000000000E+000
  0.000000000000000E+000  0.000000000000000E+000  0.000000000000000E+000
  0.000000000000000E+000  0.000000000000000E+000  0.000000000000000E+000
  0.000000000000000E+000  0.000000000000000E+000  0.000000000000000E+000
  0.000000000000000E+000  0.000000000000000E+000  0.000000000000000E+000
  0.000000000000000E+000  0.000000000000000E+000  0.000000000000000E+000
  0.000000000000000E+000  0.000000000000000E+000  0.000000000000000E+000
  0.000000000000000E+000  0.000000000000000E+000  0.000000000000000E+000
  0.000000000000000E+000  0.000000000000000E+000  0.000000000000000E+000
  0.000000000000000E+000  0.000000000000000E+000  0.000000000000000E+000
  0.000000000000000E+000  0.000000000000000E+000  0.000000000000000E+000
  0.000000000000000E+000  0.000000000000000E+000  0.000000000000000E+000
  0.000000000000000E+000  0.000000000000000E+000  0.000000000000000E+000
  0.000000000000000E+000  0.000000000000000E+000  0.000000000000000E+000
  0.000000000000000E+000  0.000000000000000E+000  0.000000000000000E+000
  0.000000000000000E+000  0.000000000000000E+000  0.000000000000000E+000
  0.000000000000000E+000  0.000000000000000E+000  0.000000000000000E+000
  0.000000000000000E+000  0.000000000000000E+000  0.000000000000000E+000
  0.000000000000000E+000  0.000000000000000E+000  0.000000000000000E+000
  0.000000000000000E+000  0.000000000000000E+000  0.000000000000000E+000
  0.000000000000000E+000  0.000000000000000E+000  0.000000000000000E+000
  0.000000000000000E+000  0.000000000000000E+000  0.000000000000000E+000
  0.000000000000000E+000  0.000000000000000E+000  0.000000000000000E+000
  0.000000000000000E+000  0.000000000000000E+000  0.000000000000000E+000
  0.000000000000000E+000  0.000000000000000E+000  0.000000000000000E+000
  0.000000000000000E+000  0.000000000000000E+000  0.000000000000000E+000
  0.000000000000000E+000  0.000000000000000E+000  0.000000000000000E+000
  0.000000000000000E+000  0.000000000000000E+000  0.000000000000000E+000
  0.000000000000000E+000  0.000000000000000E+000  0.000000000000000E+000
  0.000000000000000E+000  0.000000000000000E+000  0.000000000000000E+000
  0.000000000000000E+000  0.000000000000000E+000  0.000000000000000E+000
  0.000000000000000E+000  0.000000000000000E+000  0.000000000000000E+000
  0.000000000000000E+000  0.000000000000000E+000  0.000000000000000E+000
  0.000000000000000E+000  0.000000000000000E+000  0.000000000000000E+000
  0.000000000000000E+000  0.000000000000000E+000  0.000000000000000E+000
  0.000000000000000E+000  0.000000000000000E+000  0.000000000000000E+000
  0.000000000000000E+000  0.000000000000000E+000  0.000000000000000E+000