 Title = "Wing and Wake"
 VARIABLES = "X" "Y" "Z" "GAM" "skew"
 Zone I=   11 J=   26 K=1  T="Blade"
 DATAPACKING=BLOCK
 VARLOCATION=([4]=CELLCENTERED,[5]=CELLCENTERED)
  0.155865830548740       0.159052381433241       0.162238932317742     
  0.165425483202243       0.168612034086745       0.171798584971246     
  0.174985135855747       0.178171686740249       0.181358237624750     
  0.184544788509251       0.187731339393752       0.159565736745114     
  0.162752287629616       0.165938838514117       0.169125389398618     
  0.172311940283119       0.175498491167621       0.178685042052122     
  0.181871592936623       0.185058143821124       0.188244694705626     
  0.191431245590127       0.170607105603304       0.173793656487806     
  0.176980207372307       0.180166758256808       0.183353309141309     
  0.186539860025811       0.189726410910312       0.192912961794813     
  0.196099512679314       0.199286063563815       0.202472614448317     
  0.188815808140622       0.192002359025124       0.195188909909625     
  0.198375460794126       0.201562011678627       0.204748562563128     
  0.207935113447630       0.211121664332131       0.214308215216632     
  0.217494766101133       0.220681316985634       0.213904682240702     
  0.217091233125204       0.220277784009705       0.223464334894206     
  0.226650885778707       0.229837436663209       0.233023987547710     
  0.236210538432211       0.239397089316712       0.242583640201213     
  0.245770191085715       0.245478061371619       0.248664612256121     
  0.251851163140622       0.255037714025124       0.258224264909625     
  0.261410815794126       0.264597366678627       0.267783917563129     
  0.270970468447630       0.274157019332131       0.277343570216632     
  0.283038014483457       0.286224565367959       0.289411116252460     
  0.292597667136961       0.295784218021463       0.298970768905964     
  0.302157319790465       0.305343870674966       0.308530421559467     
  0.311716972443968       0.314903523328469       0.325992198678414     
  0.329178749562914       0.332365300447416       0.335551851331917     
  0.338738402216418       0.341924953100920       0.345111503985421     
  0.348298054869922       0.351484605754423       0.354671156638925     
  0.357857707523427       0.373663200812148       0.376849751696649     
  0.380036302581150       0.383222853465652       0.386409404350153     
  0.389595955234654       0.392782506119155       0.395969057003657     
  0.399155607888158       0.402342158772659       0.405528709657160     
  0.425299220703734       0.428485771588236       0.431672322472737     
  0.434858873357238       0.438045424241740       0.441231975126240     
  0.444418526010741       0.447605076895243       0.450791627779744     
  0.453978178664246       0.457164729548747       0.480085927473620     
  0.483272478358122       0.486459029242622       0.489645580127124     
  0.492832131011625       0.496018681896127       0.499205232780627     
  0.502391783665129       0.505578334549630       0.508764885434132     
  0.511951436318632       0.537159302028052       0.540345852912553     
  0.543532403797054       0.546718954681555       0.549905505566056     
  0.553092056450558       0.556278607335060       0.559465158219561     
  0.562651709104062       0.565838259988563       0.569024810873064     
  0.595619263156325       0.598805814040826       0.601992364925326     
  0.605178915809828       0.608365466694329       0.611552017578830     
  0.614738568463332       0.617925119347833       0.621111670232334     
  0.624298221116836       0.627484772001337       0.654543862349158     
  0.657730413233659       0.660916964118159       0.664103515002660     
  0.667290065887162       0.670476616771663       0.673663167656166     
  0.676849718540666       0.680036269425168       0.683222820309669     
  0.686409371194170       0.713003823477430       0.716190374361931     
  0.719376925246433       0.722563476130933       0.725750027015434     
  0.728936577899936       0.732123128784437       0.735309679668938     
  0.738496230553439       0.741682781437940       0.744869332322443     
  0.770077198031862       0.773263748916362       0.776450299800864     
  0.779636850685365       0.782823401569866       0.786009952454368     
  0.789196503338868       0.792383054223370       0.795569605107871     
  0.798756155992371       0.801942706876874       0.824863904801747     
  0.828050455686248       0.831237006570749       0.834423557455252     
  0.837610108339752       0.840796659224253       0.843983210108754     
  0.847169760993256       0.850356311877757       0.853542862762259     
  0.856729413646760       0.876499924693334       0.879686475577834     
  0.882873026462336       0.886059577346837       0.889246128231339     
  0.892432679115840       0.895619230000341       0.898805780884842     
  0.901992331769343       0.905178882653845       0.908365433538346     
  0.924170926827068       0.927357477711568       0.930544028596070     
  0.933730579480570       0.936917130365073       0.940103681249574     
  0.943290232134075       0.946476783018576       0.949663333903078     
  0.952849884787579       0.956036435672080       0.967125111022023     
  0.970311661906525       0.973498212791025       0.976684763675528     
  0.979871314560028       0.983057865444530       0.986244416329030     
  0.989430967213534       0.992617518098034       0.995804068982535     
  0.998990619867035        1.00468506413386        1.00787161501836     
   1.01105816590286        1.01424471678736        1.01743126767187     
   1.02061781855637        1.02380436944087        1.02699092032537     
   1.03017747120987        1.03336402209437        1.03655057297887     
   1.03625844326478        1.03944499414928        1.04263154503378     
   1.04581809591828        1.04900464680278        1.05219119768729     
   1.05537774857179        1.05856429945629        1.06175085034079     
   1.06493740122529        1.06812395210979        1.06134731736486     
   1.06453386824936        1.06772041913386        1.07090697001836     
   1.07409352090286        1.07728007178737        1.08046662267187     
   1.08365317355637        1.08683972444087        1.09002627532537     
   1.09321282620987        1.07955601990218        1.08274257078668     
   1.08592912167118        1.08911567255568        1.09230222344018     
   1.09548877432468        1.09867532520918        1.10186187609369     
   1.10504842697819        1.10823497786269        1.11142152874719     
   1.09059738876037        1.09378393964487        1.09697049052937     
   1.10015704141387        1.10334359229837        1.10653014318287     
   1.10971669406737        1.11290324495187        1.11608979583638     
   1.11927634672088        1.12246289760538        1.09429729495674     
   1.09748384584124        1.10067039672574        1.10385694761025     
   1.10704349849475        1.11023004937925        1.11341660026375     
   1.11660315114825        1.11978970203275        1.12297625291725     
   1.12616280380176     
  0.216176159511331       0.197816935435092       0.179457711358853     
  0.161098487282614       0.142739263206374       0.124380039130136     
  0.106020815053896       8.766159097765752E-002  6.930236690141862E-002
  5.094314282517944E-002  3.258391874894044E-002  0.216818340210998     
  0.198459116134759       0.180099892058520       0.161740667982281     
  0.143381443906042       0.125022219829803       0.106662995753564     
  8.830377167732491E-002  6.994454760108594E-002  5.158532352484701E-002
  3.322609944860778E-002  0.218734754736746       0.200375530660507     
  0.182016306584268       0.163657082508029       0.145297858431790     
  0.126938634355551       0.108579410279312       9.022018620307319E-002
  7.186096212683410E-002  5.350173805059487E-002  3.514251397435605E-002
  0.221895180086694       0.203535956010455       0.185176731934215     
  0.166817507857976       0.148458283781738       0.130099059705498     
  0.111739835629259       9.338061155302041E-002  7.502138747678139E-002
  5.666216340054233E-002  3.830293932430349E-002  0.226249774465125     
  0.207890550388886       0.189531326312647       0.171172102236408     
  0.152812878160169       0.134453654083930       0.116094430007691     
  9.773520593145173E-002  7.937598185521268E-002  6.101675777897380E-002
  4.265753370273475E-002  0.231729863317383       0.213370639241144     
  0.195011415164905       0.176652191088666       0.158292967012428     
  0.139933742936188       0.121574518859950       0.103215294783710     
  8.485607070747121E-002  6.649684663123206E-002  4.813762255499324E-002
  0.238249022368623       0.219889798292384       0.201530574216145     
  0.183171350139906       0.164812126063667       0.146452901987428     
  0.128093677911189       0.109734453834950       9.137522975871128E-002
  7.301600568247210E-002  5.465678160623318E-002  0.245704440586249     
  0.227345216510010       0.208985992433771       0.190626768357532     
  0.172267544281293       0.153908320205054       0.135549096128815     
  0.117189872052576       9.883064797633685E-002  8.047142390009808E-002
  6.211219982385899E-002  0.253978541571318       0.235619317495079     
  0.217260093418840       0.198900869342601       0.180541645266362     
  0.162182421190123       0.143823197113884       0.125463973037645     
  0.107104748961406       8.874552488516697E-002  7.038630080892823E-002
  0.262940837808587       0.244581613732348       0.226222389656109     
  0.207863165579870       0.189503941503631       0.171144717427392     
  0.152785493351153       0.134426269274914       0.116067045198675     
  9.770782112243609E-002  7.934859704619728E-002  0.272449988532579     
  0.254090764456340       0.235731540380101       0.217372316303862     
  0.199013092227623       0.180653868151384       0.162294644075145     
  0.143935419998905       0.125576195922667       0.107216971846428     
  8.885774777018866E-002  0.282356028755883       0.263996804679645     
  0.245637580603406       0.227278356527166       0.208919132450928     
  0.190559908374689       0.172200684298450       0.153841460222211     
  0.135482236145972       0.117123012069733       9.876378799349390E-002
  0.292502734306600       0.274143510230360       0.255784286154121     
  0.237425062077882       0.219065838001643       0.200706613925405     
  0.182347389849164       0.163988165772926       0.145628941696688     
  0.127269717620449       0.108910493544209       0.302730085576843     
  0.284370861500603       0.266011637424365       0.247652413348125     
  0.229293189271886       0.210933965195647       0.192574741119408     
  0.174215517043170       0.155856292966931       0.137497068890691     
  0.119137844814452       0.312876791127558       0.294517567051319     
  0.276158342975080       0.257799118898841       0.239439894822601     
  0.221080670746363       0.202721446670124       0.184362222593884     
  0.166002998517645       0.147643774441407       0.129284550365168     
  0.322782831350863       0.304423607274624       0.286064383198385     
  0.267705159122147       0.249345935045908       0.230986710969668     
  0.212627486893429       0.194268262817190       0.175909038740951     
  0.157549814664712       0.139190590588473       0.332291982074855     
  0.313932757998616       0.295573533922376       0.277214309846138     
  0.258855085769898       0.240495861693660       0.222136637617420     
  0.203777413541182       0.185418189464943       0.167058965388704     
  0.148699741312465       0.341254278312124       0.322895054235884     
  0.304535830159646       0.286176606083407       0.267817382007167     
  0.249458157930929       0.231098933854690       0.212739709778451     
  0.194380485702212       0.176021261625973       0.157662037549734     
  0.349528379297192       0.331169155220954       0.312809931144714     
  0.294450707068476       0.276091482992237       0.257732258915998     
  0.239373034839759       0.221013810763520       0.202654586687281     
  0.184295362611041       0.165936138534803       0.356983797514819     
  0.338624573438580       0.320265349362341       0.301906125286101     
  0.283546901209863       0.265187677133623       0.246828453057385     
  0.228469228981146       0.210110004904906       0.191750780828667     
  0.173391556752428       0.363502956566058       0.345143732489819     
  0.326784508413580       0.308425284337342       0.290066060261103     
  0.271706836184863       0.253347612108624       0.234988388032385     
  0.216629163956147       0.198269939879907       0.179910715803668     
  0.368983045418318       0.350623821342079       0.332264597265838     
  0.313905373189600       0.295546149113362       0.277186925037122     
  0.258827700960883       0.240468476884644       0.222109252808405     
  0.203750028732166       0.185390804655926       0.373337639796748     
  0.354978415720509       0.336619191644270       0.318259967568031     
  0.299900743491792       0.281541519415553       0.263182295339314     
  0.244823071263076       0.226463847186836       0.208104623110598     
  0.189745399034358       0.376498065146696       0.358138841070458     
  0.339779616994217       0.321420392917979       0.303061168841740     
  0.284701944765500       0.266342720689262       0.247983496613022     
  0.229624272536784       0.211265048460544       0.192905824384305     
  0.378414479672443       0.360055255596205       0.341696031519967     
  0.323336807443727       0.304977583367488       0.286618359291248     
  0.268259135215009       0.249899911138770       0.231540687062532     
  0.213181462986293       0.194822238910054       0.379056660372111     
  0.360697436295872       0.342338212219634       0.323978988143394     
  0.305619764067155       0.287260539990917       0.268901315914677     
  0.250542091838438       0.232182867762199       0.213823643685960     
  0.195464419609721     
  3.960717710078315E-002  3.564645939070483E-002  3.168574168062652E-002
  2.772502397054821E-002  2.376430626046989E-002  1.980358855039158E-002
  1.584287084031326E-002  1.188215313023495E-002  7.921435420156629E-003
  3.960717710078312E-003  0.000000000000000E+000  3.960717710078315E-002
  3.564645939070483E-002  3.168574168062652E-002  2.772502397054821E-002
  2.376430626046989E-002  1.980358855039158E-002  1.584287084031326E-002
  1.188215313023495E-002  7.921435420156629E-003  3.960717710078312E-003
  0.000000000000000E+000  3.960717710078315E-002  3.564645939070483E-002
  3.168574168062652E-002  2.772502397054821E-002  2.376430626046989E-002
  1.980358855039158E-002  1.584287084031326E-002  1.188215313023495E-002
  7.921435420156629E-003  3.960717710078312E-003  0.000000000000000E+000
  3.960717710078315E-002  3.564645939070483E-002  3.168574168062652E-002
  2.772502397054821E-002  2.376430626046989E-002  1.980358855039158E-002
  1.584287084031326E-002  1.188215313023495E-002  7.921435420156629E-003
  3.960717710078312E-003  0.000000000000000E+000  3.960717710078315E-002
  3.564645939070483E-002  3.168574168062652E-002  2.772502397054821E-002
  2.376430626046989E-002  1.980358855039158E-002  1.584287084031326E-002
  1.188215313023495E-002  7.921435420156629E-003  3.960717710078312E-003
  0.000000000000000E+000  3.960717710078315E-002  3.564645939070483E-002
  3.168574168062652E-002  2.772502397054821E-002  2.376430626046989E-002
  1.980358855039158E-002  1.584287084031326E-002  1.188215313023495E-002
  7.921435420156629E-003  3.960717710078312E-003  0.000000000000000E+000
  3.960717710078315E-002  3.564645939070483E-002  3.168574168062652E-002
  2.772502397054821E-002  2.376430626046989E-002  1.980358855039158E-002
  1.584287084031326E-002  1.188215313023495E-002  7.921435420156629E-003
  3.960717710078312E-003  0.000000000000000E+000  3.960717710078315E-002
  3.564645939070483E-002  3.168574168062652E-002  2.772502397054821E-002
  2.376430626046989E-002  1.980358855039158E-002  1.584287084031326E-002
  1.188215313023495E-002  7.921435420156629E-003  3.960717710078312E-003
  0.000000000000000E+000  3.960717710078315E-002  3.564645939070483E-002
  3.168574168062652E-002  2.772502397054821E-002  2.376430626046989E-002
  1.980358855039158E-002  1.584287084031326E-002  1.188215313023495E-002
  7.921435420156629E-003  3.960717710078312E-003  0.000000000000000E+000
  3.960717710078315E-002  3.564645939070483E-002  3.168574168062652E-002
  2.772502397054821E-002  2.376430626046989E-002  1.980358855039158E-002
  1.584287084031326E-002  1.188215313023495E-002  7.921435420156629E-003
  3.960717710078312E-003  0.000000000000000E+000  3.960717710078315E-002
  3.564645939070483E-002  3.168574168062652E-002  2.772502397054821E-002
  2.376430626046989E-002  1.980358855039158E-002  1.584287084031326E-002
  1.188215313023495E-002  7.921435420156629E-003  3.960717710078312E-003
  0.000000000000000E+000  3.960717710078315E-002  3.564645939070483E-002
  3.168574168062652E-002  2.772502397054821E-002  2.376430626046989E-002
  1.980358855039158E-002  1.584287084031326E-002  1.188215313023495E-002
  7.921435420156629E-003  3.960717710078312E-003  0.000000000000000E+000
  3.960717710078315E-002  3.564645939070483E-002  3.168574168062652E-002
  2.772502397054821E-002  2.376430626046989E-002  1.980358855039158E-002
  1.584287084031326E-002  1.188215313023495E-002  7.921435420156629E-003
  3.960717710078312E-003  0.000000000000000E+000  3.960717710078315E-002
  3.564645939070483E-002  3.168574168062652E-002  2.772502397054821E-002
  2.376430626046989E-002  1.980358855039158E-002  1.584287084031326E-002
  1.188215313023495E-002  7.921435420156629E-003  3.960717710078312E-003
  0.000000000000000E+000  3.960717710078315E-002  3.564645939070483E-002
  3.168574168062652E-002  2.772502397054821E-002  2.376430626046989E-002
  1.980358855039158E-002  1.584287084031326E-002  1.188215313023495E-002
  7.921435420156629E-003  3.960717710078312E-003  0.000000000000000E+000
  3.960717710078315E-002  3.564645939070483E-002  3.168574168062652E-002
  2.772502397054821E-002  2.376430626046989E-002  1.980358855039158E-002
  1.584287084031326E-002  1.188215313023495E-002  7.921435420156629E-003
  3.960717710078312E-003  0.000000000000000E+000  3.960717710078315E-002
  3.564645939070483E-002  3.168574168062652E-002  2.772502397054821E-002
  2.376430626046989E-002  1.980358855039158E-002  1.584287084031326E-002
  1.188215313023495E-002  7.921435420156629E-003  3.960717710078312E-003
  0.000000000000000E+000  3.960717710078315E-002  3.564645939070483E-002
  3.168574168062652E-002  2.772502397054821E-002  2.376430626046989E-002
  1.980358855039158E-002  1.584287084031326E-002  1.188215313023495E-002
  7.921435420156629E-003  3.960717710078312E-003  0.000000000000000E+000
  3.960717710078315E-002  3.564645939070483E-002  3.168574168062652E-002
  2.772502397054821E-002  2.376430626046989E-002  1.980358855039158E-002
  1.584287084031326E-002  1.188215313023495E-002  7.921435420156629E-003
  3.960717710078312E-003  0.000000000000000E+000  3.960717710078315E-002
  3.564645939070483E-002  3.168574168062652E-002  2.772502397054821E-002
  2.376430626046989E-002  1.980358855039158E-002  1.584287084031326E-002
  1.188215313023495E-002  7.921435420156629E-003  3.960717710078312E-003
  0.000000000000000E+000  3.960717710078315E-002  3.564645939070483E-002
  3.168574168062652E-002  2.772502397054821E-002  2.376430626046989E-002
  1.980358855039158E-002  1.584287084031326E-002  1.188215313023495E-002
  7.921435420156629E-003  3.960717710078312E-003  0.000000000000000E+000
  3.960717710078315E-002  3.564645939070483E-002  3.168574168062652E-002
  2.772502397054821E-002  2.376430626046989E-002  1.980358855039158E-002
  1.584287084031326E-002  1.188215313023495E-002  7.921435420156629E-003
  3.960717710078312E-003  0.000000000000000E+000  3.960717710078315E-002
  3.564645939070483E-002  3.168574168062652E-002  2.772502397054821E-002
  2.376430626046989E-002  1.980358855039158E-002  1.584287084031326E-002
  1.188215313023495E-002  7.921435420156629E-003  3.960717710078312E-003
  0.000000000000000E+000  3.960717710078315E-002  3.564645939070483E-002
  3.168574168062652E-002  2.772502397054821E-002  2.376430626046989E-002
  1.980358855039158E-002  1.584287084031326E-002  1.188215313023495E-002
  7.921435420156629E-003  3.960717710078312E-003  0.000000000000000E+000
  3.960717710078315E-002  3.564645939070483E-002  3.168574168062652E-002
  2.772502397054821E-002  2.376430626046989E-002  1.980358855039158E-002
  1.584287084031326E-002  1.188215313023495E-002  7.921435420156629E-003
  3.960717710078312E-003  0.000000000000000E+000  3.960717710078315E-002
  3.564645939070483E-002  3.168574168062652E-002  2.772502397054821E-002
  2.376430626046989E-002  1.980358855039158E-002  1.584287084031326E-002
  1.188215313023495E-002  7.921435420156629E-003  3.960717710078312E-003
  0.000000000000000E+000
  8.522231498694791E-002  0.129797234333551       0.169184302737490     
  0.208263862009491       0.248308656503324       0.288908532300036     
  0.328602864097175       0.365181630585865       0.396225234650252     
  0.418013206089444       0.145555534486181       0.223157383045267     
  0.290268609740654       0.355850273396235       0.422449131329963     
  0.489683714467052       0.555290553577651       0.615849449086737     
  0.667653869938869       0.706194560956006       0.208129873778710     
  0.321012337413906       0.415226930651221       0.504075249980581     
  0.591968875414907       0.679383769902763       0.764103332881024     
  0.842285332066458       0.909343355105490       0.958833606239639     
  0.272411939053357       0.418664226033426       0.536692536421741     
  0.643218677671209       0.744160444301137       0.841146397942386     
  0.932903459576279        1.01590086523711        1.08481258155704     
   1.13129769272046       0.340087423709766       0.518287748518033     
  0.657474019432936       0.777895778089110       0.886635697041905     
  0.986066402896189        1.07574837743765        1.15309735281691     
   1.21385456650438        1.25106030813124       0.412785287516751     
  0.623523940082216       0.783332722212756       0.916793298065624     
   1.03247843276372        1.13358560306758        1.22042313318560     
   1.29133778632176        1.34302548983913        1.36999426385921     
  0.493872974139985       0.740262507569936       0.922608441012543     
   1.07082272922657        1.19551473795627        1.30106642355225     
   1.38873164800472        1.45790994500980        1.50680745742854     
   1.53219275187976       0.589043606210455       0.877648006613883     
   1.08744428338478        1.25478301666223        1.39273875539895     
   1.50718631253786        1.60081060324402        1.67453177186402     
   1.72787634034607        1.75809095287955       0.702872167130623     
   1.04265692541302        1.28661901451530        1.47895123567569     
   1.63586078198775        1.76506284180321        1.87059978915061     
   1.95440402711932        2.01657495816483        2.05416662107984     
  0.837145298458523        1.23785517321340        1.52313409402879     
   1.74649741225887        1.92782482793425        2.07675954217175     
   2.19848120919477        2.29559867769993        2.36851044463392     
   2.41395418087405       0.991568292057575        1.46271814498864     
   1.79607442582134        2.05578885530537        2.26583666850052     
   2.43792908141003        2.57842979690194        2.69063306462860     
   2.77522107751960        2.82862334216345        1.16416258912033     
   1.71414946338706        2.10130572067629        2.40159341751705     
   2.64352938768382        2.84112853684137        3.00207688157779     
   3.13043113687499        3.22720823994742        3.28858499125658     
   1.35167117769443        1.98709806444801        2.43231468667547     
   2.77613274694107        3.05203014139577        3.27654430495017     
   3.45881351174363        3.60375326699434        3.71279915616141     
   3.78195816720724        1.55077533910470        2.27639069202430     
   2.78243622257390        3.17144019864973        3.48220098444965     
   3.73399162638162        3.93755513041786        4.09878559278513     
   4.21964688291952        4.29610784566175        1.76036925806191     
   2.57979389784406        3.14822383313636        3.58281992020711     
   3.92811914617421        4.20639643595655        4.43020141641673     
   4.60657458640359        4.73816133423791        4.82107694749106     
   1.98379831032945        2.90077211867945        3.53233299104403     
   4.01175472541219        4.39000671719617        4.69278288403747     
   4.93472864096041        5.12425353097986        5.26487768068464     
   5.35308043975150        2.22487148694699        3.24277681118932     
   3.93685348109624        4.45876602950301        4.86696366772254     
   5.19113049663056        5.44833451811386        5.64856385046509     
   5.79638341907291        5.88881643468902        2.46695081930842     
   3.58089749034366        4.33107615432711        4.88886472559793     
   5.32083688018536        5.66099569210256        5.92898752473210     
   6.13645833843244        6.28910887515523        6.38468627383288     
   2.65788646935428        3.84053067802299        4.62589650611443     
   5.20246611508271        5.64401244282248        5.98838294723895     
   6.25750994848460        6.46451749608908        6.61621521617750     
   6.71146498275934        2.73777130399947        3.93454426523301     
   4.71568771273324        5.28013810391691        5.70641183504862     
   6.03489797319364        6.28893849159455        6.48247614625294     
   6.62301112430121        6.71081132764536        2.67853442284115     
   3.81862335755200        4.54473957783768        5.05884408442584     
   5.44094286184642        5.73177825129905        5.95448581790417     
   6.12263361558169        6.24351093506249        6.31819605511820     
   2.47858235762540        3.48594835416389        4.10533761477551     
   4.53407619397726        4.84846756509436        5.08593248673368     
   5.26708772212015        5.40390415704808        5.50299613508107     
   5.56555137919452        2.13516134915299        2.93423502589935     
   3.40672862687396        3.72912280727136        3.96448993303633     
   4.14226542484319        4.27842733814899        4.38268493136222     
   4.46203721024153        4.52246889490824        1.63057686826767     
   2.16943083200330        2.48371861404825        2.69867933765943     
   2.85624170529253        2.97572411766557        3.06764504654101     
   3.13846166815862        3.19298959123680        3.23796755836143     
  0.990914620032155        1.29260640525666        1.47020886512978     
   1.59235661691890        1.68219622009932        1.75046596018453     
   1.80300269614510        1.84324137236694        1.87314484243778     
   1.89227260377624     
  0.000000000000000E+000  0.000000000000000E+000  0.000000000000000E+000
  0.000000000000000E+000  0.000000000000000E+000  0.000000000000000E+000
  0.000000000000000E+000  0.000000000000000E+000  0.000000000000000E+000
  0.000000000000000E+000  0.000000000000000E+000  0.000000000000000E+000
  0.000000000000000E+000  0.000000000000000E+000  0.000000000000000E+000
  0.000000000000000E+000  0.000000000000000E+000  0.000000000000000E+000
  0.000000000000000E+000  0.000000000000000E+000  0.000000000000000E+000
  0.000000000000000E+000  0.000000000000000E+000  0.000000000000000E+000
  0.000000000000000E+000  0.000000000000000E+000  0.000000000000000E+000
  0.000000000000000E+000  0.000000000000000E+000  0.000000000000000E+000
  0.000000000000000E+000  0.000000000000000E+000  0.000000000000000E+000
  0.000000000000000E+000  0.000000000000000E+000  0.000000000000000E+000
  0.000000000000000E+000  0.000000000000000E+000  0.000000000000000E+000
  0.000000000000000E+000  0.000000000000000E+000  0.000000000000000E+000
  0.000000000000000E+000  0.000000000000000E+000  0.000000000000000E+000
  0.000000000000000E+000  0.000000000000000E+000  0.000000000000000E+000
  0.000000000000000E+000  0.000000000000000E+000  0.000000000000000E+000
  0.000000000000000E+000  0.000000000000000E+000  0.000000000000000E+000
  0.000000000000000E+000  0.000000000000000E+000  0.000000000000000E+000
  0.000000000000000E+000  0.000000000000000E+000  0.000000000000000E+000
  0.000000000000000E+000  0.000000000000000E+000  0.000000000000000E+000
  0.000000000000000E+000  0.000000000000000E+000  0.000000000000000E+000
  0.000000000000000E+000  0.000000000000000E+000  0.000000000000000E+000
  0.000000000000000E+000  0.000000000000000E+000  0.000000000000000E+000
  0.000000000000000E+000  0.000000000000000E+000  0.000000000000000E+000
  0.000000000000000E+000  0.000000000000000E+000  0.000000000000000E+000
  0.000000000000000E+000  0.000000000000000E+000  0.000000000000000E+000
  0.000000000000000E+000  0.000000000000000E+000  0.000000000000000E+000
  0.000000000000000E+000  0.000000000000000E+000  0.000000000000000E+000
  0.000000000000000E+000  0.000000000000000E+000  0.000000000000000E+000
  0.000000000000000E+000  0.000000000000000E+000  0.000000000000000E+000
  0.000000000000000E+000  0.000000000000000E+000  0.000000000000000E+000
  0.000000000000000E+000  0.000000000000000E+000  0.000000000000000E+000
  0.000000000000000E+000  0.000000000000000E+000  0.000000000000000E+000
  0.000000000000000E+000  0.000000000000000E+000  0.000000000000000E+000
  0.000000000000000E+000  0.000000000000000E+000  0.000000000000000E+000
  0.000000000000000E+000  0.000000000000000E+000  0.000000000000000E+000
  0.000000000000000E+000  0.000000000000000E+000  0.000000000000000E+000
  0.000000000000000E+000  0.000000000000000E+000  0.000000000000000E+000