 Title = "Wing and Wake"
 VARIABLES = "X" "Y" "Z" "GAM" "skew"
 Zone I=   11 J=   26 K=1  T="Blade"
 DATAPACKING=BLOCK
 VARLOCATION=([4]=CELLCENTERED,[5]=CELLCENTERED)
  9.461881422802873E-002  0.102447519448564       0.110276224669099     
  0.118104929889633       0.125933635110168       0.133762340330703     
  0.141591045551238       0.149419750771772       0.157248455992307     
  0.165077161212842       0.172905866433377       9.802653234623039E-002
  0.105855237566765       0.113683942787300       0.121512648007835     
  0.129341353228370       0.137170058448905       0.144998763669439     
  0.152827468889974       0.160656174110509       0.168484879331044     
  0.176313584551579       0.108195944950439       0.116024650170974     
  0.123853355391509       0.131682060612044       0.139510765832578     
  0.147339471053113       0.155168176273648       0.162996881494183     
  0.170825586714718       0.178654291935252       0.186482997155787     
  0.124966674328974       0.132795379549509       0.140624084770044     
  0.148452789990579       0.156281495211114       0.164110200431648     
  0.171938905652183       0.179767610872718       0.187596316093253     
  0.195425021313788       0.203253726534322       0.148074236061188     
  0.155902941281723       0.163731646502257       0.171560351722792     
  0.179389056943327       0.187217762163862       0.195046467384397     
  0.202875172604932       0.210703877825466       0.218532583046001     
  0.226361288266536       0.177154210094775       0.184982915315310     
  0.192811620535844       0.200640325756379       0.208469030976914     
  0.216297736197449       0.224126441417983       0.231955146638518     
  0.239783851859053       0.247612557079588       0.255441262300123     
  0.211747987867691       0.219576693088226       0.227405398308760     
  0.235234103529295       0.243062808749830       0.250891513970365     
  0.258720219190899       0.266548924411434       0.274377629631969     
  0.282206334852504       0.290035040073038       0.251310004839136     
  0.259138710059670       0.266967415280206       0.274796120500740     
  0.282624825721275       0.290453530941810       0.298282236162345     
  0.306110941382879       0.313939646603414       0.321768351823949     
  0.329597057044484       0.295216344368267       0.303045049588802     
  0.310873754809336       0.318702460029871       0.326531165250406     
  0.334359870470941       0.342188575691476       0.350017280912011     
  0.357845986132546       0.365674691353080       0.373503396573615     
  0.342774577252334       0.350603282472868       0.358431987693403     
  0.366260692913938       0.374089398134473       0.381918103355008     
  0.389746808575542       0.397575513796077       0.405404219016612     
  0.413232924237147       0.421061629457682       0.393234681748843     
  0.401063386969378       0.408892092189913       0.416720797410448     
  0.424549502630983       0.432378207851518       0.440206913072052     
  0.448035618292587       0.455864323513122       0.463693028733657     
  0.471521733954191       0.445800871866481       0.453629577087015     
  0.461458282307550       0.469286987528085       0.477115692748620     
  0.484944397969154       0.492773103189689       0.500601808410225     
  0.508430513630759       0.516259218851294       0.524087924071829     
  0.499644147385570       0.507472852606105       0.515301557826639     
  0.523130263047174       0.530958968267709       0.538787673488244     
  0.546616378708778       0.554445083929313       0.562273789149848     
  0.570102494370383       0.577931199590918       0.553915367686762     
  0.561744072907297       0.569572778127832       0.577401483348366     
  0.585230188568901       0.593058893789436       0.600887599009972     
  0.608716304230505       0.616545009451041       0.624373714671576     
  0.632202419892110       0.607758643205852       0.615587348426387     
  0.623416053646921       0.631244758867456       0.639073464087991     
  0.646902169308526       0.654730874529060       0.662559579749595     
  0.670388284970130       0.678216990190665       0.686045695411200     
  0.660324833323489       0.668153538544023       0.675982243764558     
  0.683810948985093       0.691639654205628       0.699468359426163     
  0.707297064646697       0.715125769867233       0.722954475087767     
  0.730783180308301       0.738611885528837       0.710784937819999     
  0.718613643040533       0.726442348261068       0.734271053481603     
  0.742099758702137       0.749928463922673       0.757757169143207     
  0.765585874363742       0.773414579584277       0.781243284804812     
  0.789071990025347       0.758343170704066       0.766171875924600     
  0.774000581145135       0.781829286365669       0.789657991586204     
  0.797486696806739       0.805315402027274       0.813144107247809     
  0.820972812468344       0.828801517688879       0.836630222909412     
  0.802249510233196       0.810078215453731       0.817906920674266     
  0.825735625894800       0.833564331115336       0.841393036335870     
  0.849221741556404       0.857050446776940       0.864879151997474     
  0.872707857218010       0.880536562438544       0.841811527204641     
  0.849640232425177       0.857468937645710       0.865297642866246     
  0.873126348086780       0.880955053307315       0.888783758527850     
  0.896612463748386       0.904441168968920       0.912269874189455     
  0.920098579409989       0.876405304977558       0.884234010198092     
  0.892062715418626       0.899891420639161       0.907720125859696     
  0.915548831080231       0.923377536300766       0.931206241521301     
  0.939034946741835       0.946863651962370       0.954692357182906     
  0.905485279011144       0.913313984231679       0.921142689452213     
  0.928971394672748       0.936800099893283       0.944628805113819     
  0.952457510334353       0.960286215554887       0.968114920775422     
  0.975943625995957       0.983772331216492       0.928592840743358     
  0.936421545963892       0.944250251184427       0.952078956404962     
  0.959907661625497       0.967736366846032       0.975565072066566     
  0.983393777287101       0.991222482507636       0.999051187728171     
   1.00687989294871       0.945363570121894       0.953192275342428     
  0.961020980562962       0.968849685783498       0.976678391004032     
  0.984507096224567       0.992335801445101        1.00016450666564     
   1.00799321188617        1.01582191710671        1.02365062232724     
  0.955532982726101       0.963361687946635       0.971190393167170     
  0.979019098387705       0.986847803608240       0.994676508828775     
   1.00250521404931        1.01033391926985        1.01816262449038     
   1.02599132971091        1.03382003493145       0.958940700844302     
  0.966769406064837       0.974598111285372       0.982426816505908     
  0.990255521726441       0.998084226946976        1.00591293216751     
   1.01374163738805        1.02157034260858        1.02939904782912     
   1.03722775304965     
  0.249145678404822       0.232236314437155       0.215326950469487     
  0.198417586501820       0.181508222534153       0.164598858566486     
  0.147689494598818       0.130780130631151       0.113870766663484     
  9.696140269581666E-002  8.005203872814955E-002  0.250723385329404     
  0.233814021361737       0.216904657394070       0.199995293426403     
  0.183085929458735       0.166176565491068       0.149267201523401     
  0.132357837555734       0.115448473588067       9.853910962039954E-002
  8.162974565273211E-002  0.255431624722475       0.238522260754808     
  0.221612896787141       0.204703532819473       0.187794168851806     
  0.170884804884139       0.153975440916472       0.137066076948805     
  0.120156712981137       0.103247349013470       8.633798504580290E-002
  0.263196144836239       0.246286780868572       0.229377416900905     
  0.212468052933238       0.195558688965571       0.178649324997903     
  0.161739961030236       0.144830597062569       0.127921233094902     
  0.111011869127235       9.410250515956736E-002  0.273894494550204     
  0.256985130582537       0.240075766614869       0.223166402647202     
  0.206257038679535       0.189347674711868       0.172438310744200     
  0.155528946776533       0.138619582808866       0.121710218841199     
  0.104800854873532       0.287357954498494       0.270448590530827     
  0.253539226563160       0.236629862595493       0.219720498627826     
  0.202811134660158       0.185901770692491       0.168992406724824     
  0.152083042757157       0.135173678789489       0.118264314821822     
  0.303374197875045       0.286464833907379       0.269555469939711     
  0.252646105972044       0.235736742004377       0.218827378036710     
  0.201918014069042       0.185008650101375       0.168099286133708     
  0.151189922166041       0.134280558198374       0.321690638954170     
  0.304781274986502       0.287871911018835       0.270962547051168     
  0.254053183083501       0.237143819115834       0.220234455148167     
  0.203325091180499       0.186415727212832       0.169506363245165     
  0.152596999277498       0.342018416518337       0.325109052550670     
  0.308199688583003       0.291290324615336       0.274380960647668     
  0.257471596680001       0.240562232712334       0.223652868744667     
  0.206743504777000       0.189834140809332       0.172924776841665     
  0.364036949372135       0.347127585404468       0.330218221436800     
  0.313308857469133       0.296399493501466       0.279490129533799     
  0.262580765566131       0.245671401598464       0.228762037630797     
  0.211852673663130       0.194943309695463       0.387398992099225     
  0.370489628131558       0.353580264163890       0.336670900196223     
  0.319761536228556       0.302852172260889       0.285942808293222     
  0.269033444325554       0.252124080357887       0.235214716390220     
  0.218305352422553       0.411736111329993       0.394826747362326     
  0.377917383394658       0.361008019426991       0.344098655459324     
  0.327189291491657       0.310279927523990       0.293370563556323     
  0.276461199588655       0.259551835620988       0.242642471653321     
  0.436664496155880       0.419755132188212       0.402845768220544     
  0.385936404252878       0.369027040285210       0.352117676317544     
  0.335208312349876       0.318298948382209       0.301389584414542     
  0.284480220446875       0.267570856479207       0.461791011056685     
  0.444881647089018       0.427972283121351       0.411062919153683     
  0.394153555186016       0.377244191218349       0.360334827250682     
  0.343425463283015       0.326516099315348       0.309606735347680     
  0.292697371380013       0.486719395882572       0.469810031914905     
  0.452900667947237       0.435991303979571       0.419081940011903     
  0.402172576044236       0.385263212076569       0.368353848108901     
  0.351444484141234       0.334535120173567       0.317625756205900     
  0.511056515113340       0.494147151145672       0.477237787178006     
  0.460328423210339       0.443419059242671       0.426509695275004     
  0.409600331307337       0.392690967339670       0.375781603372003     
  0.358872239404335       0.341962875436668       0.534418557840430     
  0.517509193872763       0.500599829905096       0.483690465937429     
  0.466781101969761       0.449871738002094       0.432962374034426     
  0.416053010066760       0.399143646099093       0.382234282131425     
  0.365324918163758       0.556437090694228       0.539527726726560     
  0.522618362758893       0.505708998791226       0.488799634823559     
  0.471890270855892       0.454980906888224       0.438071542920557     
  0.421162178952890       0.404252814985222       0.387343451017556     
  0.576764868258394       0.559855504290728       0.542946140323061     
  0.526036776355393       0.509127412387726       0.492218048420059     
  0.475308684452391       0.458399320484725       0.441489956517057     
  0.424580592549390       0.407671228581723       0.595081309337519     
  0.578171945369852       0.561262581402184       0.544353217434517     
  0.527443853466850       0.510534489499183       0.493625125531516     
  0.476715761563849       0.459806397596181       0.442897033628514     
  0.425987669660847       0.611097552714071       0.594188188746403     
  0.577278824778736       0.560369460811069       0.543460096843401     
  0.526550732875735       0.509641368908067       0.492732004940400     
  0.475822640972733       0.458913277005065       0.442003913037398     
  0.624561012662361       0.607651648694694       0.590742284727026     
  0.573832920759360       0.556923556791693       0.540014192824025     
  0.523104828856358       0.506195464888691       0.489286100921024     
  0.472376736953356       0.455467372985689       0.635259362376325     
  0.618349998408658       0.601440634440991       0.584531270473323     
  0.567621906505657       0.550712542537989       0.533803178570322     
  0.516893814602655       0.499984450634987       0.483075086667321     
  0.466165722699653       0.643023882490090       0.626114518522424     
  0.609205154554755       0.592295790587088       0.575386426619421     
  0.558477062651753       0.541567698684086       0.524658334716419     
  0.507748970748752       0.490839606781085       0.473930242813417     
  0.647732121883160       0.630822757915493       0.613913393947827     
  0.597004029980158       0.580094666012492       0.563185302044824     
  0.546275938077157       0.529366574109489       0.512457210141823     
  0.495547846174155       0.478638482206488       0.649309828807743     
  0.632400464840076       0.615491100872409       0.598581736904742     
  0.581672372937074       0.564763008969407       0.547853645001739     
  0.530944281034072       0.514034917066406       0.497125553098738     
  0.480216189131071     
  3.960717710078315E-002  3.564645939070483E-002  3.168574168062652E-002
  2.772502397054821E-002  2.376430626046989E-002  1.980358855039158E-002
  1.584287084031326E-002  1.188215313023495E-002  7.921435420156629E-003
  3.960717710078312E-003  0.000000000000000E+000  3.960717710078315E-002
  3.564645939070483E-002  3.168574168062652E-002  2.772502397054821E-002
  2.376430626046989E-002  1.980358855039158E-002  1.584287084031326E-002
  1.188215313023495E-002  7.921435420156629E-003  3.960717710078312E-003
  0.000000000000000E+000  3.960717710078315E-002  3.564645939070483E-002
  3.168574168062652E-002  2.772502397054821E-002  2.376430626046989E-002
  1.980358855039158E-002  1.584287084031326E-002  1.188215313023495E-002
  7.921435420156629E-003  3.960717710078312E-003  0.000000000000000E+000
  3.960717710078315E-002  3.564645939070483E-002  3.168574168062652E-002
  2.772502397054821E-002  2.376430626046989E-002  1.980358855039158E-002
  1.584287084031326E-002  1.188215313023495E-002  7.921435420156629E-003
  3.960717710078312E-003  0.000000000000000E+000  3.960717710078315E-002
  3.564645939070483E-002  3.168574168062652E-002  2.772502397054821E-002
  2.376430626046989E-002  1.980358855039158E-002  1.584287084031326E-002
  1.188215313023495E-002  7.921435420156629E-003  3.960717710078312E-003
  0.000000000000000E+000  3.960717710078315E-002  3.564645939070483E-002
  3.168574168062652E-002  2.772502397054821E-002  2.376430626046989E-002
  1.980358855039158E-002  1.584287084031326E-002  1.188215313023495E-002
  7.921435420156629E-003  3.960717710078312E-003  0.000000000000000E+000
  3.960717710078315E-002  3.564645939070483E-002  3.168574168062652E-002
  2.772502397054821E-002  2.376430626046989E-002  1.980358855039158E-002
  1.584287084031326E-002  1.188215313023495E-002  7.921435420156629E-003
  3.960717710078312E-003  0.000000000000000E+000  3.960717710078315E-002
  3.564645939070483E-002  3.168574168062652E-002  2.772502397054821E-002
  2.376430626046989E-002  1.980358855039158E-002  1.584287084031326E-002
  1.188215313023495E-002  7.921435420156629E-003  3.960717710078312E-003
  0.000000000000000E+000  3.960717710078315E-002  3.564645939070483E-002
  3.168574168062652E-002  2.772502397054821E-002  2.376430626046989E-002
  1.980358855039158E-002  1.584287084031326E-002  1.188215313023495E-002
  7.921435420156629E-003  3.960717710078312E-003  0.000000000000000E+000
  3.960717710078315E-002  3.564645939070483E-002  3.168574168062652E-002
  2.772502397054821E-002  2.376430626046989E-002  1.980358855039158E-002
  1.584287084031326E-002  1.188215313023495E-002  7.921435420156629E-003
  3.960717710078312E-003  0.000000000000000E+000  3.960717710078315E-002
  3.564645939070483E-002  3.168574168062652E-002  2.772502397054821E-002
  2.376430626046989E-002  1.980358855039158E-002  1.584287084031326E-002
  1.188215313023495E-002  7.921435420156629E-003  3.960717710078312E-003
  0.000000000000000E+000  3.960717710078315E-002  3.564645939070483E-002
  3.168574168062652E-002  2.772502397054821E-002  2.376430626046989E-002
  1.980358855039158E-002  1.584287084031326E-002  1.188215313023495E-002
  7.921435420156629E-003  3.960717710078312E-003  0.000000000000000E+000
  3.960717710078315E-002  3.564645939070483E-002  3.168574168062652E-002
  2.772502397054821E-002  2.376430626046989E-002  1.980358855039158E-002
  1.584287084031326E-002  1.188215313023495E-002  7.921435420156629E-003
  3.960717710078312E-003  0.000000000000000E+000  3.960717710078315E-002
  3.564645939070483E-002  3.168574168062652E-002  2.772502397054821E-002
  2.376430626046989E-002  1.980358855039158E-002  1.584287084031326E-002
  1.188215313023495E-002  7.921435420156629E-003  3.960717710078312E-003
  0.000000000000000E+000  3.960717710078315E-002  3.564645939070483E-002
  3.168574168062652E-002  2.772502397054821E-002  2.376430626046989E-002
  1.980358855039158E-002  1.584287084031326E-002  1.188215313023495E-002
  7.921435420156629E-003  3.960717710078312E-003  0.000000000000000E+000
  3.960717710078315E-002  3.564645939070483E-002  3.168574168062652E-002
  2.772502397054821E-002  2.376430626046989E-002  1.980358855039158E-002
  1.584287084031326E-002  1.188215313023495E-002  7.921435420156629E-003
  3.960717710078312E-003  0.000000000000000E+000  3.960717710078315E-002
  3.564645939070483E-002  3.168574168062652E-002  2.772502397054821E-002
  2.376430626046989E-002  1.980358855039158E-002  1.584287084031326E-002
  1.188215313023495E-002  7.921435420156629E-003  3.960717710078312E-003
  0.000000000000000E+000  3.960717710078315E-002  3.564645939070483E-002
  3.168574168062652E-002  2.772502397054821E-002  2.376430626046989E-002
  1.980358855039158E-002  1.584287084031326E-002  1.188215313023495E-002
  7.921435420156629E-003  3.960717710078312E-003  0.000000000000000E+000
  3.960717710078315E-002  3.564645939070483E-002  3.168574168062652E-002
  2.772502397054821E-002  2.376430626046989E-002  1.980358855039158E-002
  1.584287084031326E-002  1.188215313023495E-002  7.921435420156629E-003
  3.960717710078312E-003  0.000000000000000E+000  3.960717710078315E-002
  3.564645939070483E-002  3.168574168062652E-002  2.772502397054821E-002
  2.376430626046989E-002  1.980358855039158E-002  1.584287084031326E-002
  1.188215313023495E-002  7.921435420156629E-003  3.960717710078312E-003
  0.000000000000000E+000  3.960717710078315E-002  3.564645939070483E-002
  3.168574168062652E-002  2.772502397054821E-002  2.376430626046989E-002
  1.980358855039158E-002  1.584287084031326E-002  1.188215313023495E-002
  7.921435420156629E-003  3.960717710078312E-003  0.000000000000000E+000
  3.960717710078315E-002  3.564645939070483E-002  3.168574168062652E-002
  2.772502397054821E-002  2.376430626046989E-002  1.980358855039158E-002
  1.584287084031326E-002  1.188215313023495E-002  7.921435420156629E-003
  3.960717710078312E-003  0.000000000000000E+000  3.960717710078315E-002
  3.564645939070483E-002  3.168574168062652E-002  2.772502397054821E-002
  2.376430626046989E-002  1.980358855039158E-002  1.584287084031326E-002
  1.188215313023495E-002  7.921435420156629E-003  3.960717710078312E-003
  0.000000000000000E+000  3.960717710078315E-002  3.564645939070483E-002
  3.168574168062652E-002  2.772502397054821E-002  2.376430626046989E-002
  1.980358855039158E-002  1.584287084031326E-002  1.188215313023495E-002
  7.921435420156629E-003  3.960717710078312E-003  0.000000000000000E+000
  3.960717710078315E-002  3.564645939070483E-002  3.168574168062652E-002
  2.772502397054821E-002  2.376430626046989E-002  1.980358855039158E-002
  1.584287084031326E-002  1.188215313023495E-002  7.921435420156629E-003
  3.960717710078312E-003  0.000000000000000E+000  3.960717710078315E-002
  3.564645939070483E-002  3.168574168062652E-002  2.772502397054821E-002
  2.376430626046989E-002  1.980358855039158E-002  1.584287084031326E-002
  1.188215313023495E-002  7.921435420156629E-003  3.960717710078312E-003
  0.000000000000000E+000
  0.215320926294229       0.303572363688281       0.369973218763884     
  0.425795405830835       0.474068506941884       0.515685666474395     
  0.550816617772871       0.579680892915038       0.602578872536668     
  0.619210862974257       0.353476310145017       0.506868751409985     
  0.620842484858950       0.716084750961866       0.798212568954153     
  0.868971404466482       0.928881788457677       0.978402580758257     
   1.01846328426058        1.05099009923928       0.458178936194933     
  0.675604248820526       0.836634333912575       0.970090595182939     
   1.08462039267426        1.18321814142922        1.26712295856075     
   1.33714488182158        1.39459357719015        1.44088118150152     
  0.520626011480999       0.783244384608814       0.981050018044634     
   1.14506347468877        1.28539709064593        1.40607304405451     
   1.50874538074306        1.59392082460247        1.66178631125481     
   1.71150065111280       0.549214680532241       0.835326173704079     
   1.05455569191337        1.23745221327538        1.39420202491449     
   1.52906512503759        1.64381412566331        1.73844412270451     
   1.81218751592255        1.86341962757413       0.559673570519319     
  0.854820575305515        1.08265291361705        1.27377258255741     
   1.43804772582896        1.57946141392101        1.69976074830078     
   1.79878998951122        1.87475156310673        1.92543204602472     
  0.572759934310159       0.873740896568285        1.10552201799176     
   1.29950281008921        1.46595679537485        1.60885974816774     
   1.73015992859763        1.82975999849646        1.90639927843822     
   1.95627914734880       0.610688960699817       0.925917869010263     
   1.16539160599123        1.36354240153715        1.53205361635392     
   1.67598514718373        1.79765567318314        1.89764265240450     
   1.97476317145523        2.02463463929320       0.687716947758936     
   1.03340498785313        1.29063490566884        1.50013499714192     
   1.67626327352071        1.82548859236126        1.95086948228846     
   2.05342873856074        2.13226991969408        2.18300088807864     
  0.805289943646686        1.20035182092635        1.48841744114692     
   1.71917606871696        1.91060620722746        2.07109249627473     
   2.20484232621526        2.31359994775850        2.39687670684326     
   2.45026866963712       0.956400488621668        1.41726792399446     
   1.74797967191164        2.00922931349894        2.22338517218696     
   2.40113613121716        2.54806012479585        2.66675307199691     
   2.75719419861840        2.81496007126383        1.13258963680948     
   1.67170888502361        2.05416006488476        2.35311982133201     
   2.59586477821022        2.79563834898496        2.95953524859149     
   3.09108882817819        3.19079821566798        3.25424110689986     
   1.32794867163388        1.95454025191697        2.39527686010911     
   2.73700368904823        3.01234416803152        3.23731456502313     
   3.42065730273848        3.56693738562165        3.67724104284826     
   3.74717168107487        1.53886131660785        2.25974250225419     
   2.76316954580675        3.15075771612434        3.46091487253100     
   3.71266996797256        3.91656987281548        4.07831844297886     
   4.19966540103995        4.27630513488526        1.76215815488486     
   2.58178460444663        3.15009160193743        3.58454554693603     
   3.92980938076398        4.20820078990362        4.43225638089076     
   4.60895391357453        4.74081701163516        4.82374820250550     
   1.99149117509542        2.91043010485600        3.54254067592323     
   4.02200566160580        4.40015373408982        4.70284072379985     
   4.94477413163670        5.13435467138298        5.27501999049051     
   5.36306247852740        2.21154446186672        3.22266591324470     
   3.91183721735555        4.42993126560649        4.83502802286517     
   5.15660311483457        5.41160792253933        5.60995350011405     
   5.75612721942387        5.84708783436147        2.39544576539534     
   3.47905876825499        4.20979671960054        4.75342599832753     
   5.17420854882601        5.50499505986866        5.76484886471138     
   5.96513320450986        6.11145303655662        6.20181855332699     
   2.51280212906655        3.63469015885361        4.38127980926868     
   4.92955731686562        5.34870636014972        5.67434117623202     
   5.92725493734984        6.12000107777643        6.25920580969754     
   6.34429931102645        2.54095362594311        3.65481095659993     
   4.38274315755277        4.90833664798768        5.30403450309787     
   5.60724100068100        5.83973695640214        6.01466992409466     
   6.13927145448590        6.21442064770088        2.46658674449251     
   3.51730396084578        4.18612042239939        4.65854786906965     
   5.00810405728395        5.27232840604111        5.47266398266687     
   5.62182415882475        5.72683566742700        5.78936075591362     
   2.27975999818637        3.20489824048081        3.77224646488520     
   4.16337114341984        4.44849198395397        4.66209985888741     
   4.82328600454114        4.94325912311486        5.02841747636676     
   5.08052700592151        1.96677511221062        2.69997376781125     
   3.13155830125495        3.42440325295795        3.63667949917057     
   3.79555370349235        3.91582900780137        4.00658975576682     
   4.07452439163552        4.12569727655462        1.50463890159357     
   1.99880165230981        2.28534986931663        2.48007063312413     
   2.62167864788952        2.72801743922484        2.80883747609602     
   2.87018381038309        2.91665901188978        2.95483960081597     
  0.915135706880351        1.19167824754032        1.35346954466263     
   1.46399081823615        1.54462084284688        1.60528084029024     
   1.65138379854463        1.68615143231919        1.71149384116194     
   1.72725204403692     
  0.000000000000000E+000  0.000000000000000E+000  0.000000000000000E+000
  0.000000000000000E+000  0.000000000000000E+000  0.000000000000000E+000
  0.000000000000000E+000  0.000000000000000E+000  0.000000000000000E+000
  0.000000000000000E+000  0.000000000000000E+000  0.000000000000000E+000
  0.000000000000000E+000  0.000000000000000E+000  0.000000000000000E+000
  0.000000000000000E+000  0.000000000000000E+000  0.000000000000000E+000
  0.000000000000000E+000  0.000000000000000E+000  0.000000000000000E+000
  0.000000000000000E+000  0.000000000000000E+000  0.000000000000000E+000
  0.000000000000000E+000  0.000000000000000E+000  0.000000000000000E+000
  0.000000000000000E+000  0.000000000000000E+000  0.000000000000000E+000
  0.000000000000000E+000  0.000000000000000E+000  0.000000000000000E+000
  0.000000000000000E+000  0.000000000000000E+000  0.000000000000000E+000
  0.000000000000000E+000  0.000000000000000E+000  0.000000000000000E+000
  0.000000000000000E+000  0.000000000000000E+000  0.000000000000000E+000
  0.000000000000000E+000  0.000000000000000E+000  0.000000000000000E+000
  0.000000000000000E+000  0.000000000000000E+000  0.000000000000000E+000
  0.000000000000000E+000  0.000000000000000E+000  0.000000000000000E+000
  0.000000000000000E+000  0.000000000000000E+000  0.000000000000000E+000
  0.000000000000000E+000  0.000000000000000E+000  0.000000000000000E+000
  0.000000000000000E+000  0.000000000000000E+000  0.000000000000000E+000
  0.000000000000000E+000  0.000000000000000E+000  0.000000000000000E+000
  0.000000000000000E+000  0.000000000000000E+000  0.000000000000000E+000
  0.000000000000000E+000  0.000000000000000E+000  0.000000000000000E+000
  0.000000000000000E+000  0.000000000000000E+000  0.000000000000000E+000
  0.000000000000000E+000  0.000000000000000E+000  0.000000000000000E+000
  0.000000000000000E+000  0.000000000000000E+000  0.000000000000000E+000
  0.000000000000000E+000  0.000000000000000E+000  0.000000000000000E+000
  0.000000000000000E+000  0.000000000000000E+000  0.000000000000000E+000
  0.000000000000000E+000  0.000000000000000E+000  0.000000000000000E+000
  0.000000000000000E+000  0.000000000000000E+000  0.000000000000000E+000
  0.000000000000000E+000  0.000000000000000E+000  0.000000000000000E+000
  0.000000000000000E+000  0.000000000000000E+000  0.000000000000000E+000
  0.000000000000000E+000  0.000000000000000E+000  0.000000000000000E+000
  0.000000000000000E+000  0.000000000000000E+000  0.000000000000000E+000
  0.000000000000000E+000  0.000000000000000E+000  0.000000000000000E+000
  0.000000000000000E+000  0.000000000000000E+000  0.000000000000000E+000
  0.000000000000000E+000  0.000000000000000E+000  0.000000000000000E+000
  0.000000000000000E+000  0.000000000000000E+000  0.000000000000000E+000
  0.000000000000000E+000  0.000000000000000E+000  0.000000000000000E+000