 Title = "Wing and Wake"
 VARIABLES = "X" "Y" "Z" "GAM" "skew"
 Zone I=   17 J=   20 K=1  T="Blade 01"
 DATAPACKING=BLOCK
 VARLOCATION=([4]=CELLCENTERED,[5]=CELLCENTERED)
  0.221663386408998       0.222861279186357       0.225889063444785     
  0.230484258407305       0.237039463846629       0.245828845709272     
  0.256884637528805       0.269866536854533       0.283942902859458     
  0.298000995037057       0.310945601477370       0.322012574491963     
  0.330866916755982       0.337610062355329       0.342540313050902     
  0.346039300816658       0.348454092245935       0.227471092276269     
  0.228668985053629       0.231696769312056       0.236291964274577     
  0.242847169713900       0.251636551576544       0.262692343396077     
  0.275674242721804       0.289750608726729       0.303808700904329     
  0.316753307344642       0.327820280359234       0.336674622623253     
  0.343417768222601       0.348348018918173       0.351847006683930     
  0.354261798113206       0.235684512185411       0.236882404962770     
  0.239910189221198       0.244505384183717       0.251060589623041     
  0.259849971485685       0.270905763305218       0.283887662630945     
  0.297964028635871       0.312022120813470       0.324966727253783     
  0.336033700268376       0.344888042532395       0.351631188131742     
  0.356561438827315       0.360060426593071       0.362475218022347     
  0.247150742845499       0.248348635622858       0.251376419881286     
  0.255971614843806       0.262526820283129       0.271316202145773     
  0.282371993965306       0.295353893291033       0.309430259295959     
  0.323488351473558       0.336432957913871       0.347499930928463     
  0.356354273192483       0.363097418791830       0.368027669487403     
  0.371526657253159       0.373941448682435       0.262872221512740     
  0.264070114290100       0.267097898548527       0.271693093511047     
  0.278248298950371       0.287037680813014       0.298093472632547     
  0.311075371958274       0.325151737963199       0.339209830140799     
  0.352154436581112       0.363221409595704       0.372075751859723     
  0.378818897459071       0.383749148154644       0.387248135920400     
  0.389662927349676       0.283903842490847       0.285101735268206     
  0.288129519526633       0.292724714489153       0.299279919928477     
  0.308069301791120       0.319125093610654       0.332106992936381     
  0.346183358941305       0.360241451118906       0.373186057559219     
  0.384253030573811       0.393107372837829       0.399850518437178     
  0.404780769132751       0.408279756898507       0.410694548327783     
  0.311131148428228       0.312329041205587       0.315356825464014     
  0.319952020426535       0.326507225865858       0.335296607728501     
  0.346352399548035       0.359334298873763       0.373410664878687     
  0.387468757056287       0.400413363496600       0.411480336511192     
  0.420334678775211       0.427077824374559       0.432008075070131     
  0.435507062835888       0.437921854265164       0.344920594105782     
  0.346118486883142       0.349146271141570       0.353741466104089     
  0.360296671543413       0.369086053406057       0.380141845225590     
  0.393123744551318       0.407200110556243       0.421258202733841     
  0.434202809174155       0.445269782188747       0.454124124452767     
  0.460867270052114       0.465797520747687       0.469296508513443     
  0.471711299942719       0.384721414367958       0.385919307145316     
  0.388947091403744       0.393542286366264       0.400097491805587     
  0.408886873668231       0.419942665487764       0.432924564813492     
  0.447000930818417       0.461059022996017       0.474003629436330     
  0.485070602450922       0.493924944714941       0.500668090314288     
  0.505598341009861       0.509097328775617       0.511512120204893     
  0.428820057453906       0.430017950231265       0.433045734489692     
  0.437640929452212       0.444196134891537       0.452985516754179     
  0.464041308573713       0.477023207899441       0.491099573904364     
  0.505157666081964       0.518102272522278       0.529169245536871     
  0.538023587800889       0.544766733400237       0.549696984095809     
  0.553195971861565       0.555610763290841       0.474487335476558     
  0.475685228253917       0.478713012512344       0.483308207474865     
  0.489863412914189       0.498652794776831       0.509708586596365     
  0.522690485922093       0.536766851927018       0.550824944104617     
  0.563769550544930       0.574836523559523       0.583690865823542     
  0.590434011422889       0.595364262118462       0.598863249884218     
  0.601278041313494       0.518585978562506       0.519783871339866     
  0.522811655598293       0.527406850560813       0.533962056000136     
  0.542751437862780       0.553807229682313       0.566789129008041     
  0.580865495012965       0.594923587190566       0.607868193630878     
  0.618935166645471       0.627789508909490       0.634532654508837     
  0.639462905204410       0.642961892970166       0.645376684399443     
  0.558386798824681       0.559584691602040       0.562612475860469     
  0.567207670822988       0.573762876262311       0.582552258124954     
  0.593608049944487       0.606589949270215       0.620666315275140     
  0.634724407452740       0.647669013893054       0.658735986907646     
  0.667590329171665       0.674333474771013       0.679263725466583     
  0.682762713232341       0.685177504661617       0.592176244502236     
  0.593374137279595       0.596401921538023       0.600997116500542     
  0.607552321939866       0.616341703802509       0.627397495622042     
  0.640379394947771       0.654455760952696       0.668513853130294     
  0.681458459570608       0.692525432585201       0.701379774849220     
  0.708122920448568       0.713053171144139       0.716552158909896     
  0.718966950339172       0.619403550439618       0.620601443216978     
  0.623629227475404       0.628224422437924       0.634779627877247     
  0.643569009739891       0.654624801559425       0.667606700885151     
  0.681683066890077       0.695741159067677       0.708685765507990     
  0.719752738522582       0.728607080786601       0.735350226385949     
  0.740280477081522       0.743779464847277       0.746194256276554     
  0.640435171417724       0.641633064195084       0.644660848453512     
  0.649256043416031       0.655811248855353       0.664600630717998     
  0.675656422537532       0.688638321863258       0.702714687868183     
  0.716772780045783       0.729717386486095       0.740784359500688     
  0.749638701764707       0.756381847364054       0.761312098059627     
  0.764811085825383       0.767225877254660       0.656156650084965     
  0.657354542862324       0.660382327120750       0.664977522083271     
  0.671532727522596       0.680322109385239       0.691377901204771     
  0.704359800530499       0.718436166535423       0.732494258713024     
  0.745438865153337       0.756505838167929       0.765360180431949     
  0.772103326031295       0.777033576726868       0.780532564492625     
  0.782947355921901       0.667622880745052       0.668820773522412     
  0.671848557780839       0.676443752743360       0.682998958182683     
  0.691788340045326       0.702844131864860       0.715826031190588     
  0.729902397195512       0.743960489373112       0.756905095813425     
  0.767972068828018       0.776826411092036       0.783569556691384     
  0.788499807386957       0.791998795152712       0.794413586581989     
  0.675836300654194       0.677034193431554       0.680061977689980     
  0.684657172652500       0.691212378091825       0.700001759954466     
  0.711057551774001       0.724039451099729       0.738115817104653     
  0.752173909282253       0.765118515722565       0.776185488737158     
  0.785039831001179       0.791782976600525       0.796713227296097     
  0.800212215061855       0.802627006491130       0.681644006521465     
  0.682841899298825       0.685869683557251       0.690464878519771     
  0.697020083959095       0.705809465821738       0.716865257641273     
  0.729847156967000       0.743923522971926       0.757981615149525     
  0.770926221589836       0.781993194604430       0.790847536868449     
  0.797590682467797       0.802520933163367       0.806019920929124     
  0.808434712358401     
  0.374115125405196       0.373013639088141       0.370229531032158     
  0.366004157550425       0.359976515316191       0.351894503269663     
  0.341728482033385       0.329791366502738       0.316847867016537     
  0.303921170679282       0.292018346701087       0.281842044132792     
  0.273700299700679       0.267499842738279       0.262966378822758     
  0.259748989737220       0.257528540822126       0.380431144772587     
  0.379329658455532       0.376545550399549       0.372320176917817     
  0.366292534683582       0.358210522637053       0.348044501400777     
  0.336107385870129       0.323163886383928       0.310237190046673     
  0.298334366068478       0.288158063500183       0.280016319068070     
  0.273815862105671       0.269282398190150       0.266065009104612     
  0.263844560189516       0.389363435836257       0.388261949519202     
  0.385477841463219       0.381252467981486       0.375224825747252     
  0.367142813700724       0.356976792464446       0.345039676933799     
  0.332096177447598       0.319169481110343       0.307266657132148     
  0.297090354563854       0.288948610131741       0.282748153169340     
  0.278214689253820       0.274997300168281       0.272776851253187     
  0.401833236576030       0.400731750258976       0.397947642202993     
  0.393722268721260       0.387694626487025       0.379612614440498     
  0.369446593204221       0.357509477673573       0.344565978187372     
  0.331639281850117       0.319736457871922       0.309560155303627     
  0.301418410871514       0.295217953909114       0.290684489993594     
  0.287467100908055       0.285246651992960       0.418930721540945     
  0.417829235223891       0.415045127167908       0.410819753686175     
  0.404792111451941       0.396710099405413       0.386544078169135     
  0.374606962638488       0.361663463152287       0.348736766815031     
  0.336833942836837       0.326657640268542       0.318515895836429     
  0.312315438874029       0.307781974958508       0.304564585872970     
  0.302344136957875       0.441803113576832       0.440701627259777     
  0.437917519203794       0.433692145722062       0.427664503487827     
  0.419582491441299       0.409416470205021       0.397479354674374     
  0.384535855188173       0.371609158850918       0.359706334872724     
  0.349530032304429       0.341388287872316       0.335187830909916     
  0.330654366994395       0.327436977908857       0.325216528993762     
  0.471413461544261       0.470311975227206       0.467527867171223     
  0.463302493689490       0.457274851455256       0.449192839408728     
  0.439026818172451       0.427089702641803       0.414146203155602     
  0.401219506818347       0.389316682840153       0.379140380271857     
  0.370998635839745       0.364798178877345       0.360264714961824     
  0.357047325876286       0.354826876961190       0.508160293803022     
  0.507058807485968       0.504274699429985       0.500049325948251     
  0.494021683714017       0.485939671667490       0.475773650431212     
  0.463836534900565       0.450893035414364       0.437966339077109     
  0.426063515098914       0.415887212530619       0.407745468098506     
  0.401545011136106       0.397011547220586       0.393794158135047     
  0.391573709219952       0.551444640042144       0.550343153725088     
  0.547559045669105       0.543333672187373       0.537306029953138     
  0.529224017906610       0.519057996670333       0.507120881139686     
  0.494177381653485       0.481250685316230       0.469347861338035     
  0.459171558769739       0.451029814337628       0.444829357375227     
  0.440295893459706       0.437078504374168       0.434858055459073     
  0.599402971640189       0.598301485323134       0.595517377267152     
  0.591292003785418       0.585264361551185       0.577182349504655     
  0.567016328268379       0.555079212737731       0.542135713251530     
  0.529209016914275       0.517306192936081       0.507129890367786     
  0.498988145935673       0.492787688973274       0.488254225057752     
  0.485036835972213       0.482816387057118       0.649067231339109     
  0.647965745022055       0.645181636966072       0.640956263484338     
  0.634928621250105       0.626846609203575       0.616680587967299     
  0.604743472436651       0.591799972950451       0.578873276613195     
  0.566970452635001       0.556794150066705       0.548652405634594     
  0.542451948672192       0.537918484756672       0.534701095671133     
  0.532480646756039       0.697025562937155       0.695924076620100     
  0.693139968564118       0.688914595082384       0.682886952848150     
  0.674804940801622       0.664638919565345       0.652701804034697     
  0.639758304548496       0.626831608211241       0.614928784233047     
  0.604752481664752       0.596610737232639       0.590410280270238     
  0.585876816354718       0.582659427269180       0.580438978354085     
  0.740309909176275       0.739208422859221       0.736424314803237     
  0.732198941321505       0.726171299087271       0.718089287040742     
  0.707923265804466       0.695986150273818       0.683042650787617     
  0.670115954450362       0.658213130472167       0.648036827903873     
  0.639895083471760       0.633694626509360       0.629161162593838     
  0.625943773508300       0.623723324593205       0.777056741435038     
  0.775955255117982       0.773171147061999       0.768945773580267     
  0.762918131346033       0.754836119299504       0.744670098063226     
  0.732732982532580       0.719789483046379       0.706862786709123     
  0.694959962730928       0.684783660162634       0.676641915730521     
  0.670441458768122       0.665907994852601       0.662690605767062     
  0.660470156851967       0.806667089402466       0.805565603085412     
  0.802781495029428       0.798556121547696       0.792528479313461     
  0.784446467266934       0.774280446030657       0.762343330500008     
  0.749399831013808       0.736473134676553       0.724570310698358     
  0.714394008130063       0.706252263697951       0.700051806735550     
  0.695518342820030       0.692300953734491       0.690080504819396     
  0.829539481438352       0.828437995121298       0.825653887065316     
  0.821428513583582       0.815400871349347       0.807318859302820     
  0.797152838066543       0.785215722535895       0.772272223049694     
  0.759345526712439       0.747442702734244       0.737266400165948     
  0.729124655733836       0.722924198771437       0.718390734855916     
  0.715173345770377       0.712952896855283       0.846636966403267     
  0.845535480086214       0.842751372030229       0.838525998548497     
  0.832498356314263       0.824416344267735       0.814250323031457     
  0.802313207500809       0.789369708014608       0.776443011677353     
  0.764540187699160       0.754363885130864       0.746222140698752     
  0.740021683736351       0.735488219820831       0.732270830735293     
  0.730050381820197       0.859106767143041       0.858005280825987     
  0.855221172770005       0.850995799288271       0.844968157054036     
  0.836886145007508       0.826720123771230       0.814783008240585     
  0.801839508754383       0.788912812417129       0.777009988438933     
  0.766833685870638       0.758691941438526       0.752491484476125     
  0.747958020560604       0.744740631475065       0.742520182559971     
  0.868039058206712       0.866937571889657       0.864153463833674     
  0.859928090351939       0.853900448117708       0.845818436071177     
  0.835652414834901       0.823715299304254       0.810771799818052     
  0.797845103480797       0.785942279502603       0.775765976934307     
  0.767624232502197       0.761423775539795       0.756890311624273     
  0.753672922538736       0.751452473623640       0.874355077574102     
  0.873253591257047       0.870469483201064       0.866244109719331     
  0.860216467485097       0.852134455438570       0.841968434202292     
  0.830031318671645       0.817087819185445       0.804161122848188     
  0.792258298869993       0.782081996301700       0.773940251869586     
  0.767739794907187       0.763206330991665       0.759988941906127     
  0.757768492991032     
 -0.861900000000000      -0.861198250160462      -0.859274705714126     
 -0.856469691008942      -0.853210543366638      -0.849381928232883     
 -0.844860973981103      -0.839764655353441      -0.834280691189070     
 -0.828815401108890      -0.823788006353202      -0.819496643118425     
 -0.816057233005663      -0.813443018604849      -0.811531673430508     
 -0.810174731185110      -0.809239441166694      -0.861900000000000     
 -0.861198250160462      -0.859274705714126      -0.856469691008942     
 -0.853210543366638      -0.849381928232883      -0.844860973981103     
 -0.839764655353441      -0.834280691189070      -0.828815401108890     
 -0.823788006353202      -0.819496643118425      -0.816057233005663     
 -0.813443018604849      -0.811531673430508      -0.810174731185110     
 -0.809239441166694      -0.861900000000000      -0.861198250160462     
 -0.859274705714126      -0.856469691008942      -0.853210543366638     
 -0.849381928232883      -0.844860973981103      -0.839764655353441     
 -0.834280691189070      -0.828815401108890      -0.823788006353202     
 -0.819496643118425      -0.816057233005663      -0.813443018604849     
 -0.811531673430508      -0.810174731185110      -0.809239441166694     
 -0.861900000000000      -0.861198250160462      -0.859274705714126     
 -0.856469691008942      -0.853210543366638      -0.849381928232883     
 -0.844860973981103      -0.839764655353441      -0.834280691189070     
 -0.828815401108890      -0.823788006353202      -0.819496643118425     
 -0.816057233005663      -0.813443018604849      -0.811531673430508     
 -0.810174731185110      -0.809239441166694      -0.861900000000000     
 -0.861198250160462      -0.859274705714126      -0.856469691008942     
 -0.853210543366638      -0.849381928232883      -0.844860973981103     
 -0.839764655353441      -0.834280691189070      -0.828815401108890     
 -0.823788006353202      -0.819496643118425      -0.816057233005663     
 -0.813443018604849      -0.811531673430508      -0.810174731185110     
 -0.809239441166694      -0.861900000000000      -0.861198250160462     
 -0.859274705714126      -0.856469691008942      -0.853210543366638     
 -0.849381928232883      -0.844860973981103      -0.839764655353441     
 -0.834280691189070      -0.828815401108890      -0.823788006353202     
 -0.819496643118425      -0.816057233005663      -0.813443018604849     
 -0.811531673430508      -0.810174731185110      -0.809239441166694     
 -0.861900000000000      -0.861198250160462      -0.859274705714126     
 -0.856469691008942      -0.853210543366638      -0.849381928232883     
 -0.844860973981103      -0.839764655353441      -0.834280691189070     
 -0.828815401108890      -0.823788006353202      -0.819496643118425     
 -0.816057233005663      -0.813443018604849      -0.811531673430508     
 -0.810174731185110      -0.809239441166694      -0.861900000000000     
 -0.861198250160462      -0.859274705714126      -0.856469691008942     
 -0.853210543366638      -0.849381928232883      -0.844860973981103     
 -0.839764655353441      -0.834280691189070      -0.828815401108890     
 -0.823788006353202      -0.819496643118425      -0.816057233005663     
 -0.813443018604849      -0.811531673430508      -0.810174731185110     
 -0.809239441166694      -0.861900000000000      -0.861198250160462     
 -0.859274705714126      -0.856469691008942      -0.853210543366638     
 -0.849381928232883      -0.844860973981103      -0.839764655353441     
 -0.834280691189070      -0.828815401108890      -0.823788006353202     
 -0.819496643118425      -0.816057233005663      -0.813443018604849     
 -0.811531673430508      -0.810174731185110      -0.809239441166694     
 -0.861900000000000      -0.861198250160462      -0.859274705714126     
 -0.856469691008942      -0.853210543366638      -0.849381928232883     
 -0.844860973981103      -0.839764655353441      -0.834280691189070     
 -0.828815401108890      -0.823788006353202      -0.819496643118425     
 -0.816057233005663      -0.813443018604849      -0.811531673430508     
 -0.810174731185110      -0.809239441166694      -0.861900000000000     
 -0.861198250160462      -0.859274705714126      -0.856469691008942     
 -0.853210543366638      -0.849381928232883      -0.844860973981103     
 -0.839764655353441      -0.834280691189070      -0.828815401108890     
 -0.823788006353202      -0.819496643118425      -0.816057233005663     
 -0.813443018604849      -0.811531673430508      -0.810174731185110     
 -0.809239441166694      -0.861900000000000      -0.861198250160462     
 -0.859274705714126      -0.856469691008942      -0.853210543366638     
 -0.849381928232883      -0.844860973981103      -0.839764655353441     
 -0.834280691189070      -0.828815401108890      -0.823788006353202     
 -0.819496643118425      -0.816057233005663      -0.813443018604849     
 -0.811531673430508      -0.810174731185110      -0.809239441166694     
 -0.861900000000000      -0.861198250160462      -0.859274705714126     
 -0.856469691008942      -0.853210543366638      -0.849381928232883     
 -0.844860973981103      -0.839764655353441      -0.834280691189070     
 -0.828815401108890      -0.823788006353202      -0.819496643118425     
 -0.816057233005663      -0.813443018604849      -0.811531673430508     
 -0.810174731185110      -0.809239441166694      -0.861900000000000     
 -0.861198250160462      -0.859274705714126      -0.856469691008942     
 -0.853210543366638      -0.849381928232883      -0.844860973981103     
 -0.839764655353441      -0.834280691189070      -0.828815401108890     
 -0.823788006353202      -0.819496643118425      -0.816057233005663     
 -0.813443018604849      -0.811531673430508      -0.810174731185110     
 -0.809239441166694      -0.861900000000000      -0.861198250160462     
 -0.859274705714126      -0.856469691008942      -0.853210543366638     
 -0.849381928232883      -0.844860973981103      -0.839764655353441     
 -0.834280691189070      -0.828815401108890      -0.823788006353202     
 -0.819496643118425      -0.816057233005663      -0.813443018604849     
 -0.811531673430508      -0.810174731185110      -0.809239441166694     
 -0.861900000000000      -0.861198250160462      -0.859274705714126     
 -0.856469691008942      -0.853210543366638      -0.849381928232883     
 -0.844860973981103      -0.839764655353441      -0.834280691189070     
 -0.828815401108890      -0.823788006353202      -0.819496643118425     
 -0.816057233005663      -0.813443018604849      -0.811531673430508     
 -0.810174731185110      -0.809239441166694      -0.861900000000000     
 -0.861198250160462      -0.859274705714126      -0.856469691008942     
 -0.853210543366638      -0.849381928232883      -0.844860973981103     
 -0.839764655353441      -0.834280691189070      -0.828815401108890     
 -0.823788006353202      -0.819496643118425      -0.816057233005663     
 -0.813443018604849      -0.811531673430508      -0.810174731185110     
 -0.809239441166694      -0.861900000000000      -0.861198250160462     
 -0.859274705714126      -0.856469691008942      -0.853210543366638     
 -0.849381928232883      -0.844860973981103      -0.839764655353441     
 -0.834280691189070      -0.828815401108890      -0.823788006353202     
 -0.819496643118425      -0.816057233005663      -0.813443018604849     
 -0.811531673430508      -0.810174731185110      -0.809239441166694     
 -0.861900000000000      -0.861198250160462      -0.859274705714126     
 -0.856469691008942      -0.853210543366638      -0.849381928232883     
 -0.844860973981103      -0.839764655353441      -0.834280691189070     
 -0.828815401108890      -0.823788006353202      -0.819496643118425     
 -0.816057233005663      -0.813443018604849      -0.811531673430508     
 -0.810174731185110      -0.809239441166694      -0.861900000000000     
 -0.861198250160462      -0.859274705714126      -0.856469691008942     
 -0.853210543366638      -0.849381928232883      -0.844860973981103     
 -0.839764655353441      -0.834280691189070      -0.828815401108890     
 -0.823788006353202      -0.819496643118425      -0.816057233005663     
 -0.813443018604849      -0.811531673430508      -0.810174731185110     
 -0.809239441166694     
 -0.414200294551136      -0.815467085643430       -1.09779089718092     
  -1.27537454432233       -1.42792473958102       -1.57885487517882     
  -1.72120463486843       -1.85453363397341       -1.96554382410762     
  -2.04927736798563       -2.10615766867726       -2.14093553335197     
  -2.15773215055579       -2.16400274226064       -2.16600036843557     
  -2.16800684464761      -0.559510607820020       -1.13611041065091     
  -1.58986247959943       -1.91526326977411       -2.19189166753276     
  -2.45212049929144       -2.69226377337087       -2.91300185451477     
  -3.09747766501723       -3.23968488995849       -3.34214932619532     
  -3.41390765460809       -3.46348669479862       -3.50063217195551     
  -3.52823082322552       -3.54449175927508      -0.674142229825000     
  -1.38136651682517       -1.96599173566547       -2.42263177887082     
  -2.82594185926701       -3.20244175883013       -3.54626596110577     
  -3.85794630225105       -4.11946689495286       -4.32526787656430     
  -4.48028625732363       -4.59591170779911       -4.68029100852626     
  -4.74026822524036       -4.77819701307666       -4.79672709841002     
 -0.782351090893821       -1.60946572929053       -2.31037039266439     
  -2.88532124737863       -3.41186915568167       -3.91082343277612     
  -4.36874802384810       -4.78189259498225       -5.12975884062594     
  -5.40639790673533       -5.61703231911461       -5.77236424285358     
  -5.87998146833903       -5.94950423547478       -5.98915210340528     
  -6.00695844735802      -0.892299046558333       -1.83940263232175     
  -2.65321725609438       -3.34002925834242       -3.98442645570076     
  -4.60550597457196       -5.18234325697196       -5.70384496242766     
  -6.14324242141679       -6.49111436334355       -6.75121951707915     
  -6.93528614900037       -7.05544386733061       -7.12814528714397     
  -7.16734053977114       -7.18423818105873       -1.00658223736085     
  -2.07724960068520       -3.00450566558467       -3.79979973606132     
  -4.55647750971086       -5.29410186057934       -5.98568154613710     
  -6.61229761601992       -7.13837994290011       -7.54938673833376     
  -7.84882638276552       -8.05293929448697       -8.18075906826817     
  -8.25518397628264       -8.29409121790078       -8.31049846201554     
  -1.12350723885694       -2.31976278072930       -3.35982225699009     
  -4.25895124150906       -5.12011901006953       -5.96407705445092     
  -6.75857795825032       -7.47798537016872       -8.07842241021966     
  -8.54137834902028       -8.87191002723060       -9.09179926356764     
  -9.22617253663995       -9.30276674320779       -9.34212348644700     
  -9.35851329510163       -1.23787257785477       -2.55633144035428     
  -3.70381463637982       -4.69778657249093       -5.65152775633862     
  -6.58746560062869       -7.46887970363651       -8.26534017351399     
  -8.92659893839335       -9.43188878870659       -9.78836929608968     
  -10.0224898995536       -10.1637752789742       -10.2434586857186     
  -10.2840421824535       -10.3008334524038       -1.34271910617978     
  -2.77271144854309       -4.01595856965371       -5.09039130544939     
  -6.12017618694033       -7.13013496059089       -8.08019326981380     
  -8.93721541109608       -9.64638767767806       -10.1856934179622     
  -10.5640257676760       -10.8111625707812       -10.9595080148249     
  -11.0428203220437       -11.0850951494031       -11.1025386957747     
  -1.43032887497648       -2.95306085258721       -4.27346575209037     
  -5.40814785168307       -6.49229407053302       -7.55389153085190     
  -8.55086329263464       -9.44938929694935       -10.1916640483261     
  -10.7550133126776       -11.1494384773254       -11.4067620070448     
  -11.5609724353956       -11.6475001612317       -11.6913591060391     
  -11.7094431989707       -1.49277944881493       -3.08105030267905     
  -4.45278619515135       -5.62142510236948       -6.73259454330439     
  -7.81810688566173       -8.83548073035672       -9.75235277841898     
  -10.5096773982612       -11.0846746498402       -11.4876810046533     
  -11.7511330257207       -11.9092214638643       -11.9980816037226     
  -12.0431706075526       -12.0617815056994       -1.52357295257941     
  -3.14319143893361       -4.53433875448319       -5.70541721825504     
  -6.81111511985928       -7.88758158713312       -8.89391990034662     
  -9.80185477110091       -10.5534937116467       -11.1266959746385     
  -11.5310209187964       -11.7974576299535       -11.9584921517784     
  -12.0496695665101       -12.0962060243529       -12.1155102319755     
  -1.51874339622330       -3.13108602553341       -4.50561458989532     
  -5.64372161897422       -6.70697570063318       -7.73610947574150     
  -8.69413577668531       -9.56020984424240       -10.2810687501375     
  -10.8366908560743       -11.2347279820503       -11.5019548454691     