 Title = "Wing and Wake"
 VARIABLES = "X" "Y" "Z" "GAM" "skew"
 Zone I=   11 J=   26 K=1  T="Blade"
 DATAPACKING=BLOCK
 VARLOCATION=([4]=CELLCENTERED,[5]=CELLCENTERED)
 -0.143431900597393      -0.124915229139694      -0.106398557681993     
 -8.788188622429297E-002 -6.936521476659270E-002 -5.084854330889233E-002
 -3.233187185119218E-002 -1.381520039349195E-002  4.701471064208154E-003
  2.321814252190847E-002  4.173481397960869E-002 -0.142609369328260     
 -0.124092697870560      -0.105576026412860      -8.705935495515937E-002
 -6.854268349745907E-002 -5.002601203975891E-002 -3.150934058205861E-002
 -1.299266912435850E-002  5.524002333341866E-003  2.404067379104191E-002
  4.255734524874238E-002 -0.140154747330330      -0.121638075872630     
 -0.103121404414930      -8.460473295722909E-002 -6.608806149952891E-002
 -4.757139004182869E-002 -2.905471858412841E-002 -1.053804712642828E-002
  7.978624331272072E-003  2.649529578897213E-002  4.501196724667225E-002
 -0.136106745458830      -0.117590074001130      -9.907340254343011E-002
 -8.055673108572982E-002 -6.204005962802983E-002 -4.352338817032953E-002
 -2.500671671262890E-002 -6.490045254929010E-003  1.202662620277119E-002
  3.054329766047149E-002  4.905996911817143E-002 -0.130529203121435     
 -0.112012531663735      -9.349586020603418E-002 -7.497918874833386E-002
 -5.646251729063381E-002 -3.794584583293346E-002 -1.942917437523349E-002
 -9.125029175332339E-004  1.760416854016696E-002  3.612083999786724E-002
  5.463751145556738E-002 -0.123510081492665      -0.104993410034965     
 -8.647673857726504E-002 -6.796006711956495E-002 -4.944339566186456E-002
 -3.092672420416450E-002 -1.241005274646433E-002  6.106618711235876E-003
  2.462329016893617E-002  4.313996162663646E-002  6.165663308433684E-002
 -0.115160076313628      -9.664340485592844E-002 -7.812673339822813E-002
 -5.961006194052799E-002 -4.109339048282760E-002 -2.257671902512750E-002
 -4.060047567427508E-003  1.445662389027311E-002  3.297329534797354E-002
  5.148996680567326E-002  7.000663826337324E-002 -0.105610872154049     
 -8.709420069634853E-002 -6.857752923864839E-002 -5.006085778094806E-002
 -3.154418632324791E-002 -1.302751486554735E-002  5.489156592152648E-003
  2.400582804985291E-002  4.252249950755336E-002  6.103917096525325E-002
  7.955584242295369E-002 -9.501306566793973E-002 -7.649639421023975E-002
 -5.797972275253985E-002 -3.946305129483939E-002 -2.094637983713962E-002
 -2.429708379439259E-003  1.608696307826122E-002  3.460363453596112E-002
  5.312030599366142E-002  7.163697745136177E-002  9.015364890906152E-002
 -8.353379059441206E-002 -6.501711913671190E-002 -4.650044767901169E-002
 -2.798377622131178E-002 -9.467104763611352E-003  9.049566694088832E-003
  2.756623815178900E-002  4.608290960948894E-002  6.459958106718952E-002
  8.311625252488988E-002  0.101632923982590      -7.135408195876065E-002
 -5.283741050106058E-002 -3.432073904336019E-002 -1.580406758565965E-002
  2.712603872040374E-003  2.122927532974050E-002  3.974594678744083E-002
  5.826261824514133E-002  7.677928970284116E-002  9.529596116054166E-002
  0.113812632618241      -5.866602104197525E-002 -4.014934958427452E-002
 -2.163267812657371E-002 -3.116006668874243E-003  1.540066478882639E-002
  3.391733624652679E-002  5.243400770422656E-002  7.095067916192699E-002
  8.946735061962689E-002  0.107984022077327       0.126500693535027     
 -4.566970614419236E-002 -2.715303468649252E-002 -8.636363228792417E-003
  9.880308228907900E-003  2.839697968660817E-002  4.691365114430785E-002
  6.543032260200859E-002  8.394699405970886E-002  0.102463665517410     
  0.120980336975109       0.139497008432810      -3.257009691497505E-002
 -1.405342545727390E-002  4.463246000426369E-003  2.297991745812671E-002
  4.149658891582615E-002  6.001326037352663E-002  7.852993183122718E-002
  9.704660328892731E-002  0.115563274746627       0.134079946204328     
  0.152596617662028      -1.957378201719271E-002 -1.057110559492534E-003
  1.745956089820823E-002  3.597623235590817E-002  5.449290381360768E-002
  7.300957527130841E-002  9.152624672900865E-002  0.110042918186709     
  0.128559589644410       0.147076261102109       0.165592932559810     
 -6.885721100405987E-003  1.163095035729450E-002  3.014762181499427E-002
  4.866429327269451E-002  6.718096473039455E-002  8.569763618809409E-002
  0.104214307645794       0.122730979103495       0.141247650561195     
  0.159764322018896       0.178280993476596       5.293987535245450E-003
  2.381065899294499E-002  4.232733045064556E-002  6.084400190834594E-002
  7.936067336604610E-002  9.787734482374529E-002  0.116394016281447     
  0.134910687739147       0.153427359196846       0.171944030654547     
  0.190460702112247       1.677326260877294E-002  3.528993406647304E-002
  5.380660552417336E-002  7.232327698187449E-002  9.083994843957378E-002
  0.109356619897274       0.127873291354974       0.146389962812675     
  0.164906634270375       0.183423305728075       0.201939977185775     
  2.737106909488084E-002  4.588774055258183E-002  6.440441201028227E-002
  8.292108346798242E-002  0.101437754925682       0.119954426383382     
  0.138471097841083       0.156987769298783       0.175504440756484     
  0.194021112214183       0.212537783671883       3.692027325446119E-002
  5.543694471216091E-002  7.395361616986230E-002  9.247028762756165E-002
  0.110986959085262       0.129503630542963       0.148020302000662     
  0.166536973458363       0.185053644916062       0.203570316373764     
  0.222086987831463       4.527027843349809E-002  6.378694989119914E-002
  8.230362134889824E-002  0.100820292806598       0.119336964264298     
  0.137853635721999       0.156370307179700       0.174886978637400     
  0.193403650095100       0.211920321552801       0.230436993010500     
  5.228940006226707E-002  7.080607151996784E-002  8.932274297766811E-002
  0.107839414435368       0.126356085893068       0.144872757350769     
  0.163389428808468       0.181906100266169       0.200422771723869     
  0.218939443181569       0.237456114639271       5.786694239966296E-002
  7.638361385736406E-002  9.490028531506399E-002  0.113416956772765     
  0.131933628230465       0.150450299688163       0.168966971145864     
  0.187483642603565       0.206000314061264       0.224516985518965     
  0.243033656976666       6.191494427116186E-002  8.043161572886356E-002
  9.894828718656244E-002  0.117464958644264       0.135981630101963     
  0.154498301559666       0.173014973017363       0.191531644475064     
  0.210048315932764       0.228564987390465       0.247081658848165     
  6.436956626909331E-002  8.288623772679324E-002  0.101402909184493     
  0.119919580642194       0.138436252099894       0.156952923557593     
  0.175469595015294       0.193986266472994       0.212502937930694     
  0.231019609388394       0.249536280846095       6.519209753822740E-002
  8.370876899592644E-002  0.102225440453627       0.120742111911327     
  0.139258783369026       0.157775454826727       0.176292126284427     
  0.194808797742129       0.213325469199829       0.231842140657528     
  0.250358812115229     
  0.227478883024347       0.223322114336851       0.219165345649356     
  0.215008576961860       0.210851808274365       0.206695039586868     
  0.202538270899373       0.198381502211878       0.194224733524382     
  0.190067964836886       0.185911196149391       0.231142916897593     
  0.226986148210097       0.222829379522602       0.218672610835106     
  0.214515842147611       0.210359073460115       0.206202304772619     
  0.202045536085123       0.197888767397628       0.193731998710132     
  0.189575230022637       0.242077234514362       0.237920465826866     
  0.233763697139371       0.229606928451875       0.225450159764379     
  0.221293391076883       0.217136622389388       0.212979853701892     
  0.208823085014397       0.204666316326901       0.200509547639405     
  0.260109395153993       0.255952626466497       0.251795857779002     
  0.247639089091506       0.243482320404010       0.239325551716514     
  0.235168783029018       0.231012014341523       0.226855245654027     
  0.222698476966532       0.218541708279036       0.284955020871308     
  0.280798252183812       0.276641483496316       0.272484714808820     
  0.268327946121325       0.264171177433829       0.260014408746334     
  0.255857640058838       0.251700871371342       0.247544102683847     
  0.243387333996351       0.316222281306687       0.312065512619191     
  0.307908743931695       0.303751975244200       0.299595206556705     
  0.295438437869209       0.291281669181713       0.287124900494218     
  0.282968131806722       0.278811363119226       0.274654594431731     
  0.353418073084909       0.349261304397413       0.345104535709918     
  0.340947767022423       0.336790998334927       0.332634229647431     
  0.328477460959935       0.324320692272440       0.320163923584944     
  0.316007154897449       0.311850386209952       0.395955796349943     
  0.391799027662447       0.387642258974952       0.383485490287456     
  0.379328721599960       0.375171952912465       0.371015184224969     
  0.366858415537473       0.362701646849978       0.358544878162482     
  0.354388109474987       0.443164605795093       0.439007837107599     
  0.434851068420102       0.430694299732607       0.426537531045112     
  0.422380762357616       0.418223993670120       0.414067224982624     
  0.409910456295129       0.405753687607633       0.401596918920138     
  0.494299990294237       0.490143221606741       0.485986452919245     
  0.481829684231749       0.477672915544254       0.473516146856759     
  0.469359378169263       0.465202609481767       0.461045840794272     
  0.456889072106777       0.452732303419280       0.548555514287021     
  0.544398745599526       0.540241976912031       0.536085208224535     
  0.531928439537039       0.527771670849543       0.523614902162048     
  0.519458133474551       0.515301364787057       0.511144596099561     
  0.506987827412065       0.605075535749403       0.600918767061908     
  0.596761998374411       0.592605229686916       0.588448460999421     
  0.584291692311926       0.580134923624430       0.575978154936934     
  0.571821386249438       0.567664617561943       0.563507848874447     
  0.662968700179495       0.658811931492002       0.654655162804505     
  0.650498394117009       0.646341625429513       0.642184856742018     
  0.638028088054523       0.633871319367027       0.629714550679531     
  0.625557781992035       0.621401013304540       0.721321997790537     
  0.717165229103042       0.713008460415547       0.708851691728050     
  0.704694923040554       0.700538154353058       0.696381385665563     
  0.692224616978068       0.688067848290572       0.683911079603077     
  0.679754310915581       0.779215162220630       0.775058393533134     
  0.770901624845638       0.766744856158144       0.762588087470648     
  0.758431318783152       0.754274550095656       0.750117781408161     
  0.745961012720665       0.741804244033169       0.737647475345675     
  0.835735183683011       0.831578414995516       0.827421646308022     
  0.823264877620525       0.819108108933029       0.814951340245532     
  0.810794571558037       0.806637802870544       0.802481034183048     
  0.798324265495550       0.794167496808056       0.889990707675797     
  0.885833938988301       0.881677170300805       0.877520401613309     
  0.873363632925815       0.869206864238319       0.865050095550823     
  0.860893326863327       0.856736558175832       0.852579789488335     
  0.848423020800841       0.941126092174939       0.936969323487444     
  0.932812554799949       0.928655786112453       0.924499017424956     
  0.920342248737461       0.916185480049965       0.912028711362469     
  0.907871942674974       0.903715173987479       0.899558405299983     
  0.988334901620090       0.984178132932594       0.980021364245099     
  0.975864595557604       0.971707826870108       0.967551058182612     
  0.963394289495117       0.959237520807621       0.955080752120126     
  0.950923983432630       0.946767214745134        1.03087262488512     
   1.02671585619763        1.02255908751013        1.01840231882264     
   1.01424555013514        1.01008878144765        1.00593201276015     
   1.00177524407266       0.997618475385158       0.993461706697663     
  0.989304938010167        1.06806841666335        1.06391164797585     
   1.05975487928836        1.05559811060086        1.05144134191336     
   1.04728457322587        1.04312780453837        1.03897103585088     
   1.03481426716338        1.03065749847589        1.02650072978839     
   1.09933567709872        1.09517890841123        1.09102213972373     
   1.08686537103624        1.08270860234874        1.07855183366125     
   1.07439506497375        1.07023829628626        1.06608152759876     
   1.06192475891126        1.05776799022377        1.12418130281604     
   1.12002453412855        1.11586776544105        1.11171099675355     
   1.10755422806606        1.10339745937856        1.09924069069107     
   1.09508392200357        1.09092715331607        1.08677038462858     
   1.08261361594108        1.14221346345567        1.13805669476818     
   1.13389992608068        1.12974315739319        1.12558638870569     
   1.12142962001820        1.11727285133070        1.11311608264320     
   1.10895931395571        1.10480254526821        1.10064577658071     
   1.15314778107244        1.14899101238495        1.14483424369745     
   1.14067747500995        1.13652070632246        1.13236393763496     
   1.12820716894746        1.12405040025997        1.11989363157247     
   1.11573686288498        1.11158009419748        1.15681181494569     
   1.15265504625819        1.14849827757069        1.14434150888320     
   1.14018474019570        1.13602797150821        1.13187120282071     
   1.12771443413322        1.12355766544572        1.11940089675822     
   1.11524412807073     
  1.660316899342888E-002  1.494285209408599E-002  1.328253519474311E-002
  1.162221829540022E-002  9.961901396057328E-003  8.301584496714441E-003
  6.641267597371552E-003  4.980950698028665E-003  3.320633798685776E-003
  1.660316899342887E-003  0.000000000000000E+000  1.660316899342888E-002
  1.494285209408599E-002  1.328253519474311E-002  1.162221829540022E-002
  9.961901396057328E-003  8.301584496714441E-003  6.641267597371552E-003
  4.980950698028665E-003  3.320633798685776E-003  1.660316899342887E-003
  0.000000000000000E+000  1.660316899342888E-002  1.494285209408599E-002
  1.328253519474311E-002  1.162221829540022E-002  9.961901396057328E-003
  8.301584496714441E-003  6.641267597371552E-003  4.980950698028665E-003
  3.320633798685776E-003  1.660316899342887E-003  0.000000000000000E+000
  1.660316899342888E-002  1.494285209408599E-002  1.328253519474311E-002
  1.162221829540022E-002  9.961901396057328E-003  8.301584496714441E-003
  6.641267597371552E-003  4.980950698028665E-003  3.320633798685776E-003
  1.660316899342887E-003  0.000000000000000E+000  1.660316899342888E-002
  1.494285209408599E-002  1.328253519474311E-002  1.162221829540022E-002
  9.961901396057328E-003  8.301584496714441E-003  6.641267597371552E-003
  4.980950698028665E-003  3.320633798685776E-003  1.660316899342887E-003
  0.000000000000000E+000  1.660316899342888E-002  1.494285209408599E-002
  1.328253519474311E-002  1.162221829540022E-002  9.961901396057328E-003
  8.301584496714441E-003  6.641267597371552E-003  4.980950698028665E-003
  3.320633798685776E-003  1.660316899342887E-003  0.000000000000000E+000
  1.660316899342888E-002  1.494285209408599E-002  1.328253519474311E-002
  1.162221829540022E-002  9.961901396057328E-003  8.301584496714441E-003
  6.641267597371552E-003  4.980950698028665E-003  3.320633798685776E-003
  1.660316899342887E-003  0.000000000000000E+000  1.660316899342888E-002
  1.494285209408599E-002  1.328253519474311E-002  1.162221829540022E-002
  9.961901396057328E-003  8.301584496714441E-003  6.641267597371552E-003
  4.980950698028665E-003  3.320633798685776E-003  1.660316899342887E-003
  0.000000000000000E+000  1.660316899342888E-002  1.494285209408599E-002
  1.328253519474311E-002  1.162221829540022E-002  9.961901396057328E-003
  8.301584496714441E-003  6.641267597371552E-003  4.980950698028665E-003
  3.320633798685776E-003  1.660316899342887E-003  0.000000000000000E+000
  1.660316899342888E-002  1.494285209408599E-002  1.328253519474311E-002
  1.162221829540022E-002  9.961901396057328E-003  8.301584496714441E-003
  6.641267597371552E-003  4.980950698028665E-003  3.320633798685776E-003
  1.660316899342887E-003  0.000000000000000E+000  1.660316899342888E-002
  1.494285209408599E-002  1.328253519474311E-002  1.162221829540022E-002
  9.961901396057328E-003  8.301584496714441E-003  6.641267597371552E-003
  4.980950698028665E-003  3.320633798685776E-003  1.660316899342887E-003
  0.000000000000000E+000  1.660316899342888E-002  1.494285209408599E-002
  1.328253519474311E-002  1.162221829540022E-002  9.961901396057328E-003
  8.301584496714441E-003  6.641267597371552E-003  4.980950698028665E-003
  3.320633798685776E-003  1.660316899342887E-003  0.000000000000000E+000
  1.660316899342888E-002  1.494285209408599E-002  1.328253519474311E-002
  1.162221829540022E-002  9.961901396057328E-003  8.301584496714441E-003
  6.641267597371552E-003  4.980950698028665E-003  3.320633798685776E-003
  1.660316899342887E-003  0.000000000000000E+000  1.660316899342888E-002
  1.494285209408599E-002  1.328253519474311E-002  1.162221829540022E-002
  9.961901396057328E-003  8.301584496714441E-003  6.641267597371552E-003
  4.980950698028665E-003  3.320633798685776E-003  1.660316899342887E-003
  0.000000000000000E+000  1.660316899342888E-002  1.494285209408599E-002
  1.328253519474311E-002  1.162221829540022E-002  9.961901396057328E-003
  8.301584496714441E-003  6.641267597371552E-003  4.980950698028665E-003
  3.320633798685776E-003  1.660316899342887E-003  0.000000000000000E+000
  1.660316899342888E-002  1.494285209408599E-002  1.328253519474311E-002
  1.162221829540022E-002  9.961901396057328E-003  8.301584496714441E-003
  6.641267597371552E-003  4.980950698028665E-003  3.320633798685776E-003
  1.660316899342887E-003  0.000000000000000E+000  1.660316899342888E-002
  1.494285209408599E-002  1.328253519474311E-002  1.162221829540022E-002
  9.961901396057328E-003  8.301584496714441E-003  6.641267597371552E-003
  4.980950698028665E-003  3.320633798685776E-003  1.660316899342887E-003
  0.000000000000000E+000  1.660316899342888E-002  1.494285209408599E-002
  1.328253519474311E-002  1.162221829540022E-002  9.961901396057328E-003
  8.301584496714441E-003  6.641267597371552E-003  4.980950698028665E-003
  3.320633798685776E-003  1.660316899342887E-003  0.000000000000000E+000
  1.660316899342888E-002  1.494285209408599E-002  1.328253519474311E-002
  1.162221829540022E-002  9.961901396057328E-003  8.301584496714441E-003
  6.641267597371552E-003  4.980950698028665E-003  3.320633798685776E-003
  1.660316899342887E-003  0.000000000000000E+000  1.660316899342888E-002
  1.494285209408599E-002  1.328253519474311E-002  1.162221829540022E-002
  9.961901396057328E-003  8.301584496714441E-003  6.641267597371552E-003
  4.980950698028665E-003  3.320633798685776E-003  1.660316899342887E-003
  0.000000000000000E+000  1.660316899342888E-002  1.494285209408599E-002
  1.328253519474311E-002  1.162221829540022E-002  9.961901396057328E-003
  8.301584496714441E-003  6.641267597371552E-003  4.980950698028665E-003
  3.320633798685776E-003  1.660316899342887E-003  0.000000000000000E+000
  1.660316899342888E-002  1.494285209408599E-002  1.328253519474311E-002
  1.162221829540022E-002  9.961901396057328E-003  8.301584496714441E-003
  6.641267597371552E-003  4.980950698028665E-003  3.320633798685776E-003
  1.660316899342887E-003  0.000000000000000E+000  1.660316899342888E-002
  1.494285209408599E-002  1.328253519474311E-002  1.162221829540022E-002
  9.961901396057328E-003  8.301584496714441E-003  6.641267597371552E-003
  4.980950698028665E-003  3.320633798685776E-003  1.660316899342887E-003
  0.000000000000000E+000  1.660316899342888E-002  1.494285209408599E-002
  1.328253519474311E-002  1.162221829540022E-002  9.961901396057328E-003
  8.301584496714441E-003  6.641267597371552E-003  4.980950698028665E-003
  3.320633798685776E-003  1.660316899342887E-003  0.000000000000000E+000
  1.660316899342888E-002  1.494285209408599E-002  1.328253519474311E-002
  1.162221829540022E-002  9.961901396057328E-003  8.301584496714441E-003
  6.641267597371552E-003  4.980950698028665E-003  3.320633798685776E-003
  1.660316899342887E-003  0.000000000000000E+000  1.660316899342888E-002
  1.494285209408599E-002  1.328253519474311E-002  1.162221829540022E-002
  9.961901396057328E-003  8.301584496714441E-003  6.641267597371552E-003
  4.980950698028665E-003  3.320633798685776E-003  1.660316899342887E-003
  0.000000000000000E+000
  1.147306949032102E-002  2.117522376188146E-002  3.066448406912879E-002
  4.000357048345077E-002  4.919446467909406E-002  5.801831025284875E-002
  6.598099119375672E-002  7.265030621960566E-002  7.795777397627579E-002
  8.116308967840814E-002  2.044665007155484E-002  3.703386959620897E-002
  5.302023674358927E-002  6.850884308598219E-002  8.354002590718829E-002
  9.782754952266480E-002  0.110728359587884       0.121687504794716     
  0.130465778429388       0.136315158701992       3.192859387817642E-002
  5.557694577901941E-002  7.765004841348691E-002  9.845002648754000E-002
  0.118036916700752       0.136149888713504       0.152390231714254     
  0.166358569863880       0.177597436757256       0.185339301420793     
  4.614198764615638E-002  7.711224030010226E-002  0.104614122934317     
  0.129883426052785       0.153058777501242       0.173927563807637     
  0.192308179016521       0.208007286457448       0.220652297070743     
  0.229385587341822       6.314078124223907E-002  0.101960652057087     
  0.134969283331602       0.164461787849333       0.190960652355361     
  0.214524010075263       0.235083658235594       0.252474379511871     
  0.266381169842342       0.275943031332713       8.286243909921563E-002
  0.130415113162030       0.169269464943359       0.203130399991596     
  0.233052240286490       0.259386539268895       0.282232561774240     
  0.301478899335787       0.316755208031063       0.327140928573510     
  0.105674988694125       0.163230668760982       0.208666351585094     
  0.247371669074861       0.281083269818131       0.310478229393788     
  0.335781016842461       0.356958610361124       0.373707286237426     
  0.385046580885596       0.132502100038156       0.201880468290320     
  0.255123944314299       0.299561061686577       0.337690121593059     
  0.370570702835200       0.398639340404573       0.421979390338938     
  0.440329776350349       0.452649745501714       0.164242252961929     
  0.247687890089278       0.310264349070994       0.361566447933135     
  0.404968888636626       0.441972750500548       0.473265538179757     
  0.499072308520725       0.519190781540170       0.532552336217471     
  0.201121281160101       0.301041165264959       0.374620773527574     
  0.434047645319665       0.483691968833724       0.525553240424907     
  0.560617509511433       0.589297527725016       0.611479207055943     
  0.626059099999950       0.242863018721320       0.361569527281161     
  0.447771322608814       0.516551350736190       0.573395454516167     
  0.620879571073969       0.660329700974005       0.692361175161666     
  0.716958960197842       0.732984498771083       0.288958762950666     
  0.428518353919463       0.528784777355875       0.608023342233064     
  0.672950621022800       0.726772842511108       0.771183536093166     
  0.807016773984900       0.834365585182925       0.852050015943112     
  0.338809674058075       0.500982637500042       0.616534920778814     
  0.707160181432756       0.780902295803342       0.841645233968537     
  0.891476319272473       0.931464422274747       0.961819664425396     
  0.981329500770941       0.391897772358894       0.578153473710200     
  0.709974759220312       0.812701734748286       0.895792668410151     
  0.963858993858319        1.01940930685442        1.06376573361018     
   1.09727283705973        1.11869970264322       0.448034905227480     
  0.659665298561142       0.808548931891959       0.923892618012344     
   1.01665728944751        1.09223640644558        1.15360157631669     
   1.20236046809491        1.23901812495274        1.26235100499946     
  0.507542824884152       0.745888129491740       0.912561754065623     
   1.04088983065138        1.14344555993976        1.22647519009077     
   1.29348213304572        1.34641986619321        1.38600577050408     
   1.41108299596414       0.572207252292511       0.839218142462234     
   1.02457878600499        1.16614927100266        1.27833206929177     
   1.36837536700824        1.44042570421402        1.49689224206572     
   1.53881449668295        1.56521503324091       0.651386744111101     
  0.951452652598753        1.15690156943087        1.31167852333782     
   1.43273933058014        1.52871252603742        1.60459520333490     
   1.66338224823968        1.70656211201016        1.73351423812139     
  0.773407863758345        1.11561941326513        1.34263166154071     
   1.50990988423096        1.63860513403963        1.73921034380564     
   1.81776835449387        1.87796016786641        1.92176653013485     
   1.94894374645113       0.925731249986907        1.31517997610331     
   1.56296062074727        1.73997004406680        1.87289342581187     
   1.97483278347723        2.05327549046505        2.11272977467531     
   2.15569093375874        2.18235074271522       0.992482863528267     
   1.39854146127375        1.64872371793314        1.82158454126804     
   1.94782283837176        2.04255712125798        2.11413506387615     
   2.16738299434451        2.20492467061996        2.22740457470752     
  0.955402527606277        1.33069045075773        1.55394119051028     
   1.70407359322156        1.81152573708954        1.89094820908995     
   1.95016317503922        1.99348616674716        2.02308620235263     
   2.03950817951774       0.837368753400793        1.14089941278599     
   1.31452925193011        1.42947724570815        1.51119563433853     
   1.57138608091623        1.61615046057717        1.64882448956872     
   1.67113750185242        1.68366750543549       0.644539403126125     
  0.850483245651862       0.966641432945514        1.04371832298267     
   1.09871489496502        1.13936972303942        1.16974514242284     
   1.19214030536637        1.20805499348099        1.21963766018985     
  0.392701852629725       0.508060528624789       0.573751205235535     
  0.617596555906141       0.648997272172941       0.672267979495327     
  0.689684487720210       0.702513962512565       0.711455558857428     
  0.716761997771147     
  0.000000000000000E+000  0.000000000000000E+000  0.000000000000000E+000
  0.000000000000000E+000  0.000000000000000E+000  0.000000000000000E+000
  0.000000000000000E+000  0.000000000000000E+000  0.000000000000000E+000
  0.000000000000000E+000  0.000000000000000E+000  0.000000000000000E+000
  0.000000000000000E+000  0.000000000000000E+000  0.000000000000000E+000
  0.000000000000000E+000  0.000000000000000E+000  0.000000000000000E+000
  0.000000000000000E+000  0.000000000000000E+000  0.000000000000000E+000
  0.000000000000000E+000  0.000000000000000E+000  0.000000000000000E+000
  0.000000000000000E+000  0.000000000000000E+000  0.000000000000000E+000
  0.000000000000000E+000  0.000000000000000E+000  0.000000000000000E+000
  0.000000000000000E+000  0.000000000000000E+000  0.000000000000000E+000
  0.000000000000000E+000  0.000000000000000E+000  0.000000000000000E+000
  0.000000000000000E+000  0.000000000000000E+000  0.000000000000000E+000
  0.000000000000000E+000  0.000000000000000E+000  0.000000000000000E+000
  0.000000000000000E+000  0.000000000000000E+000  0.000000000000000E+000
  0.000000000000000E+000  0.000000000000000E+000  0.000000000000000E+000
  0.000000000000000E+000  0.000000000000000E+000  0.000000000000000E+000
  0.000000000000000E+000  0.000000000000000E+000  0.000000000000000E+000
  0.000000000000000E+000  0.000000000000000E+000  0.000000000000000E+000
  0.000000000000000E+000  0.000000000000000E+000  0.000000000000000E+000
  0.000000000000000E+000  0.000000000000000E+000  0.000000000000000E+000
  0.000000000000000E+000  0.000000000000000E+000  0.000000000000000E+000
  0.000000000000000E+000  0.000000000000000E+000  0.000000000000000E+000
  0.000000000000000E+000  0.000000000000000E+000  0.000000000000000E+000
  0.000000000000000E+000  0.000000000000000E+000  0.000000000000000E+000
  0.000000000000000E+000  0.000000000000000E+000  0.000000000000000E+000
  0.000000000000000E+000  0.000000000000000E+000  0.000000000000000E+000
  0.000000000000000E+000  0.000000000000000E+000  0.000000000000000E+000
  0.000000000000000E+000  0.000000000000000E+000  0.000000000000000E+000
  0.000000000000000E+000  0.000000000000000E+000  0.000000000000000E+000
  0.000000000000000E+000  0.000000000000000E+000  0.000000000000000E+000
  0.000000000000000E+000  0.000000000000000E+000  0.000000000000000E+000
  0.000000000000000E+000  0.000000000000000E+000  0.000000000000000E+000
  0.000000000000000E+000  0.000000000000000E+000  0.000000000000000E+000
  0.000000000000000E+000  0.000000000000000E+000  0.000000000000000E+000
  0.000000000000000E+000  0.000000000000000E+000  0.000000000000000E+000
  0.000000000000000E+000  0.000000000000000E+000  0.000000000000000E+000
  0.000000000000000E+000  0.000000000000000E+000  0.000000000000000E+000
  0.000000000000000E+000  0.000000000000000E+000  0.000000000000000E+000