 Title = "Wing and Wake"
 VARIABLES = "X" "Y" "Z" "GAM" "skew"
 Zone I=   11 J=   26 K=1  T="Blade"
 DATAPACKING=BLOCK
 VARLOCATION=([4]=CELLCENTERED,[5]=CELLCENTERED)
 -0.227488892711337      -0.223330831738856      -0.219172770766375     
 -0.215014709793894      -0.210856648821413      -0.206698587848931     
 -0.202540526876450      -0.198382465903969      -0.194224404931488     
 -0.190066343959007      -0.185908282986526      -0.231152869170465     
 -0.226994808197984      -0.222836747225503      -0.218678686253021     
 -0.214520625280540      -0.210362564308059      -0.206204503335578     
 -0.202046442363097      -0.197888381390616      -0.193730320418134     
 -0.189572259445653      -0.242087015450334      -0.237928954477853     
 -0.233770893505372      -0.229612832532890      -0.225454771560409     
 -0.221296710587928      -0.217138649615446      -0.212980588642965     
 -0.208822527670484      -0.204664466698003      -0.200506405725522     
 -0.260118893532368      -0.255960832559887      -0.251802771587406     
 -0.247644710614925      -0.243486649642443      -0.239328588669962     
 -0.235170527697481      -0.231012466725000      -0.226854405752519     
 -0.222696344780038      -0.218538283807556      -0.284964129927492     
 -0.280806068955011      -0.276648007982530      -0.272489947010048     
 -0.268331886037567      -0.264173825065086      -0.260015764092605     
 -0.255857703120124      -0.251699642147642      -0.247541581175162     
 -0.243383520202680      -0.316230900415930      -0.312072839443448     
 -0.307914778470967      -0.303756717498486      -0.299598656526005     
 -0.295440595553524      -0.291282534581043      -0.287124473608561     
 -0.282966412636080      -0.278808351663599      -0.274650290691118     
 -0.353426109349215      -0.349268048376734      -0.345109987404253     
 -0.340951926431772      -0.336793865459291      -0.332635804486810     
 -0.328477743514328      -0.324319682541847      -0.320161621569366     
 -0.316003560596885      -0.311845499624403      -0.395963166063130     
 -0.391805105090649      -0.387647044118168      -0.383488983145687     
 -0.379330922173206      -0.375172861200724      -0.371014800228244     
 -0.366856739255762      -0.362698678283281      -0.358540617310800     
 -0.354382556338319      -0.443171235762889      -0.439013174790409     
 -0.434855113817928      -0.430697052845447      -0.426538991872965     
 -0.422380930900484      -0.418222869928003      -0.414064808955522     
 -0.409906747983041      -0.405748687010560      -0.401590626038078     
 -0.494305818988595      -0.490147758016114      -0.485989697043633     
 -0.481831636071152      -0.477673575098670      -0.473515514126189     
 -0.469357453153708      -0.465199392181227      -0.461041331208746     
 -0.456883270236265      -0.452725209263783      -0.548560492816457     
 -0.544402431843976      -0.540244370871495      -0.536086309899013     
 -0.531928248926533      -0.527770187954052      -0.523612126981570     
 -0.519454066009089      -0.515296005036608      -0.511137944064127     
 -0.506979883091646      -0.605079628630040      -0.600921567657559     
 -0.596763506685077      -0.592605445712596      -0.588447384740116     
 -0.584289323767634      -0.580131262795153      -0.575973201822672     
 -0.571815140850190      -0.567657079877710      -0.563499018905229     
 -0.662971885894666      -0.658813824922186      -0.654655763949705     
 -0.650497702977224      -0.646339642004742      -0.642181581032262     
 -0.638023520059781      -0.633865459087299      -0.629707398114818     
 -0.625549337142337      -0.621391276169856      -0.721324269130118     
 -0.717166208157638      -0.713008147185157      -0.708850086212675     
 -0.704692025240193      -0.700533964267712      -0.696375903295231     
 -0.692217842322751      -0.688059781350269      -0.683901720377788     
 -0.679743659405306      -0.779216526394746      -0.775058465422265     
 -0.770900404449783      -0.766742343477303      -0.762584282504821     
 -0.758426221532340      -0.754268160559859      -0.750110099587378     
 -0.745952038614897      -0.741793977642415      -0.737635916669935     
 -0.835735662208328      -0.831577601235847      -0.827419540263366     
 -0.823261479290885      -0.819103418318404      -0.814945357345922     
 -0.810787296373441      -0.806629235400961      -0.802471174428479     
 -0.798313113455997      -0.794155052483517      -0.889990336036191     
 -0.885832275063710      -0.881674214091228      -0.877516153118747     
 -0.873358092146265      -0.869200031173785      -0.865041970201304     
 -0.860883909228822      -0.856725848256342      -0.852567787283860     
 -0.848409726311379      -0.941124919261896      -0.936966858289414     
 -0.932808797316934      -0.928650736344453      -0.924492675371971     
 -0.920334614399490      -0.916176553427008      -0.912018492454527     
 -0.907860431482046      -0.903702370509565      -0.899544309537083     
 -0.988332988961655      -0.984174927989173      -0.980016867016692     
 -0.975858806044213      -0.971700745071731      -0.967542684099249     
 -0.963384623126768      -0.959226562154287      -0.955068501181806     
 -0.950910440209324      -0.946752379236844       -1.03087004567557     
  -1.02671198470309       -1.02255392373061       -1.01839586275813     
  -1.01423780178565       -1.01007974081316       -1.00592167984068     
  -1.00176361886820      -0.997605557895720      -0.993447496923240     
 -0.989289435950758       -1.06806525460886       -1.06390719363637     
  -1.05974913266389       -1.05559107169141       -1.05143301071893     
  -1.04727494974645       -1.04311688877397       -1.03895882780149     
  -1.03480076682901       -1.03064270585652       -1.02648464488404     
  -1.09933202509729       -1.09517396412481       -1.09101590315233     
  -1.08685784217985       -1.08269978120737       -1.07854172023489     
  -1.07438365926241       -1.07022559828992       -1.06606753731744     
  -1.06190947634496       -1.05775141537248       -1.12417726149242     
  -1.12001920051994       -1.11586113954746       -1.11170307857497     
  -1.10754501760249       -1.10338695663001       -1.09922889565753     
  -1.09507083468505       -1.09091277371257       -1.08675471274009     
  -1.08259665176761       -1.14220913957445       -1.13805107860197     
  -1.13389301762949       -1.12973495665701       -1.12557689568453     
  -1.12141883471205       -1.11726077373957       -1.11310271276708     
  -1.10894465179460       -1.10478659082212       -1.10062852984964     
  -1.15314328585432       -1.14898522488184       -1.14482716390936     
  -1.14066910293688       -1.13651104196440       -1.13235298099191     
  -1.12819492001943       -1.12403685904695       -1.11987879807447     
  -1.11572073710199       -1.11156267612951       -1.15680726231345     
  -1.15264920134097       -1.14849114036849       -1.14433307939600     
  -1.14017501842352       -1.13601695745104       -1.13185889647856     
  -1.12770083550608       -1.12354277453360       -1.11938471356112     
  -1.11522665258864     
 -0.143416024292807      -0.124899642984817      -0.106383261676827     
 -8.786688036883714E-002 -6.935049906084700E-002 -5.083411775285680E-002
 -3.231773644486685E-002 -1.380135513687675E-002  4.715026171113260E-003
  2.323140747910342E-002  4.174778878709355E-002 -0.142593237309467     
 -0.124076856001476      -0.105560474693486      -8.704409338549640E-002
 -6.852771207750614E-002 -5.001133076951622E-002 -3.149494946152609E-002
 -1.297856815353600E-002  5.537813154454238E-003  2.405419446244418E-002
  4.257057577043430E-002 -0.140137852201681      -0.121621470893691     
 -0.103105089585701      -8.458870827771045E-002 -6.607232696972039E-002
 -4.755594566173040E-002 -2.903956435374025E-002 -1.052318304575033E-002
  7.993198262239936E-003  2.650957957022991E-002  4.502596087822006E-002
 -0.136088591859375      -0.117572210551386      -9.905582924339547E-002
 -8.053944793540541E-002 -6.202306662741543E-002 -4.350668531942521E-002
 -2.499030401143501E-002 -6.473922703445033E-003  1.204245860454503E-002
  3.055883991253508E-002  4.907522122052508E-002 -0.130509315537060     
 -0.111992934229070      -9.347655292108002E-002 -7.496017161308992E-002
 -5.644379030509983E-002 -3.792740899710964E-002 -1.941102768911977E-002
 -8.946463811295431E-004  1.762173492686052E-002  3.613811623485066E-002
  5.465449754284057E-002 -0.123488011755235      -0.104971630447245     
 -8.645524913925517E-002 -6.793886783126526E-002 -4.942248652327509E-002
 -3.090610521528499E-002 -1.238972390729501E-002  6.126657400694927E-003
  2.464303870868513E-002  4.315942001667526E-002  6.167580132466548E-002
 -0.115135410668865      -9.661902936087451E-002 -7.810264805288428E-002
 -5.958626674489419E-002 -4.106988543690416E-002 -2.255350412891403E-002
 -4.037122820924137E-003  1.447925848706625E-002  3.299563979505644E-002
  5.151202110304628E-002  7.002840241103617E-002 -0.105583237786681     
 -8.706685647869122E-002 -6.855047517070113E-002 -5.003409386271094E-002
 -3.151771255472110E-002 -1.300133124673059E-002  5.515050061259241E-003
  2.403143136924936E-002  4.254781267723953E-002  6.106419398522955E-002
  7.958057529321975E-002 -9.498213658122884E-002 -7.646575527323904E-002
 -5.794937396524911E-002 -3.943299265725898E-002 -2.091661134926910E-002
 -2.400230041278869E-003  1.611615126671135E-002  3.463253257470120E-002
  5.314891388269147E-002  7.166529519068152E-002  9.018167649867123E-002
 -8.349929275130928E-002 -6.498291144331930E-002 -4.646653013532926E-002
 -2.795014882733949E-002 -9.433767519349195E-003  9.082613788640758E-003
  2.759899509663081E-002  4.611537640462080E-002  6.463175771261111E-002
  8.314813902060118E-002  0.101664520328591      -7.131579760363847E-002
 -5.279941629564832E-002 -3.428303498765820E-002 -1.576665367966802E-002
  2.749727628321972E-003  2.126610893631198E-002  3.978249024430208E-002
  5.829887155229239E-002  7.681525286028230E-002  9.533163416827259E-002
  0.113848015476262      -5.862379213476167E-002 -4.010741082677137E-002
 -2.159102951878106E-002 -3.074648210791348E-003  1.544173309719897E-002
  3.395811440518953E-002  5.247449571317900E-002  7.099087702116935E-002
  8.950725832915934E-002  0.108023639637149       0.126540020945139     
 -4.562343685275983E-002 -2.710705554476952E-002 -8.590674236779616E-003
  9.925707071210580E-003  2.844208837920099E-002  4.695846968719075E-002
  6.547485099518070E-002  8.399123230317082E-002  0.102507613611161     
  0.121023994919151       0.139540376227141      -3.251975512646620E-002
 -1.400337381847595E-002  4.513007489514295E-003  2.302938879750425E-002
  4.154577010549410E-002  6.006215141348448E-002  7.857853272147459E-002
  9.709491402946442E-002  0.115611295337454       0.134127676645445     
  0.152644057953435      -1.951939984446506E-002 -1.003018536474506E-003
  1.751336277151599E-002  3.602974407950548E-002  5.454612538749547E-002
  7.306250669548565E-002  9.157888800347615E-002  0.110095269311466     
  0.128611650619456       0.147128031927446       0.165644413235437     
 -6.827394375587370E-003  1.168898693240283E-002  3.020536824039259E-002
  4.872174954838251E-002  6.723813085637315E-002  8.575451216436270E-002
  0.104270893472353       0.122787274780343       0.141303656088333     
  0.159820037396323       0.178336418704313       5.356100772083970E-003
  2.387248208007317E-002  4.238886338806401E-002  6.090524469605386E-002
  7.942162600404379E-002  9.793800731203393E-002  0.116454388620025     
  0.134970769928015       0.153487151236004       0.172003532543995     
  0.190519913851984       1.683894460200357E-002  3.535532590999355E-002
  5.387170721798326E-002  7.238808852597413E-002  9.090446983396350E-002
  0.109420851141954       0.127937232449944       0.146453613757934     
  0.164969995065924       0.183486376373914       0.202002757681904     
  2.744004580745519E-002  4.595642711544512E-002  6.447280842343570E-002
  8.298918973142583E-002  0.101505571039415       0.120021952347405     
  0.138538333655396       0.157054714963386       0.175571096271376     
  0.194087477579366       0.212603858887356       3.699221868963826E-002
  5.550859999762851E-002  7.402498130561881E-002  9.254136261360842E-002
  0.111057743921598       0.129574125229589       0.148090506537579     
  0.166606887845569       0.185123269153559       0.203639650461549     
  0.222156031769539       4.534481977600963E-002  6.386120108399995E-002
  8.237758239198899E-002  0.100893963699979       0.119410345007969     
  0.137926726315959       0.156443107623950       0.174959488931940     
  0.193475870239930       0.211992251547920       0.230508632855911     
  5.236612355783359E-002  7.088250486582455E-002  8.939888617381478E-002
  0.107915267481804       0.126431648789794       0.144948030097784     
  0.163464411405775       0.181980792713765       0.200497174021755     
  0.219013555329745       0.237529936637736       5.794539988014941E-002
  7.646178118813997E-002  9.497816249612975E-002  0.113494543804120     
  0.132010925112111       0.150527306420099       0.169043687728090     
  0.187560069036080       0.206076450344070       0.224592831652060     
  0.243109212960051       6.199466022245447E-002  8.051104153044550E-002
  9.902742283843491E-002  0.117543804146426       0.136060185454416     
  0.154576566762406       0.173092948070395       0.191609329378386     
  0.210125710686376       0.228642091994366       0.247158473302356     
  6.445004533024122E-002  8.296642663823069E-002  0.101482807946221     
  0.119999189254211       0.138515570562201       0.157031951870191     
  0.175548333178181       0.194064714486171       0.212581095794161     
  0.231097477102151       0.249613858410142       6.527283231358176E-002
  8.378921362157146E-002  0.102305594929562       0.120821976237552     
  0.139338357545541       0.157854738853531       0.176371120161521     
  0.194887501469513       0.213403882777502       0.231920264085492     
  0.250436645393483     
  1.660316899342888E-002  1.494285209408599E-002  1.328253519474311E-002
  1.162221829540022E-002  9.961901396057328E-003  8.301584496714441E-003
  6.641267597371552E-003  4.980950698028665E-003  3.320633798685776E-003
  1.660316899342887E-003  0.000000000000000E+000  1.660316899342888E-002
  1.494285209408599E-002  1.328253519474311E-002  1.162221829540022E-002
  9.961901396057328E-003  8.301584496714441E-003  6.641267597371552E-003
  4.980950698028665E-003  3.320633798685776E-003  1.660316899342887E-003
  0.000000000000000E+000  1.660316899342888E-002  1.494285209408599E-002
  1.328253519474311E-002  1.162221829540022E-002  9.961901396057328E-003
  8.301584496714441E-003  6.641267597371552E-003  4.980950698028665E-003
  3.320633798685776E-003  1.660316899342887E-003  0.000000000000000E+000
  1.660316899342888E-002  1.494285209408599E-002  1.328253519474311E-002
  1.162221829540022E-002  9.961901396057328E-003  8.301584496714441E-003
  6.641267597371552E-003  4.980950698028665E-003  3.320633798685776E-003
  1.660316899342887E-003  0.000000000000000E+000  1.660316899342888E-002
  1.494285209408599E-002  1.328253519474311E-002  1.162221829540022E-002
  9.961901396057328E-003  8.301584496714441E-003  6.641267597371552E-003
  4.980950698028665E-003  3.320633798685776E-003  1.660316899342887E-003
  0.000000000000000E+000  1.660316899342888E-002  1.494285209408599E-002
  1.328253519474311E-002  1.162221829540022E-002  9.961901396057328E-003
  8.301584496714441E-003  6.641267597371552E-003  4.980950698028665E-003
  3.320633798685776E-003  1.660316899342887E-003  0.000000000000000E+000
  1.660316899342888E-002  1.494285209408599E-002  1.328253519474311E-002
  1.162221829540022E-002  9.961901396057328E-003  8.301584496714441E-003
  6.641267597371552E-003  4.980950698028665E-003  3.320633798685776E-003
  1.660316899342887E-003  0.000000000000000E+000  1.660316899342888E-002
  1.494285209408599E-002  1.328253519474311E-002  1.162221829540022E-002
  9.961901396057328E-003  8.301584496714441E-003  6.641267597371552E-003
  4.980950698028665E-003  3.320633798685776E-003  1.660316899342887E-003
  0.000000000000000E+000  1.660316899342888E-002  1.494285209408599E-002
  1.328253519474311E-002  1.162221829540022E-002  9.961901396057328E-003
  8.301584496714441E-003  6.641267597371552E-003  4.980950698028665E-003
  3.320633798685776E-003  1.660316899342887E-003  0.000000000000000E+000
  1.660316899342888E-002  1.494285209408599E-002  1.328253519474311E-002
  1.162221829540022E-002  9.961901396057328E-003  8.301584496714441E-003
  6.641267597371552E-003  4.980950698028665E-003  3.320633798685776E-003
  1.660316899342887E-003  0.000000000000000E+000  1.660316899342888E-002
  1.494285209408599E-002  1.328253519474311E-002  1.162221829540022E-002
  9.961901396057328E-003  8.301584496714441E-003  6.641267597371552E-003
  4.980950698028665E-003  3.320633798685776E-003  1.660316899342887E-003
  0.000000000000000E+000  1.660316899342888E-002  1.494285209408599E-002
  1.328253519474311E-002  1.162221829540022E-002  9.961901396057328E-003
  8.301584496714441E-003  6.641267597371552E-003  4.980950698028665E-003
  3.320633798685776E-003  1.660316899342887E-003  0.000000000000000E+000
  1.660316899342888E-002  1.494285209408599E-002  1.328253519474311E-002
  1.162221829540022E-002  9.961901396057328E-003  8.301584496714441E-003
  6.641267597371552E-003  4.980950698028665E-003  3.320633798685776E-003
  1.660316899342887E-003  0.000000000000000E+000  1.660316899342888E-002
  1.494285209408599E-002  1.328253519474311E-002  1.162221829540022E-002
  9.961901396057328E-003  8.301584496714441E-003  6.641267597371552E-003
  4.980950698028665E-003  3.320633798685776E-003  1.660316899342887E-003
  0.000000000000000E+000  1.660316899342888E-002  1.494285209408599E-002
  1.328253519474311E-002  1.162221829540022E-002  9.961901396057328E-003
  8.301584496714441E-003  6.641267597371552E-003  4.980950698028665E-003
  3.320633798685776E-003  1.660316899342887E-003  0.000000000000000E+000
  1.660316899342888E-002  1.494285209408599E-002  1.328253519474311E-002
  1.162221829540022E-002  9.961901396057328E-003  8.301584496714441E-003
  6.641267597371552E-003  4.980950698028665E-003  3.320633798685776E-003
  1.660316899342887E-003  0.000000000000000E+000  1.660316899342888E-002
  1.494285209408599E-002  1.328253519474311E-002  1.162221829540022E-002
  9.961901396057328E-003  8.301584496714441E-003  6.641267597371552E-003
  4.980950698028665E-003  3.320633798685776E-003  1.660316899342887E-003
  0.000000000000000E+000  1.660316899342888E-002  1.494285209408599E-002
  1.328253519474311E-002  1.162221829540022E-002  9.961901396057328E-003
  8.301584496714441E-003  6.641267597371552E-003  4.980950698028665E-003
  3.320633798685776E-003  1.660316899342887E-003  0.000000000000000E+000
  1.660316899342888E-002  1.494285209408599E-002  1.328253519474311E-002
  1.162221829540022E-002  9.961901396057328E-003  8.301584496714441E-003
  6.641267597371552E-003  4.980950698028665E-003  3.320633798685776E-003
  1.660316899342887E-003  0.000000000000000E+000  1.660316899342888E-002
  1.494285209408599E-002  1.328253519474311E-002  1.162221829540022E-002
  9.961901396057328E-003  8.301584496714441E-003  6.641267597371552E-003
  4.980950698028665E-003  3.320633798685776E-003  1.660316899342887E-003
  0.000000000000000E+000  1.660316899342888E-002  1.494285209408599E-002
  1.328253519474311E-002  1.162221829540022E-002  9.961901396057328E-003
  8.301584496714441E-003  6.641267597371552E-003  4.980950698028665E-003
  3.320633798685776E-003  1.660316899342887E-003  0.000000000000000E+000
  1.660316899342888E-002  1.494285209408599E-002  1.328253519474311E-002
  1.162221829540022E-002  9.961901396057328E-003  8.301584496714441E-003
  6.641267597371552E-003  4.980950698028665E-003  3.320633798685776E-003
  1.660316899342887E-003  0.000000000000000E+000  1.660316899342888E-002
  1.494285209408599E-002  1.328253519474311E-002  1.162221829540022E-002
  9.961901396057328E-003  8.301584496714441E-003  6.641267597371552E-003
  4.980950698028665E-003  3.320633798685776E-003  1.660316899342887E-003
  0.000000000000000E+000  1.660316899342888E-002  1.494285209408599E-002
  1.328253519474311E-002  1.162221829540022E-002  9.961901396057328E-003
  8.301584496714441E-003  6.641267597371552E-003  4.980950698028665E-003
  3.320633798685776E-003  1.660316899342887E-003  0.000000000000000E+000
  1.660316899342888E-002  1.494285209408599E-002  1.328253519474311E-002
  1.162221829540022E-002  9.961901396057328E-003  8.301584496714441E-003
  6.641267597371552E-003  4.980950698028665E-003  3.320633798685776E-003
  1.660316899342887E-003  0.000000000000000E+000  1.660316899342888E-002
  1.494285209408599E-002  1.328253519474311E-002  1.162221829540022E-002
  9.961901396057328E-003  8.301584496714441E-003  6.641267597371552E-003
  4.980950698028665E-003  3.320633798685776E-003  1.660316899342887E-003
  0.000000000000000E+000
  6.850894786071561E-002  9.936838296934367E-002  0.123875364334308     
  0.145010468727646       0.163583267296132       0.179810723899374     
  0.193791206019368       0.205487534807645       0.214736983388829     
  0.221791255002144       0.111493951452332       0.164458710372374     
  0.206122240542927       0.241968028625966       0.273415112687937     
  0.300848553837325       0.324451981199983       0.344215347730654     
  0.360087327262661       0.372939381705861       0.140803748582049     
  0.213713232692358       0.271104808536733       0.320442888003510     
  0.363677961305541       0.401348576606026       0.433685478880822     
  0.460684993272967       0.482238371671980       0.498308579160941     
  0.152498686882367       0.236771196379086       0.304443707085544     
  0.363022838450895       0.414475720141108       0.459307467594980     
  0.497599149132417       0.529189995099018       0.553824513608160     
  0.570866530819763       0.150028706773219       0.236268062946668     
  0.306959264643900       0.368810000599840       0.423500071369419     
  0.471357105992456       0.512248431978746       0.545778786687127     
  0.571349368152808       0.587803240872588       0.141967872265401     
  0.224410722457784       0.292444289852361       0.352245879197860     
  0.405366868585388       0.452044460807164       0.492025221816120     
  0.524796770038047       0.549606467164105       0.565104613948582     
  0.138389379833491       0.217213196377970       0.281487937959456     
  0.337529467076006       0.387071469533355       0.430542189261080     
  0.467844058618048       0.498590947046086       0.522077394629100     
  0.536838324087023       0.146102205301928       0.225787455884844     
  0.288922528575310       0.342918344498829       0.390069233560310     
  0.431165963381222       0.466355720761475       0.495409655765388     
  0.517737745322080       0.531962899935168       0.166537302628950     
  0.253328079210411       0.319839279621432       0.375341104760993     
  0.422932154158047       0.463870132954608       0.498632949992837     
  0.527249394784096       0.549311021580516       0.563535689800330     
  0.196755222505150       0.295869928846221       0.369781100998393     
  0.430122866167196       0.480969820646764       0.524120225872208     
  0.560397490815580       0.590069441437919       0.612895911162204     
  0.627664793395384       0.233299618992323       0.348197417772850     
  0.432225503647000       0.499704344329327       0.555786225409450     
  0.602842215580690       0.642047928139021       0.673902670906674     
  0.698306069597731       0.714080869102214       0.273698401419155     
  0.406545216277464       0.502425990304708       0.578515885960838     
  0.641098079228526       0.693143943599753       0.736190880879072     
  0.770962976221135       0.797484523053137       0.814575112555636     
  0.316555486983939       0.468752198503617       0.577620897445973     
  0.663296317359372       0.733216613981165       0.790954152175487     
  0.838408220563396       0.876527953065343       0.905460133114774     
  0.924019627622477       0.361709246698826       0.534454968114770     
  0.657214325613434       0.753197415627650       0.831037319002121     
  0.894926498182521       0.947130830027199       0.988829262937602     
   1.02030245222495        1.04037759155141       0.410878277611459     
  0.605934663063047       0.743703753839093       0.850747175049466     
  0.937003064139932        1.00735042314133        1.06447047869577     
   1.10980730226278        1.14380592101697        1.16533732798833     
  0.468532784478847       0.689192216255081       0.843765646225414     
  0.962855898378284        1.05800733470313        1.13495798561300     
   1.19692575822310        1.24570992317035        1.28198878400081     
   1.30474661148026       0.542264607857848       0.794056424425132     
  0.967986221987653        1.10019093027000        1.20447317044054     
   1.28778599281794        1.35409871032432        1.40571919691379     
   1.44367748968628        1.46717752863808       0.638835553534001     
  0.928338392773502        1.12384994965426        1.26946573145839     
   1.38226364830441        1.47092448803040        1.54044381855553     
   1.59379333443003        1.63247043441114        1.65602126305351     
  0.746565019749634        1.07501812256394        1.29079999420991     
   1.44757406951550        1.56636811312835        1.65793311593959     
   1.72847778769472        1.78173897095514        1.81974644803305     
   1.84250753222760       0.827984232819095        1.18232303552710     
   1.40877236051475        1.56902132855873        1.68752428461397     
   1.77685132814890        1.84425801194005        1.89412368777555     
   1.92894483407289        1.94929973721769       0.856853502261168     
   1.21162605801897        1.43119359924950        1.58219013975362     
   1.69113469297678        1.77149890463156        1.83089543954438     
   1.87381431649883        1.90281373836930        1.91887148144747     
  0.826506337969000        1.15114131552587        1.34371788730446     
   1.47230147558072        1.56323371472259        1.62931577702712     
   1.67747121849573        1.71161381251124        1.73386028293865     
   1.74508250074222       0.733256825285827       0.996187846335165     
   1.14510171254157        1.24260905576852        1.31099053456081     
   1.36048288457176        1.39644500332529        1.42187073599758     
   1.43844778030967        1.44703543013098       0.570307341180062     
  0.748906590090583       0.848213856796243       0.913248129834405     
  0.958981416614113       0.992194263427553        1.01644009915431     
   1.03376895713636        1.04561140577030        1.05408404522510     
  0.348983496066880       0.448974134699791       0.505048295107297     
  0.541964619841722       0.568014858293841       0.586981114803018     
  0.600850834390218       0.610751999758067       0.617366519085886     
  0.621064829423711     
  0.000000000000000E+000  0.000000000000000E+000  0.000000000000000E+000
  0.000000000000000E+000  0.000000000000000E+000  0.000000000000000E+000
  0.000000000000000E+000  0.000000000000000E+000  0.000000000000000E+000
  0.000000000000000E+000  0.000000000000000E+000  0.000000000000000E+000
  0.000000000000000E+000  0.000000000000000E+000  0.000000000000000E+000
  0.000000000000000E+000  0.000000000000000E+000  0.000000000000000E+000
  0.000000000000000E+000  0.000000000000000E+000  0.000000000000000E+000
  0.000000000000000E+000  0.000000000000000E+000  0.000000000000000E+000
  0.000000000000000E+000  0.000000000000000E+000  0.000000000000000E+000
  0.000000000000000E+000  0.000000000000000E+000  0.000000000000000E+000
  0.000000000000000E+000  0.000000000000000E+000  0.000000000000000E+000
  0.000000000000000E+000  0.000000000000000E+000  0.000000000000000E+000
  0.000000000000000E+000  0.000000000000000E+000  0.000000000000000E+000
  0.000000000000000E+000  0.000000000000000E+000  0.000000000000000E+000
  0.000000000000000E+000  0.000000000000000E+000  0.000000000000000E+000
  0.000000000000000E+000  0.000000000000000E+000  0.000000000000000E+000
  0.000000000000000E+000  0.000000000000000E+000  0.000000000000000E+000
  0.000000000000000E+000  0.000000000000000E+000  0.000000000000000E+000
  0.000000000000000E+000  0.000000000000000E+000  0.000000000000000E+000
  0.000000000000000E+000  0.000000000000000E+000  0.000000000000000E+000
  0.000000000000000E+000  0.000000000000000E+000  0.000000000000000E+000
  0.000000000000000E+000  0.000000000000000E+000  0.000000000000000E+000
  0.000000000000000E+000  0.000000000000000E+000  0.000000000000000E+000
  0.000000000000000E+000  0.000000000000000E+000  0.000000000000000E+000
  0.000000000000000E+000  0.000000000000000E+000  0.000000000000000E+000
  0.000000000000000E+000  0.000000000000000E+000  0.000000000000000E+000
  0.000000000000000E+000  0.000000000000000E+000  0.000000000000000E+000
  0.000000000000000E+000  0.000000000000000E+000  0.000000000000000E+000
  0.000000000000000E+000  0.000000000000000E+000  0.000000000000000E+000
  0.000000000000000E+000  0.000000000000000E+000  0.000000000000000E+000
  0.000000000000000E+000  0.000000000000000E+000  0.000000000000000E+000
  0.000000000000000E+000  0.000000000000000E+000  0.000000000000000E+000
  0.000000000000000E+000  0.000000000000000E+000  0.000000000000000E+000
  0.000000000000000E+000  0.000000000000000E+000  0.000000000000000E+000
  0.000000000000000E+000  0.000000000000000E+000  0.000000000000000E+000
  0.000000000000000E+000  0.000000000000000E+000  0.000000000000000E+000
  0.000000000000000E+000  0.000000000000000E+000  0.000000000000000E+000
  0.000000000000000E+000  0.000000000000000E+000  0.000000000000000E+000
  0.000000000000000E+000  0.000000000000000E+000  0.000000000000000E+000