 Title = "Wing and Wake"
 VARIABLES = "X" "Y" "Z" "GAM" "skew"
 Zone I=   11 J=   26 K=1  T="Blade"
 DATAPACKING=BLOCK
 VARLOCATION=([4]=CELLCENTERED,[5]=CELLCENTERED)
  9.317439617501083E-002  0.101147543200847       0.109120690226684     
  0.117093837252521       0.125066984278357       0.133040131304194     
  0.141013278330030       0.148986425355867       0.156959572381704     
  0.164932719407540       0.172905866433377       9.658211429321253E-002
  0.104555261319049       0.112528408344886       0.120501555370722     
  0.128474702396559       0.136447849422396       0.144420996448232     
  0.152394143474069       0.160367290499906       0.168340437525742     
  0.176313584551579       0.106751526897421       0.114724673923258     
  0.122697820949095       0.130670967974931       0.138644115000768     
  0.146617262026604       0.154590409052441       0.162563556078277     
  0.170536703104114       0.178509850129951       0.186482997155787     
  0.123522256275957       0.131495403301793       0.139468550327630     
  0.147441697353466       0.155414844379303       0.163387991405139     
  0.171361138430976       0.179334285456813       0.187307432482649     
  0.195280579508486       0.203253726534322       0.146629818008170     
  0.154602965034007       0.162576112059843       0.170549259085680     
  0.178522406111516       0.186495553137353       0.194468700163190     
  0.202441847189026       0.210414994214863       0.218388141240700     
  0.226361288266536       0.175709792041757       0.183682939067593     
  0.191656086093430       0.199629233119267       0.207602380145103     
  0.215575527170940       0.223548674196776       0.231521821222613     
  0.239494968248450       0.247468115274286       0.255441262300123     
  0.210303569814673       0.218276716840509       0.226249863866346     
  0.234223010892183       0.242196157918019       0.250169304943856     
  0.258142451969692       0.266115598995529       0.274088746021366     
  0.282061893047202       0.290035040073038       0.249865586786118     
  0.257838733811955       0.265811880837791       0.273785027863628     
  0.281758174889464       0.289731321915301       0.297704468941138     
  0.305677615966974       0.313650762992811       0.321623910018648     
  0.329597057044484       0.293771926315249       0.301745073341086     
  0.309718220366922       0.317691367392759       0.325664514418595     
  0.333637661444432       0.341610808470269       0.349583955496105     
  0.357557102521942       0.365530249547779       0.373503396573615     
  0.341330159199316       0.349303306225152       0.357276453250989     
  0.365249600276826       0.373222747302662       0.381195894328499     
  0.389169041354335       0.397142188380172       0.405115335406009     
  0.413088482431845       0.421061629457682       0.391790263695825     
  0.399763410721662       0.407736557747499       0.415709704773335     
  0.423682851799172       0.431655998825008       0.439629145850845     
  0.447602292876681       0.455575439902518       0.463548586928355     
  0.471521733954191       0.444356453813462       0.452329600839299     
  0.460302747865135       0.468275894890972       0.476249041916810     
  0.484222188942646       0.492195335968482       0.500168482994319     
  0.508141630020155       0.516114777045992       0.524087924071829     
  0.498199729332551       0.506172876358389       0.514146023384225     
  0.522119170410062       0.530092317435898       0.538065464461735     
  0.546038611487572       0.554011758513408       0.561984905539245     
  0.569958052565081       0.577931199590918       0.552470949633744     
  0.560444096659581       0.568417243685418       0.576390390711255     
  0.584363537737090       0.592336684762927       0.600309831788764     
  0.608282978814600       0.616256125840437       0.624229272866274     
  0.632202419892110       0.606314225152834       0.614287372178670     
  0.622260519204507       0.630233666230343       0.638206813256180     
  0.646179960282017       0.654153107307853       0.662126254333690     
  0.670099401359527       0.678072548385363       0.686045695411200     
  0.658880415270471       0.666853562296307       0.674826709322144     
  0.682799856347981       0.690773003373817       0.698746150399653     
  0.706719297425490       0.714692444451328       0.722665591477164     
  0.730638738503000       0.738611885528837       0.709340519766981     
  0.717313666792817       0.725286813818654       0.733259960844490     
  0.741233107870326       0.749206254896163       0.757179401922001     
  0.765152548947837       0.773125695973674       0.781098842999509     
  0.789071990025347       0.756898752651047       0.764871899676884     
  0.772845046702720       0.780818193728558       0.788791340754393     
  0.796764487780230       0.804737634806066       0.812710781831902     
  0.820683928857740       0.828657075883576       0.836630222909412     
  0.800805092180178       0.808778239206014       0.816751386231851     
  0.824724533257689       0.832697680283524       0.840670827309361     
  0.848643974335198       0.856617121361034       0.864590268386871     
  0.872563415412707       0.880536562438544       0.840367109151623     
  0.848340256177460       0.856313403203297       0.864286550229133     
  0.872259697254970       0.880232844280806       0.888205991306643     
  0.896179138332480       0.904152285358316       0.912125432384153     
  0.920098579409989       0.874960886924539       0.882934033950376     
  0.890907180976212       0.898880328002048       0.906853475027885     
  0.914826622053721       0.922799769079559       0.930772916105395     
  0.938746063131231       0.946719210157068       0.954692357182906     
  0.904040860958125       0.912014007983963       0.919987155009800     
  0.927960302035636       0.935933449061472       0.943906596087308     
  0.951879743113145       0.959852890138982       0.967826037164819     
  0.975799184190656       0.983772331216492       0.927148422690340     
  0.935121569716176       0.943094716742013       0.951067863767850     
  0.959041010793686       0.967014157819522       0.974987304845359     
  0.982960451871195       0.990933598897032       0.998906745922870     
   1.00687989294871       0.943919152068875       0.951892299094712     
  0.959865446120549       0.967838593146386       0.975811740172221     
  0.983784887198059       0.991758034223894       0.999731181249731     
   1.00770432827557        1.01567747530141        1.02365062232724     
  0.954088564673083       0.962061711698920       0.970034858724756     
  0.978008005750593       0.985981152776430       0.993954299802266     
   1.00192744682810        1.00990059385394        1.01787374087978     
   1.02584688790561        1.03382003493145       0.957496282791285     
  0.965469429817121       0.973442576842958       0.981415723868794     
  0.989388870894631       0.997362017920468        1.00533516494630     
   1.01330831197214        1.02128145899798        1.02925460602381     
   1.03722775304965     
  0.252265503445096       0.235044156973401       0.217822810501706     
  0.200601464030012       0.183380117558317       0.166158771086622     
  0.148937424614928       0.131716078143233       0.114494731671539     
  9.727338519984406E-002  8.005203872814955E-002  0.253843210369678     
  0.236621863897983       0.219400517426289       0.202179170954595     
  0.184957824482900       0.167736478011205       0.150515131539511     
  0.133293785067816       0.116072438596121       9.885109212442673E-002
  8.162974565273211E-002  0.258551449762749       0.241330103291055     
  0.224108756819360       0.206887410347665       0.189666063875970     
  0.172444717404276       0.155223370932581       0.138002024460887     
  0.120780677989192       0.103559331517498       8.633798504580290E-002
  0.266315969876513       0.249094623404819       0.231873276933124     
  0.214651930461430       0.197430583989735       0.180209237518040     
  0.162987891046346       0.145766544574651       0.128545198102957     
  0.111323851631262       9.410250515956736E-002  0.277014319590478     
  0.259792973118783       0.242571626647089       0.225350280175394     
  0.208128933703699       0.190907587232005       0.173686240760310     
  0.156464894288615       0.139243547816921       0.122022201345226     
  0.104800854873532       0.290477779538768       0.273256433067074     
  0.256035086595379       0.238813740123685       0.221592393651990     
  0.204371047180296       0.187149700708601       0.169928354236906     
  0.152707007765212       0.135485661293517       0.118264314821822     
  0.306494022915320       0.289272676443625       0.272051329971931     
  0.254829983500236       0.237608637028542       0.220387290556847     
  0.203165944085152       0.185944597613458       0.168723251141763     
  0.151501904670068       0.134280558198374       0.324810463994444     
  0.307589117522749       0.290367771051055       0.273146424579360     
  0.255925078107666       0.238703731635971       0.221482385164277     
  0.204261038692582       0.187039692220887       0.169818345749193     
  0.152596999277498       0.345138241558611       0.327916895086916     
  0.310695548615222       0.293474202143527       0.276252855671833     
  0.259031509200138       0.241810162728443       0.224588816256749     
  0.207367469785054       0.190146123313360       0.172924776841665     
  0.367156774412409       0.349935427940714       0.332714081469020     
  0.315492734997325       0.298271388525630       0.281050042053936     
  0.263828695582241       0.246607349110547       0.229386002638852     
  0.212164656167157       0.194943309695463       0.390518817139499     
  0.373297470667804       0.356076124196110       0.338854777724415     
  0.321633431252720       0.304412084781026       0.287190738309331     
  0.269969391837636       0.252748045365942       0.235526698894247     
  0.218305352422553       0.414855936370267       0.397634589898572     
  0.380413243426877       0.363191896955183       0.345970550483489     
  0.328749204011794       0.311527857540099       0.294306511068405     
  0.277085164596710       0.259863818125015       0.242642471653321     
  0.439784321196153       0.422562974724459       0.405341628252764     
  0.388120281781070       0.370898935309375       0.353677588837680     
  0.336456242365986       0.319234895894291       0.302013549422597     
  0.284792202950902       0.267570856479207       0.464910836096959     
  0.447689489625265       0.430468143153570       0.413246796681876     
  0.396025450210181       0.378804103738486       0.361582757266791     
  0.344361410795097       0.327140064323403       0.309918717851707     
  0.292697371380013       0.489839220922847       0.472617874451151     
  0.455396527979456       0.438175181507762       0.420953835036068     
  0.403732488564373       0.386511142092678       0.369289795620984     
  0.352068449149289       0.334847102677595       0.317625756205900     
  0.514176340153614       0.496954993681919       0.479733647210225     
  0.462512300738530       0.445290954266835       0.428069607795141     
  0.410848261323446       0.393626914851752       0.376405568380058     
  0.359184221908362       0.341962875436668       0.537538382880704     
  0.520317036409010       0.503095689937315       0.485874343465620     
  0.468652996993926       0.451431650522231       0.434210304050536     
  0.416988957578842       0.399767611107147       0.382546264635452     
  0.365324918163758       0.559556915734502       0.542335569262807     
  0.525114222791113       0.507892876319418       0.490671529847723     
  0.473450183376028       0.456228836904334       0.439007490432639     
  0.421786143960945       0.404564797489250       0.387343451017556     
  0.579884693298669       0.562663346826974       0.545442000355279     
  0.528220653883586       0.510999307411891       0.493777960940196     
  0.476556614468501       0.459335267996806       0.442113921525112     
  0.424892575053417       0.407671228581723       0.598201134377793     
  0.580979787906099       0.563758441434404       0.546537094962709     
  0.529315748491015       0.512094402019319       0.494873055547626     
  0.477651709075930       0.460430362604236       0.443209016132541     
  0.425987669660847       0.614217377754344       0.596996031282649     
  0.579774684810956       0.562553338339260       0.545331991867566     
  0.528110645395871       0.510889298924177       0.493667952452482     
  0.476446605980787       0.459225259509092       0.442003913037398     
  0.627680837702635       0.610459491230941       0.593238144759246     
  0.576016798287552       0.558795451815857       0.541574105344162     
  0.524352758872467       0.507131412400772       0.489910065929078     
  0.472688719457384       0.455467372985689       0.638379187416600     
  0.621157840944904       0.603936494473210       0.586715148001515     
  0.569493801529821       0.552272455058127       0.535051108586432     
  0.517829762114737       0.500608415643042       0.483387069171348     
  0.466165722699653       0.646143707530364       0.628922361058669     
  0.611701014586975       0.594479668115280       0.577258321643585     
  0.560036975171891       0.542815628700197       0.525594282228501     
  0.508372935756807       0.491151589285112       0.473930242813417     
  0.650851946923434       0.633630600451740       0.616409253980045     
  0.599187907508350       0.581966561036656       0.564745214564961     
  0.547523868093267       0.530302521621571       0.513081175149877     
  0.495859828678184       0.478638482206488       0.652429653848017     
  0.635208307376322       0.617986960904628       0.600765614432933     
  0.583544267961239       0.566322921489545       0.549101575017850     
  0.531880228546154       0.514658882074461       0.497437535602765     
  0.480216189131071     
  1.660316899342888E-002  1.494285209408599E-002  1.328253519474311E-002
  1.162221829540022E-002  9.961901396057328E-003  8.301584496714441E-003
  6.641267597371552E-003  4.980950698028665E-003  3.320633798685776E-003
  1.660316899342887E-003  0.000000000000000E+000  1.660316899342888E-002
  1.494285209408599E-002  1.328253519474311E-002  1.162221829540022E-002
  9.961901396057328E-003  8.301584496714441E-003  6.641267597371552E-003
  4.980950698028665E-003  3.320633798685776E-003  1.660316899342887E-003
  0.000000000000000E+000  1.660316899342888E-002  1.494285209408599E-002
  1.328253519474311E-002  1.162221829540022E-002  9.961901396057328E-003
  8.301584496714441E-003  6.641267597371552E-003  4.980950698028665E-003
  3.320633798685776E-003  1.660316899342887E-003  0.000000000000000E+000
  1.660316899342888E-002  1.494285209408599E-002  1.328253519474311E-002
  1.162221829540022E-002  9.961901396057328E-003  8.301584496714441E-003
  6.641267597371552E-003  4.980950698028665E-003  3.320633798685776E-003
  1.660316899342887E-003  0.000000000000000E+000  1.660316899342888E-002
  1.494285209408599E-002  1.328253519474311E-002  1.162221829540022E-002
  9.961901396057328E-003  8.301584496714441E-003  6.641267597371552E-003
  4.980950698028665E-003  3.320633798685776E-003  1.660316899342887E-003
  0.000000000000000E+000  1.660316899342888E-002  1.494285209408599E-002
  1.328253519474311E-002  1.162221829540022E-002  9.961901396057328E-003
  8.301584496714441E-003  6.641267597371552E-003  4.980950698028665E-003
  3.320633798685776E-003  1.660316899342887E-003  0.000000000000000E+000
  1.660316899342888E-002  1.494285209408599E-002  1.328253519474311E-002
  1.162221829540022E-002  9.961901396057328E-003  8.301584496714441E-003
  6.641267597371552E-003  4.980950698028665E-003  3.320633798685776E-003
  1.660316899342887E-003  0.000000000000000E+000  1.660316899342888E-002
  1.494285209408599E-002  1.328253519474311E-002  1.162221829540022E-002
  9.961901396057328E-003  8.301584496714441E-003  6.641267597371552E-003
  4.980950698028665E-003  3.320633798685776E-003  1.660316899342887E-003
  0.000000000000000E+000  1.660316899342888E-002  1.494285209408599E-002
  1.328253519474311E-002  1.162221829540022E-002  9.961901396057328E-003
  8.301584496714441E-003  6.641267597371552E-003  4.980950698028665E-003
  3.320633798685776E-003  1.660316899342887E-003  0.000000000000000E+000
  1.660316899342888E-002  1.494285209408599E-002  1.328253519474311E-002
  1.162221829540022E-002  9.961901396057328E-003  8.301584496714441E-003
  6.641267597371552E-003  4.980950698028665E-003  3.320633798685776E-003
  1.660316899342887E-003  0.000000000000000E+000  1.660316899342888E-002
  1.494285209408599E-002  1.328253519474311E-002  1.162221829540022E-002
  9.961901396057328E-003  8.301584496714441E-003  6.641267597371552E-003
  4.980950698028665E-003  3.320633798685776E-003  1.660316899342887E-003
  0.000000000000000E+000  1.660316899342888E-002  1.494285209408599E-002
  1.328253519474311E-002  1.162221829540022E-002  9.961901396057328E-003
  8.301584496714441E-003  6.641267597371552E-003  4.980950698028665E-003
  3.320633798685776E-003  1.660316899342887E-003  0.000000000000000E+000
  1.660316899342888E-002  1.494285209408599E-002  1.328253519474311E-002
  1.162221829540022E-002  9.961901396057328E-003  8.301584496714441E-003
  6.641267597371552E-003  4.980950698028665E-003  3.320633798685776E-003
  1.660316899342887E-003  0.000000000000000E+000  1.660316899342888E-002
  1.494285209408599E-002  1.328253519474311E-002  1.162221829540022E-002
  9.961901396057328E-003  8.301584496714441E-003  6.641267597371552E-003
  4.980950698028665E-003  3.320633798685776E-003  1.660316899342887E-003
  0.000000000000000E+000  1.660316899342888E-002  1.494285209408599E-002
  1.328253519474311E-002  1.162221829540022E-002  9.961901396057328E-003
  8.301584496714441E-003  6.641267597371552E-003  4.980950698028665E-003
  3.320633798685776E-003  1.660316899342887E-003  0.000000000000000E+000
  1.660316899342888E-002  1.494285209408599E-002  1.328253519474311E-002
  1.162221829540022E-002  9.961901396057328E-003  8.301584496714441E-003
  6.641267597371552E-003  4.980950698028665E-003  3.320633798685776E-003
  1.660316899342887E-003  0.000000000000000E+000  1.660316899342888E-002
  1.494285209408599E-002  1.328253519474311E-002  1.162221829540022E-002
  9.961901396057328E-003  8.301584496714441E-003  6.641267597371552E-003
  4.980950698028665E-003  3.320633798685776E-003  1.660316899342887E-003
  0.000000000000000E+000  1.660316899342888E-002  1.494285209408599E-002
  1.328253519474311E-002  1.162221829540022E-002  9.961901396057328E-003
  8.301584496714441E-003  6.641267597371552E-003  4.980950698028665E-003
  3.320633798685776E-003  1.660316899342887E-003  0.000000000000000E+000
  1.660316899342888E-002  1.494285209408599E-002  1.328253519474311E-002
  1.162221829540022E-002  9.961901396057328E-003  8.301584496714441E-003
  6.641267597371552E-003  4.980950698028665E-003  3.320633798685776E-003
  1.660316899342887E-003  0.000000000000000E+000  1.660316899342888E-002
  1.494285209408599E-002  1.328253519474311E-002  1.162221829540022E-002
  9.961901396057328E-003  8.301584496714441E-003  6.641267597371552E-003
  4.980950698028665E-003  3.320633798685776E-003  1.660316899342887E-003
  0.000000000000000E+000  1.660316899342888E-002  1.494285209408599E-002
  1.328253519474311E-002  1.162221829540022E-002  9.961901396057328E-003
  8.301584496714441E-003  6.641267597371552E-003  4.980950698028665E-003
  3.320633798685776E-003  1.660316899342887E-003  0.000000000000000E+000
  1.660316899342888E-002  1.494285209408599E-002  1.328253519474311E-002
  1.162221829540022E-002  9.961901396057328E-003  8.301584496714441E-003
  6.641267597371552E-003  4.980950698028665E-003  3.320633798685776E-003
  1.660316899342887E-003  0.000000000000000E+000  1.660316899342888E-002
  1.494285209408599E-002  1.328253519474311E-002  1.162221829540022E-002
  9.961901396057328E-003  8.301584496714441E-003  6.641267597371552E-003
  4.980950698028665E-003  3.320633798685776E-003  1.660316899342887E-003
  0.000000000000000E+000  1.660316899342888E-002  1.494285209408599E-002
  1.328253519474311E-002  1.162221829540022E-002  9.961901396057328E-003
  8.301584496714441E-003  6.641267597371552E-003  4.980950698028665E-003
  3.320633798685776E-003  1.660316899342887E-003  0.000000000000000E+000
  1.660316899342888E-002  1.494285209408599E-002  1.328253519474311E-002
  1.162221829540022E-002  9.961901396057328E-003  8.301584496714441E-003
  6.641267597371552E-003  4.980950698028665E-003  3.320633798685776E-003
  1.660316899342887E-003  0.000000000000000E+000  1.660316899342888E-002
  1.494285209408599E-002  1.328253519474311E-002  1.162221829540022E-002
  9.961901396057328E-003  8.301584496714441E-003  6.641267597371552E-003
  4.980950698028665E-003  3.320633798685776E-003  1.660316899342887E-003
  0.000000000000000E+000
  7.823046341339522E-002  0.112995220378171       0.140471408594009     
  0.164152999860939       0.184888608564784       0.202704683328794     
  0.217860390070945       0.230423236180500       0.240329082490295     
  0.247814359477651       0.127249793969672       0.186969002798100     
  0.233693385154152       0.273798256565459       0.308808921323144     
  0.338892689664342       0.364486549559221       0.385725662710639     
  0.402637335448267       0.416293052736306       0.160391028389793     
  0.242754754582847       0.307232562310113       0.362312745472393     
  0.410140156733845       0.451281024272592       0.486270827080688     
  0.515214449331148       0.538007219470029       0.554961795851130     
  0.172785865518950       0.268011316925762       0.344169052055208     
  0.409571747447043       0.466346344657766       0.515234787710252     
  0.556475818371783       0.590030720649813       0.615918931233899     
  0.633698531474158       0.168153653292646       0.264668943796926     
  0.343834731921993       0.412847023282225       0.473370026266077     
  0.525570387998214       0.569655019222727       0.605351996024281     
  0.632374248563912       0.649489128238741       0.156226262223520     
  0.247038446124153       0.322135942320377       0.388152596420215     
  0.446478504966475       0.497157656078965       0.540388429031481     
  0.575536783125742       0.602049900508836       0.618744668669621     
  0.147928758729105       0.232740341422526       0.302214901430620     
  0.362874784522530       0.416342147555954       0.463011199897815     
  0.502896821131126       0.535711739431329       0.560828644105970     
  0.576834291419104       0.152602236879590       0.236168877467027     
  0.302640196913473       0.359677125614166       0.409604568616194     
  0.453195965432088       0.490576906555699       0.521511391668241     
  0.545416301631157       0.560893762600053       0.171577698411558     
  0.261182564638180       0.330045262518976       0.387702058245219     
  0.437314507968291       0.480133644431506       0.516612081981032     
  0.546758124604742       0.570144552495888       0.585427529443107     
  0.200742182933580       0.301947572531533       0.377517256652203     
  0.439326331728835       0.491529931414803       0.535953324887913     
  0.573426744643729       0.604214892629026       0.628057478952397     
  0.643678749824366       0.235882896836761       0.352104308484410     
  0.437166150020276       0.505551633785889       0.562473570671789     
  0.610335009903434       0.650330294362776       0.682962822867592     
  0.708117003049451       0.724565219041912       0.274294852228128     
  0.407503930751732       0.503728555174491       0.580179428852880     
  0.643149222455083       0.695612315808060       0.739109804806561     
  0.774368290865979       0.801413127713171       0.819049156431086     
  0.314472702638110       0.465775384968277       0.574120321186806     
  0.659503459874830       0.729305543415235       0.787066021660075     
  0.834665355572450       0.873047072166430       0.902363704375403     
  0.921433688644777       0.356058123537492       0.526264354256681     
  0.647388367635559       0.742269253842857       0.819394376127868     
  0.882880410817167       0.934950900415362       0.976764825381763     
   1.00860162641543        1.02928847288155       0.400482062948070     
  0.590861399655253       0.725582198757961       0.830520300988418     
  0.915353578244779       0.984830900375663        1.04156262774873     
   1.08695687246663        1.12144766889161        1.14389008464587     
  0.452036514008288       0.665318483696215       0.815086918193526     
  0.930844820746588        1.02372879023984        1.09928339641658     
   1.16062765621328        1.20951255595351        1.24659832387066     
   1.27082818914165       0.518728447186908       0.760012598125973     
  0.927089981431911        1.05452085426416        1.15553472526267     
   1.23682595006314        1.30224134834629        1.35403322132404     
   1.39320856865919        1.41890210623210       0.608033648274757     
  0.883923333819783        1.07057273795463        1.20996045788075     
   1.31840828868872        1.40427540212545        1.47242041932301     
   1.52575852772230        1.56575468868333        1.59185432975435     
  0.709566777557725        1.02197324454189        1.22737378298675     
   1.37679059765108        1.49031249629140        1.57830538041616     
   1.64682057703957        1.69951353298288        1.73831987944512     
   1.76306514609719       0.791141359188695        1.12921174932510     
   1.34493292154144        1.49741330461177        1.61018889670106     
   1.69545532629530        1.76032124777510        1.80907855644191     
   1.84404313406261        1.86546394180767       0.826435028191817     
   1.16725741445255        1.37736467217373        1.52135842404681     
   1.62503433099002        1.70157725451378        1.75849979861409     
   1.80021996623152        1.82910006584533        1.84571588845516     
  0.804291158677841        1.11828500271744        1.30346622443252     
   1.42649852455823        1.51322040746654        1.57623823843538     
   1.62241255206852        1.65560689321958        1.67778822871967     
   1.68947181246697       0.718525509302282       0.973994819846274     
   1.11759995239629        1.21108084321022        1.27639399036779     
   1.32365260361108        1.35818964960189        1.38298493759633     
   1.39962674446047        1.40868120282476       0.561377950110832     
  0.735190647658064       0.831019668803816       0.893395916014276     
  0.937096806584876       0.968830542413262       0.992149792305085     
   1.00911169096364        1.02107811888316        1.02991920084102     
  0.344116168649188       0.441423939863236       0.495526899856317     
  0.530932101362224       0.555825308233853       0.573949901848797     
  0.587298150521459       0.597007952301093       0.603726159404684     
  0.607700772475904     
  0.000000000000000E+000  0.000000000000000E+000  0.000000000000000E+000
  0.000000000000000E+000  0.000000000000000E+000  0.000000000000000E+000
  0.000000000000000E+000  0.000000000000000E+000  0.000000000000000E+000
  0.000000000000000E+000  0.000000000000000E+000  0.000000000000000E+000
  0.000000000000000E+000  0.000000000000000E+000  0.000000000000000E+000
  0.000000000000000E+000  0.000000000000000E+000  0.000000000000000E+000
  0.000000000000000E+000  0.000000000000000E+000  0.000000000000000E+000
  0.000000000000000E+000  0.000000000000000E+000  0.000000000000000E+000
  0.000000000000000E+000  0.000000000000000E+000  0.000000000000000E+000
  0.000000000000000E+000  0.000000000000000E+000  0.000000000000000E+000
  0.000000000000000E+000  0.000000000000000E+000  0.000000000000000E+000
  0.000000000000000E+000  0.000000000000000E+000  0.000000000000000E+000
  0.000000000000000E+000  0.000000000000000E+000  0.000000000000000E+000
  0.000000000000000E+000  0.000000000000000E+000  0.000000000000000E+000
  0.000000000000000E+000  0.000000000000000E+000  0.000000000000000E+000
  0.000000000000000E+000  0.000000000000000E+000  0.000000000000000E+000
  0.000000000000000E+000  0.000000000000000E+000  0.000000000000000E+000
  0.000000000000000E+000  0.000000000000000E+000  0.000000000000000E+000
  0.000000000000000E+000  0.000000000000000E+000  0.000000000000000E+000
  0.000000000000000E+000  0.000000000000000E+000  0.000000000000000E+000
  0.000000000000000E+000  0.000000000000000E+000  0.000000000000000E+000
  0.000000000000000E+000  0.000000000000000E+000  0.000000000000000E+000
  0.000000000000000E+000  0.000000000000000E+000  0.000000000000000E+000
  0.000000000000000E+000  0.000000000000000E+000  0.000000000000000E+000
  0.000000000000000E+000  0.000000000000000E+000  0.000000000000000E+000
  0.000000000000000E+000  0.000000000000000E+000  0.000000000000000E+000
  0.000000000000000E+000  0.000000000000000E+000  0.000000000000000E+000
  0.000000000000000E+000  0.000000000000000E+000  0.000000000000000E+000
  0.000000000000000E+000  0.000000000000000E+000  0.000000000000000E+000
  0.000000000000000E+000  0.000000000000000E+000  0.000000000000000E+000
  0.000000000000000E+000  0.000000000000000E+000  0.000000000000000E+000
  0.000000000000000E+000  0.000000000000000E+000  0.000000000000000E+000
  0.000000000000000E+000  0.000000000000000E+000  0.000000000000000E+000
  0.000000000000000E+000  0.000000000000000E+000  0.000000000000000E+000
  0.000000000000000E+000  0.000000000000000E+000  0.000000000000000E+000
  0.000000000000000E+000  0.000000000000000E+000  0.000000000000000E+000
  0.000000000000000E+000  0.000000000000000E+000  0.000000000000000E+000
  0.000000000000000E+000  0.000000000000000E+000  0.000000000000000E+000
  0.000000000000000E+000  0.000000000000000E+000  0.000000000000000E+000