 Title = "Wing and Wake"
 VARIABLES = "X" "Y" "Z" "GAM" "skew"
 Zone I=   11 J=   26 K=1  T="Blade"
 DATAPACKING=BLOCK
 VARLOCATION=([4]=CELLCENTERED,[5]=CELLCENTERED)
 -0.197409823923708      -0.178448196666260      -0.159486569408811     
 -0.140524942151363      -0.121563314893914      -0.102601687636465     
 -8.364006037901706E-002 -6.467843312156844E-002 -4.571680586412002E-002
 -2.675517860667133E-002 -7.793551349222726E-003 -0.197563423258917     
 -0.178601796001468      -0.159640168744020      -0.140678541486572     
 -0.121716914229123      -0.102755286971675      -8.379365971422598E-002
 -6.483203245677732E-002 -4.587040519932867E-002 -2.690877794188020E-002
 -7.947150684431647E-003 -0.198021798911272      -0.179060171653823     
 -0.160098544396375      -0.141136917138926      -0.122175289881477     
 -0.103213662624029      -8.425203536658039E-002 -6.529040810913200E-002
 -4.632878085168329E-002 -2.736715359423484E-002 -8.405526336786245E-003
 -0.198777722022914      -0.179816094765466      -0.160854467508017     
 -0.141892840250569      -0.122931212993120      -0.103969585735671     
 -8.500795847822262E-002 -6.604633122077422E-002 -4.708470396332578E-002
 -2.812307670587723E-002 -9.161449448428727E-003 -0.199819271234807     
 -0.180857643977358      -0.161896016719910      -0.142934389462461     
 -0.123972762205013      -0.105011134947564      -8.604950769011588E-002
 -6.708788043266718E-002 -4.812625317521854E-002 -2.916462591776999E-002
 -1.020299866032156E-002 -0.201130020693688      -0.182168393436239     
 -0.163206766178790      -0.144245138921342      -0.125283511663893     
 -0.106321884406445      -8.736025714899635E-002 -6.839862989154791E-002
 -4.943700263409927E-002 -3.047537537665061E-002 -1.151374811920196E-002
 -0.202689299097586      -0.183727671840137      -0.164766044582688     
 -0.145804417325240      -0.126842790067791      -0.107881162810343     
 -8.891953555289425E-002 -6.995790829544561E-002 -5.099628103799680E-002
 -3.203465378054854E-002 -1.307302652310004E-002 -0.204472515694604     
 -0.185510888437155      -0.166549261179707      -0.147587633922258     
 -0.128626006664810      -0.109664379407361      -9.070275214991241E-002
 -7.174112489246366E-002 -5.277949763501490E-002 -3.381787037756672E-002
 -1.485624312011802E-002 -0.206451548093764      -0.187489920836316     
 -0.168528293578868      -0.149566666321419      -0.130605039063971     
 -0.111643411806522      -9.268178454907329E-002 -7.372015729162493E-002
 -5.475853003417624E-002 -3.579690277672778E-002 -1.683527551927946E-002
 -0.208595185771918      -0.189633558514469      -0.170671931257020     
 -0.151710303999572      -0.132748676742123      -0.113787049484675     
 -9.482542222722658E-002 -7.586379496977799E-002 -5.690216771232930E-002
 -3.794054045488075E-002 -1.897891319743232E-002 -0.210869622282331     
 -0.191907995024883      -0.172946367767434      -0.153984740509985     
 -0.135023113252537      -0.116061485995088      -9.709985873763953E-002
 -7.813823148019078E-002 -5.917660422274260E-002 -4.021497696529386E-002
 -2.125334970784548E-002 -0.213238988402553      -0.194277361145104     
 -0.175315733887655      -0.156354106630207      -0.137392479372759     
 -0.118430852115309      -9.946922485786128E-002 -8.050759760041250E-002
 -6.154597034296388E-002 -4.258434308551571E-002 -2.362271582806724E-002
 -0.215665917813476      -0.196704290556027      -0.177742663298579     
 -0.158781036041130      -0.139819408783681      -0.120857781526233     
 -0.101896154268785      -8.293452701133618E-002 -6.397289975388726E-002
 -4.501127249643939E-002 -2.604964523899041E-002 -0.218112136388514     
 -0.199150509131065      -0.180188881873617      -0.161227254616168     
 -0.142265627358720      -0.123304000101271      -0.104342372843822     
 -8.538074558637399E-002 -6.641911832892557E-002 -4.745749107147616E-002
 -2.849586381402837E-002 -0.220539065799438      -0.201577438541989     
 -0.182615811284540      -0.163654184027092      -0.144692556769643     
 -0.125730929512195      -0.106769302254746      -8.780767499729755E-002
 -6.884604773984859E-002 -4.988442048240040E-002 -3.092279322495168E-002
 -0.222908431919659      -0.203946804662210      -0.184985177404762     
 -0.166023550147313      -0.147061922889864      -0.128100295632416     
 -0.109138668374968      -9.017704111751887E-002 -7.121541386007055E-002
 -5.225378660262153E-002 -3.329215934517330E-002 -0.225182868430072     
 -0.206221241172624      -0.187259613915175      -0.168297986657726     
 -0.149336359400278      -0.130374732142830      -0.111413104885380     
 -9.245147762793172E-002 -7.348985037048386E-002 -5.452822311303474E-002
 -3.556659585558671E-002 -0.227326506108225      -0.208364878850776     
 -0.189403251593329      -0.170441624335879      -0.151479997078431     
 -0.132518369820982      -0.113556742563534      -9.459511530608541E-002
 -7.563348804863650E-002 -5.667186079118817E-002 -3.771023353373979E-002
 -0.229305538507387      -0.210343911249938      -0.191382283992489     
 -0.172420656735041      -0.153459029477592      -0.134497402220144     
 -0.115535774962695      -9.657414770524621E-002 -7.761252044779741E-002
 -5.865089319034953E-002 -3.968926593290106E-002 -0.231088755104405     
 -0.212127127846956      -0.193165500589507      -0.174203873332059     
 -0.155242246074611      -0.136280618817161      -0.117318991559713     
 -9.835736430226420E-002 -7.939573704481610E-002 -6.043410978736714E-002
 -4.147248252991861E-002 -0.232648033508302      -0.213686406250853     
 -0.194724778993406      -0.175763151735957      -0.156801524478509     
 -0.137839897221060      -0.118878269963611      -9.991664270616268E-002
 -8.095501544871372E-002 -6.199338819126509E-002 -4.303176093381664E-002
 -0.233958782967183      -0.214997155709734      -0.196035528452286     
 -0.177073901194838      -0.158112273937389      -0.139150646679940     
 -0.120189019422491      -0.101227392165042      -8.226576490759464E-002
 -6.330413765014618E-002 -4.434251039269666E-002 -0.235000332179076     
 -0.216038704921627      -0.197077077664179      -0.178115450406730     
 -0.159153823149281      -0.140192195891834      -0.121230568634385     
 -0.102268941376936      -8.330731411948741E-002 -6.434568686203868E-002
 -4.538405960459000E-002 -0.235756255290719      -0.216794628033269     
 -0.197833000775821      -0.178871373518372      -0.159909746260924     
 -0.140948119003475      -0.121986491746027      -0.103024864488578     
 -8.406323723112978E-002 -6.510160997368089E-002 -4.613998271623279E-002
 -0.236214630943072      -0.217253003685624      -0.198291376428175     
 -0.179329749170727      -0.160368121913278      -0.141406494655829     
 -0.122444867398381      -0.103483240140932      -8.452161288348436E-002
 -6.555998562603640E-002 -4.659835836858707E-002 -0.236368230278281     
 -0.217406603020833      -0.198444975763384      -0.179483348505936     
 -0.160521721248487      -0.141560093991040      -0.122598466733590     
 -0.103636839476141      -8.467521221869320E-002 -6.571358496124437E-002
 -4.675195770379612E-002
  0.182616301981493       0.183392536187992       0.184168770394491     
  0.184945004600990       0.185721238807488       0.186497473013987     
  0.187273707220486       0.188049941426985       0.188826175633484     
  0.189602409839982       0.190378644046482       0.186368382625245     
  0.187144616831744       0.187920851038243       0.188697085244742     
  0.189473319451241       0.190249553657739       0.191025787864238     
  0.191802022070737       0.192578256277236       0.193354490483735     
  0.194130724690234       0.197565452003365       0.198341686209864     
  0.199117920416363       0.199894154622861       0.200670388829360     
  0.201446623035859       0.202222857242358       0.202999091448857     
  0.203775325655356       0.204551559861855       0.205327794068354     
  0.216030925642955       0.216807159849454       0.217583394055953     
  0.218359628262452       0.219135862468951       0.219912096675449     
  0.220688330881948       0.221464565088447       0.222240799294946     
  0.223017033501445       0.223793267707944       0.241473591993980     
  0.242249826200478       0.243026060406977       0.243802294613476     
  0.244578528819975       0.245354763026474       0.246130997232973     
  0.246907231439472       0.247683465645970       0.248459699852469     
  0.249235934058968       0.273492205009370       0.274268439215869     
  0.275044673422368       0.275820907628867       0.276597141835366     
  0.277373376041865       0.278149610248363       0.278925844454862     
  0.279702078661361       0.280478312867860       0.281254547074359     
  0.311581812034883       0.312358046241381       0.313134280447880     
  0.313910514654379       0.314686748860878       0.315462983067377     
  0.316239217273875       0.317015451480375       0.317791685686873     
  0.318567919893372       0.319344154099871       0.355141717214096     
  0.355917951420595       0.356694185627094       0.357470419833593     
  0.358246654040091       0.359022888246590       0.359799122453089     
  0.360575356659588       0.361351590866087       0.362127825072586     
  0.362904059279085       0.403484954820908       0.404261189027407     
  0.405037423233905       0.405813657440405       0.406589891646903     
  0.407366125853402       0.408142360059901       0.408918594266399     
  0.409694828472899       0.410471062679398       0.411247296885896     
  0.455849123119409       0.456625357325907       0.457401591532406     
  0.458177825738905       0.458954059945404       0.459730294151903     
  0.460506528358401       0.461282762564900       0.462058996771399     
  0.462835230977899       0.463611465184397       0.511408407894693     
  0.512184642101192       0.512960876307691       0.513737110514189     
  0.514513344720688       0.515289578927187       0.516065813133686     
  0.516842047340184       0.517618281546684       0.518394515753183     
  0.519170749959681       0.569286606036346       0.570062840242846     
  0.570839074449344       0.571615308655843       0.572391542862343     
  0.573167777068841       0.573944011275340       0.574720245481839     
  0.575496479688337       0.576272713894836       0.577048948101336     
  0.628570943784915       0.629347177991415       0.630123412197914     
  0.630899646404412       0.631675880610911       0.632452114817410     
  0.633228349023910       0.634004583230408       0.634780817436907     
  0.635557051643406       0.636333285849905       0.688326471719360     
  0.689102705925859       0.689878940132358       0.690655174338857     
  0.691431408545355       0.692207642751854       0.692983876958353     
  0.693760111164852       0.694536345371351       0.695312579577850     
  0.696088813784348       0.747610809467930       0.748387043674428     
  0.749163277880927       0.749939512087426       0.750715746293925     
  0.751491980500424       0.752268214706922       0.753044448913422     
  0.753820683119920       0.754596917326419       0.755373151532919     
  0.805489007609583       0.806265241816082       0.807041476022581     
  0.807817710229080       0.808593944435579       0.809370178642077     
  0.810146412848576       0.810922647055076       0.811698881261575     
  0.812475115468072       0.813251349674572       0.861048292384868     
  0.861824526591367       0.862600760797865       0.863376995004364     
  0.864153229210863       0.864929463417362       0.865705697623861     
  0.866481931830359       0.867258166036859       0.868034400243356     
  0.868810634449856       0.913412460683368       0.914188694889867     
  0.914964929096366       0.915741163302865       0.916517397509363     
  0.917293631715862       0.918069865922360       0.918846100128859     
  0.919622334335358       0.920398568541858       0.921174802748356     
  0.961755698290179       0.962531932496678       0.963308166703177     
  0.964084400909678       0.964860635116175       0.965636869322674     
  0.966413103529173       0.967189337735672       0.967965571942171     
  0.968741806148669       0.969518040355168        1.00531560346939     
   1.00609183767589        1.00686807188239        1.00764430608889     
   1.00842054029539        1.00919677450189        1.00997300870839     
   1.01074924291489        1.01152547712138        1.01230171132788     
   1.01307794553438        1.04340521049491        1.04418144470140     
   1.04495767890790        1.04573391311440        1.04651014732090     
   1.04728638152740        1.04806261573390        1.04883884994040     
   1.04961508414690        1.05039131835339        1.05116755255989     
   1.07542382351030        1.07620005771680        1.07697629192329     
   1.07775252612979        1.07852876033629        1.07930499454279     
   1.08008122874929        1.08085746295579        1.08163369716229     
   1.08240993136879        1.08318616557529        1.10086648986132     
   1.10164272406782        1.10241895827432        1.10319519248082     
   1.10397142668732        1.10474766089381        1.10552389510031     
   1.10630012930681        1.10707636351331        1.10785259771981     
   1.10862883192631        1.11933196350091        1.12010819770741     
   1.12088443191391        1.12166066612041        1.12243690032691     
   1.12321313453341        1.12398936873990        1.12476560294640     
   1.12554183715290        1.12631807135940        1.12709430556590     
   1.13052903287903        1.13130526708553        1.13208150129203     
   1.13285773549853        1.13363396970503        1.13441020391152     
   1.13518643811802        1.13596267232452        1.13673890653102     
   1.13751514073752        1.13829137494402        1.13428111352278     
   1.13505734772928        1.13583358193578        1.13660981614228     
   1.13738605034878        1.13816228455528        1.13893851876178     
   1.13971475296828        1.14049098717477        1.14126722138127     
   1.14204345558777     
  1.660316899342888E-002  1.494285209408599E-002  1.328253519474311E-002
  1.162221829540022E-002  9.961901396057328E-003  8.301584496714441E-003
  6.641267597371552E-003  4.980950698028665E-003  3.320633798685776E-003
  1.660316899342887E-003  0.000000000000000E+000  1.660316899342888E-002
  1.494285209408599E-002  1.328253519474311E-002  1.162221829540022E-002
  9.961901396057328E-003  8.301584496714441E-003  6.641267597371552E-003
  4.980950698028665E-003  3.320633798685776E-003  1.660316899342887E-003
  0.000000000000000E+000  1.660316899342888E-002  1.494285209408599E-002
  1.328253519474311E-002  1.162221829540022E-002  9.961901396057328E-003
  8.301584496714441E-003  6.641267597371552E-003  4.980950698028665E-003
  3.320633798685776E-003  1.660316899342887E-003  0.000000000000000E+000
  1.660316899342888E-002  1.494285209408599E-002  1.328253519474311E-002
  1.162221829540022E-002  9.961901396057328E-003  8.301584496714441E-003
  6.641267597371552E-003  4.980950698028665E-003  3.320633798685776E-003
  1.660316899342887E-003  0.000000000000000E+000  1.660316899342888E-002
  1.494285209408599E-002  1.328253519474311E-002  1.162221829540022E-002
  9.961901396057328E-003  8.301584496714441E-003  6.641267597371552E-003
  4.980950698028665E-003  3.320633798685776E-003  1.660316899342887E-003
  0.000000000000000E+000  1.660316899342888E-002  1.494285209408599E-002
  1.328253519474311E-002  1.162221829540022E-002  9.961901396057328E-003
  8.301584496714441E-003  6.641267597371552E-003  4.980950698028665E-003
  3.320633798685776E-003  1.660316899342887E-003  0.000000000000000E+000
  1.660316899342888E-002  1.494285209408599E-002  1.328253519474311E-002
  1.162221829540022E-002  9.961901396057328E-003  8.301584496714441E-003
  6.641267597371552E-003  4.980950698028665E-003  3.320633798685776E-003
  1.660316899342887E-003  0.000000000000000E+000  1.660316899342888E-002
  1.494285209408599E-002  1.328253519474311E-002  1.162221829540022E-002
  9.961901396057328E-003  8.301584496714441E-003  6.641267597371552E-003
  4.980950698028665E-003  3.320633798685776E-003  1.660316899342887E-003
  0.000000000000000E+000  1.660316899342888E-002  1.494285209408599E-002
  1.328253519474311E-002  1.162221829540022E-002  9.961901396057328E-003
  8.301584496714441E-003  6.641267597371552E-003  4.980950698028665E-003
  3.320633798685776E-003  1.660316899342887E-003  0.000000000000000E+000
  1.660316899342888E-002  1.494285209408599E-002  1.328253519474311E-002
  1.162221829540022E-002  9.961901396057328E-003  8.301584496714441E-003
  6.641267597371552E-003  4.980950698028665E-003  3.320633798685776E-003
  1.660316899342887E-003  0.000000000000000E+000  1.660316899342888E-002
  1.494285209408599E-002  1.328253519474311E-002  1.162221829540022E-002
  9.961901396057328E-003  8.301584496714441E-003  6.641267597371552E-003
  4.980950698028665E-003  3.320633798685776E-003  1.660316899342887E-003
  0.000000000000000E+000  1.660316899342888E-002  1.494285209408599E-002
  1.328253519474311E-002  1.162221829540022E-002  9.961901396057328E-003
  8.301584496714441E-003  6.641267597371552E-003  4.980950698028665E-003
  3.320633798685776E-003  1.660316899342887E-003  0.000000000000000E+000
  1.660316899342888E-002  1.494285209408599E-002  1.328253519474311E-002
  1.162221829540022E-002  9.961901396057328E-003  8.301584496714441E-003
  6.641267597371552E-003  4.980950698028665E-003  3.320633798685776E-003
  1.660316899342887E-003  0.000000000000000E+000  1.660316899342888E-002
  1.494285209408599E-002  1.328253519474311E-002  1.162221829540022E-002
  9.961901396057328E-003  8.301584496714441E-003  6.641267597371552E-003
  4.980950698028665E-003  3.320633798685776E-003  1.660316899342887E-003
  0.000000000000000E+000  1.660316899342888E-002  1.494285209408599E-002
  1.328253519474311E-002  1.162221829540022E-002  9.961901396057328E-003
  8.301584496714441E-003  6.641267597371552E-003  4.980950698028665E-003
  3.320633798685776E-003  1.660316899342887E-003  0.000000000000000E+000
  1.660316899342888E-002  1.494285209408599E-002  1.328253519474311E-002
  1.162221829540022E-002  9.961901396057328E-003  8.301584496714441E-003
  6.641267597371552E-003  4.980950698028665E-003  3.320633798685776E-003
  1.660316899342887E-003  0.000000000000000E+000  1.660316899342888E-002
  1.494285209408599E-002  1.328253519474311E-002  1.162221829540022E-002
  9.961901396057328E-003  8.301584496714441E-003  6.641267597371552E-003
  4.980950698028665E-003  3.320633798685776E-003  1.660316899342887E-003
  0.000000000000000E+000  1.660316899342888E-002  1.494285209408599E-002
  1.328253519474311E-002  1.162221829540022E-002  9.961901396057328E-003
  8.301584496714441E-003  6.641267597371552E-003  4.980950698028665E-003
  3.320633798685776E-003  1.660316899342887E-003  0.000000000000000E+000
  1.660316899342888E-002  1.494285209408599E-002  1.328253519474311E-002
  1.162221829540022E-002  9.961901396057328E-003  8.301584496714441E-003
  6.641267597371552E-003  4.980950698028665E-003  3.320633798685776E-003
  1.660316899342887E-003  0.000000000000000E+000  1.660316899342888E-002
  1.494285209408599E-002  1.328253519474311E-002  1.162221829540022E-002
  9.961901396057328E-003  8.301584496714441E-003  6.641267597371552E-003
  4.980950698028665E-003  3.320633798685776E-003  1.660316899342887E-003
  0.000000000000000E+000  1.660316899342888E-002  1.494285209408599E-002
  1.328253519474311E-002  1.162221829540022E-002  9.961901396057328E-003
  8.301584496714441E-003  6.641267597371552E-003  4.980950698028665E-003
  3.320633798685776E-003  1.660316899342887E-003  0.000000000000000E+000
  1.660316899342888E-002  1.494285209408599E-002  1.328253519474311E-002
  1.162221829540022E-002  9.961901396057328E-003  8.301584496714441E-003
  6.641267597371552E-003  4.980950698028665E-003  3.320633798685776E-003
  1.660316899342887E-003  0.000000000000000E+000  1.660316899342888E-002
  1.494285209408599E-002  1.328253519474311E-002  1.162221829540022E-002
  9.961901396057328E-003  8.301584496714441E-003  6.641267597371552E-003
  4.980950698028665E-003  3.320633798685776E-003  1.660316899342887E-003
  0.000000000000000E+000  1.660316899342888E-002  1.494285209408599E-002
  1.328253519474311E-002  1.162221829540022E-002  9.961901396057328E-003
  8.301584496714441E-003  6.641267597371552E-003  4.980950698028665E-003
  3.320633798685776E-003  1.660316899342887E-003  0.000000000000000E+000
  1.660316899342888E-002  1.494285209408599E-002  1.328253519474311E-002
  1.162221829540022E-002  9.961901396057328E-003  8.301584496714441E-003
  6.641267597371552E-003  4.980950698028665E-003  3.320633798685776E-003
  1.660316899342887E-003  0.000000000000000E+000  1.660316899342888E-002
  1.494285209408599E-002  1.328253519474311E-002  1.162221829540022E-002
  9.961901396057328E-003  8.301584496714441E-003  6.641267597371552E-003
  4.980950698028665E-003  3.320633798685776E-003  1.660316899342887E-003
  0.000000000000000E+000
  5.429830872028731E-002  7.966573118030482E-002  0.100117875480611     
  0.117940954305700       0.133688952516282       0.147491077287347     
  0.159381650450429       0.169306597262609       0.177099834551652     
  0.182722268183172       8.864803967426767E-002  0.132123984450413     
  0.166832794984012       0.196976983776871       0.223554371015841     
  0.246806877013936       0.266796709785768       0.283486569254570     
  0.296768880373145       0.307028141707625       0.113001182468178     
  0.172863936178592       0.220554610893349       0.261834527966398     
  0.298151416754773       0.329861815873269       0.357034442107143     
  0.379627439543514       0.397497837041141       0.410343624375884     
  0.124687475231609       0.194422890430750       0.250768929404305     
  0.299673193905271       0.342687956331332       0.380183910962928     
  0.412147392939819       0.438430510333813       0.458818591429913     
  0.472642894615822       0.126808870984295       0.199738910430012     
  0.259438483140174       0.311516346776197       0.357426924905453     
  0.397506650612598       0.431683531737534       0.459685480125773     
  0.481077673798710       0.494900905775334       0.126094609481138     
  0.198539698480934       0.257825110064039       0.309563811550846     
  0.355264522725590       0.395252816750825       0.429389117173062     
  0.457371393261660       0.478794900817834       0.492631742952262     
  0.130058148014649       0.202837895453209       0.261431938345513     
  0.312032127388832       0.356438747771102       0.395189594460734     
  0.428332925403587       0.455694373209316       0.476854659044630     
  0.490680902782885       0.143138785211124       0.220077194079454     
  0.280335947055089       0.331400000272073       0.375674565114052     
  0.414081930831598       0.446912498082957       0.474103579361423     
  0.495250458107014       0.509156121795991       0.166119779035877     
  0.252041719955663       0.317446892198847       0.371716126793776     
  0.418043549159041       0.457783527721469       0.491504686717466     
  0.519318344547932       0.540908990663603       0.555080601408765     
  0.197465498758561       0.296611865794700       0.370296020551684     
  0.430264305776964       0.480668284924653       0.523370465762571     
  0.559247490822749       0.588613265922034       0.611269536010406     
  0.626030289596961       0.235070544883433       0.350644790586209     
  0.435009645468549       0.502629851291915       0.558733381267926     
  0.605746622944752       0.644884503569803       0.676669840964345     
  0.701009817205080       0.716718666516295       0.277326351756665     
  0.411744515679212       0.508620383990746       0.585388161783949     
  0.648436197176151       0.700791193787088       0.744021513711808     
  0.778868236169852       0.805357136508687       0.822293690338275     
  0.323231479760934       0.478367001684624       0.589158590303526     
  0.676208926265612       0.747132931687157       0.805587672644069     
  0.853517083130232       0.891892442696834       0.920862892913255     
  0.939226397398629       0.372604307385937       0.550143729377677     
  0.676052770515720       0.774309678934994       0.853837962451538     
  0.918971983932120       0.972053859904555        1.01430028493517     
   1.04599651871711        1.06594001782759       0.426670354208655     
  0.628677139959080       0.771024964876713       0.881400438059349     
  0.970171798367831        1.04243203439544        1.10098089587203     
   1.14732238562027        1.18190985081492        1.20356133133264     
  0.488609576281591       0.718220544988050       0.878779990855011     
   1.00230837008585        1.10089648180132        1.18056104437898     
   1.24468174410308        1.29514483373646        1.33264310490725     
   1.35607395854705       0.564376284139192       0.826427855815568     
   1.00746872858341        1.14512806108368        1.25379217593027     
   1.34072449461974        1.41008417870747        1.46428978509904     
   1.50439842066330        1.52949464233249       0.662485231321490     
  0.963210937700016        1.16669581102753        1.31862170089119     
   1.43669187358814        1.52991609911175        1.60348231019278     
   1.66047071566281        1.70240616631821        1.72869252516405     
  0.778472337182657        1.12062113255377        1.34561061440111     
   1.50961802543952        1.63459696460981        1.73169710002873     
   1.80730966387386        1.86524517288377        1.90751027279425     
   1.93387734571879       0.868070762727315        1.23893825382191     
   1.47608796366176        1.64446881446863        1.76976013894064     
   1.86507912514592        1.93792769983708        1.99275780975306     
   2.03199185558667        2.05588685309811       0.893971395109320     
   1.26460228587735        1.49459376254614        1.65345422919947     
   1.76883198909540        1.85475516980895        1.91911437969651     
   1.96648596886313        1.99934506424871        2.01836475516152     
  0.854691354297245        1.19202889829170        1.39322558742527     
   1.52840059334147        1.62472368826613        1.69543204064423     
   1.74768860263848        1.78548865612657        1.81087550158933     
   1.82447016172681       0.752303991993512        1.02429885281281     
   1.17957277190338        1.28203480481399        1.35449337642764     
   1.40748376121721        1.44655019340300        1.47476189555627     
   1.49375875803575        1.50421502960125       0.582089199314788     
  0.766507299545712       0.870022435574210       0.938387471341569     
  0.986876362263652        1.02245485957870        1.04880779636061     
   1.06804929866928        1.08159162488060        1.09148292807137     
  0.355486818498342       0.458727477094239       0.517190851763591     
  0.556012039407037       0.583641690470347       0.603963678430342     
  0.619042337343834       0.630044253268603       0.637635744760625     
  0.642114902276089     
  0.000000000000000E+000  0.000000000000000E+000  0.000000000000000E+000
  0.000000000000000E+000  0.000000000000000E+000  0.000000000000000E+000
  0.000000000000000E+000  0.000000000000000E+000  0.000000000000000E+000
  0.000000000000000E+000  0.000000000000000E+000  0.000000000000000E+000
  0.000000000000000E+000  0.000000000000000E+000  0.000000000000000E+000
  0.000000000000000E+000  0.000000000000000E+000  0.000000000000000E+000
  0.000000000000000E+000  0.000000000000000E+000  0.000000000000000E+000
  0.000000000000000E+000  0.000000000000000E+000  0.000000000000000E+000
  0.000000000000000E+000  0.000000000000000E+000  0.000000000000000E+000
  0.000000000000000E+000  0.000000000000000E+000  0.000000000000000E+000
  0.000000000000000E+000  0.000000000000000E+000  0.000000000000000E+000
  0.000000000000000E+000  0.000000000000000E+000  0.000000000000000E+000
  0.000000000000000E+000  0.000000000000000E+000  0.000000000000000E+000
  0.000000000000000E+000  0.000000000000000E+000  0.000000000000000E+000
  0.000000000000000E+000  0.000000000000000E+000  0.000000000000000E+000
  0.000000000000000E+000  0.000000000000000E+000  0.000000000000000E+000
  0.000000000000000E+000  0.000000000000000E+000  0.000000000000000E+000
  0.000000000000000E+000  0.000000000000000E+000  0.000000000000000E+000
  0.000000000000000E+000  0.000000000000000E+000  0.000000000000000E+000
  0.000000000000000E+000  0.000000000000000E+000  0.000000000000000E+000
  0.000000000000000E+000  0.000000000000000E+000  0.000000000000000E+000
  0.000000000000000E+000  0.000000000000000E+000  0.000000000000000E+000
  0.000000000000000E+000  0.000000000000000E+000  0.000000000000000E+000
  0.000000000000000E+000  0.000000000000000E+000  0.000000000000000E+000
  0.000000000000000E+000  0.000000000000000E+000  0.000000000000000E+000
  0.000000000000000E+000  0.000000000000000E+000  0.000000000000000E+000
  0.000000000000000E+000  0.000000000000000E+000  0.000000000000000E+000
  0.000000000000000E+000  0.000000000000000E+000  0.000000000000000E+000
  0.000000000000000E+000  0.000000000000000E+000  0.000000000000000E+000
  0.000000000000000E+000  0.000000000000000E+000  0.000000000000000E+000
  0.000000000000000E+000  0.000000000000000E+000  0.000000000000000E+000
  0.000000000000000E+000  0.000000000000000E+000  0.000000000000000E+000
  0.000000000000000E+000  0.000000000000000E+000  0.000000000000000E+000
  0.000000000000000E+000  0.000000000000000E+000  0.000000000000000E+000
  0.000000000000000E+000  0.000000000000000E+000  0.000000000000000E+000
  0.000000000000000E+000  0.000000000000000E+000  0.000000000000000E+000
  0.000000000000000E+000  0.000000000000000E+000  0.000000000000000E+000
  0.000000000000000E+000  0.000000000000000E+000  0.000000000000000E+000
  0.000000000000000E+000  0.000000000000000E+000  0.000000000000000E+000