 Title = "Wing and Wake"
 VARIABLES = "X" "Y" "Z" "GAM" "skew"
 Zone I=   11 J=   26 K=1  T="Blade"
 DATAPACKING=BLOCK
 VARLOCATION=([4]=CELLCENTERED,[5]=CELLCENTERED)
  0.182602524128081       0.183380081681662       0.184157639235244     
  0.184935196788826       0.185712754342407       0.186490311895989     
  0.187267869449571       0.188045427003152       0.188822984556734     
  0.189600542110315       0.190378099663897       0.186354594042860     
  0.187132151596442       0.187909709150023       0.188687266703605     
  0.189464824257186       0.190242381810768       0.191019939364350     
  0.191797496917931       0.192575054471513       0.193352612025094     
  0.194130169578676       0.197551631403263       0.198329188956845     
  0.199106746510426       0.199884304064007       0.200661861617589     
  0.201439419171171       0.202216976724752       0.202994534278334     
  0.203772091831916       0.204549649385497       0.205327206939079     
  0.216017052241331       0.216794609794912       0.217572167348494     
  0.218349724902075       0.219127282455657       0.219904840009238     
  0.220682397562820       0.221459955116401       0.222237512669983     
  0.223015070223565       0.223792627777146       0.241459645839739     
  0.242237203393320       0.243014760946901       0.243792318500483     
  0.244569876054065       0.245347433607646       0.246124991161228     
  0.246902548714810       0.247680106268391       0.248457663821973     
  0.249235221375555       0.273478167298771       0.274255724852353     
  0.275033282405934       0.275810839959516       0.276588397513098     
  0.277365955066679       0.278143512620260       0.278921070173843     
  0.279698627727424       0.280476185281006       0.281253742834587     
  0.311567665408082       0.312345222961663       0.313122780515245     
  0.313900338068827       0.314677895622409       0.315455453175990     
  0.316233010729571       0.317010568283154       0.317788125836735     
  0.318565683390317       0.319343240943898       0.355127446028924     
  0.355905003582506       0.356682561136088       0.357460118689669     
  0.358237676243251       0.359015233796833       0.359792791350414     
  0.360570348903996       0.361347906457577       0.362125464011159     
  0.362903021564741       0.403470545399555       0.404248102953138     
  0.405025660506719       0.405803218060301       0.406580775613882     
  0.407358333167464       0.408135890721046       0.408913448274627     
  0.409691005828209       0.410468563381790       0.411246120935372     
  0.455834563964134       0.456612121517714       0.457389679071296     
  0.458167236624878       0.458944794178459       0.459722351732041     
  0.460499909285623       0.461277466839204       0.462055024392786     
  0.462832581946368       0.463610139499949       0.511393689869145     
  0.512171247422727       0.512948804976309       0.513726362529890     
  0.514503920083471       0.515281477637053       0.516059035190635     
  0.516836592744215       0.517614150297798       0.518391707851380     
  0.519169265404961       0.569271722509656       0.570049280063239     
  0.570826837616819       0.571604395170401       0.572381952723983     
  0.573159510277565       0.573937067831146       0.574714625384728     
  0.575492182938309       0.576269740491891       0.577047298045473     
  0.628555890736264       0.629333448289848       0.630111005843429     
  0.630888563397010       0.631666120950591       0.632443678504173     
  0.633221236057756       0.633998793611337       0.634776351164918     
  0.635553908718500       0.636331466272082       0.688311247801393     
  0.689088805354975       0.689866362908557       0.690643920462138     
  0.691421478015718       0.692199035569300       0.692976593122882     
  0.693754150676465       0.694531708230046       0.695309265783628     
  0.696086823337209       0.747595416028002       0.748372973581584     
  0.749150531135164       0.749928088688747       0.750705646242328     
  0.751483203795909       0.752260761349491       0.753038318903073     
  0.753815876456655       0.754593434010236       0.755370991563819     
  0.805473448668513       0.806251006222094       0.807028563775677     
  0.807806121329259       0.808583678882839       0.809361236436420     
  0.810138793990002       0.810916351543586       0.811693909097167     
  0.812471466650747       0.813249024204330       0.861032574573525     
  0.861810132127107       0.862587689680687       0.863365247234270     
  0.864142804787852       0.864920362341433       0.865697919895015     
  0.866475477448596       0.867253035002179       0.868030592555759     
  0.868808150109342       0.913396593138102       0.914174150691684     
  0.914951708245266       0.915729265798848       0.916506823352428     
  0.917284380906011       0.918061938459591       0.918839496013173     
  0.919617053566755       0.920394611120338       0.921172168673918     
  0.961739692508733       0.962517250062314       0.963294807615897     
  0.964072365169479       0.964849922723060       0.965627480276641     
  0.966405037830224       0.967182595383805       0.967960152937387     
  0.968737710490968       0.969515268044550        1.00529947312958     
   1.00607703068316        1.00685458823674        1.00763214579032     
   1.00840970334390        1.00918726089748        1.00996481845107     
   1.01074237600465        1.01151993355823        1.01229749111181     
   1.01307504866539        1.04338897123889        1.04416652879247     
   1.04494408634605        1.04572164389963        1.04649920145321     
   1.04727675900679        1.04805431656038        1.04883187411396     
   1.04960943166754        1.05038698922112        1.05116454677470     
   1.07540749269792        1.07618505025150        1.07696260780508     
   1.07774016535866        1.07851772291224        1.07929528046583     
   1.08007283801941        1.08085039557299        1.08162795312657     
   1.08240551068015        1.08318306823374        1.10085008629633     
   1.10162764384991        1.10240520140349        1.10318275895707     
   1.10396031651065        1.10473787406424        1.10551543161782     
   1.10629298917140        1.10707054672498        1.10784810427856     
   1.10862566183214        1.11931550713440        1.12009306468798     
   1.12087062224156        1.12164817979514        1.12242573734872     
   1.12320329490231        1.12398085245588        1.12475841000947     
   1.12553596756305        1.12631352511663        1.12709108267021     
   1.13051254449480        1.13129010204838        1.13206765960196     
   1.13284521715554        1.13362277470912        1.13440033226270     
   1.13517788981629        1.13595544736987        1.13673300492345     
   1.13751056247703        1.13828812003061        1.13426461440958     
   1.13504217196316        1.13581972951674        1.13659728707032     
   1.13737484462390        1.13815240217749        1.13892995973107     
   1.13970751728465        1.14048507483823        1.14126263239181     
   1.14204018994539     
  0.197422568398445       0.178460995361257       0.159499422324069     
  0.140537849286881       0.121576276249692       0.102614703212504     
  8.365313017531595E-002  6.469155713812770E-002  4.572998410093962E-002
  2.676841106375130E-002  7.806838026563184E-003  0.197576429594353     
  0.178614856557165       0.159653283519977       0.140691710482789     
  0.121730137445601       0.102768564408412       8.380699137122420E-002
  6.484541833403604E-002  4.588384529684778E-002  2.692227225965972E-002
  7.960699222471335E-003  0.198035586699106       0.179074013661918     
  0.160112440624730       0.141150867587542       0.122189294550353     
  0.103227721513165       8.426614847597701E-002  6.530457543878894E-002
  4.634300240160073E-002  2.738142936441263E-002  8.419856327224492E-003
  0.198792798530875       0.179831225493687       0.160869652456499     
  0.141908079419310       0.122946506382122       0.103984933344934     
  8.502336030774538E-002  6.606178727055750E-002  4.710021423336942E-002
  2.813864119618116E-002  9.177068158993230E-003  0.199836123406736     
  0.180874550369547       0.161912977332359       0.142951404295171     
  0.123989831257983       0.105028258220794       8.606668518360658E-002
  6.710511214641837E-002  4.814353910923015E-002  2.918196607204190E-002
  1.022039303485382E-002  0.201149107470144       0.182187534432956     
  0.163225961395768       0.144264388358580       0.125302815321391     
  0.106341242284203       8.737966924701507E-002  6.841809620982710E-002
  4.945652317263870E-002  3.049495013545044E-002  1.153337709826211E-002
  0.202711044178082       0.183749471140894       0.164787898103706     
  0.145826325066518       0.126864752029329       0.107903178992141     
  8.894160595495293E-002  6.998003291776445E-002  5.101845988057602E-002
  3.205688684338846E-002  1.309531380620027E-002  0.204497300855609     
  0.185535727818421       0.166574154781233       0.147612581744045     
  0.128651008706856       0.109689435669668       9.072786263247999E-002
  7.176628959529170E-002  5.280471655810321E-002  3.384314352091539E-002
  1.488157048372726E-002  0.206479707167862       0.187518134130674     
  0.168556561093486       0.149594988056298       0.130633415019110     
  0.111671841981922       9.271026894473340E-002  7.374869590754543E-002
  5.478712287035731E-002  3.582554983316893E-002  1.686397679598119E-002
  0.208626999383067       0.189665426345878       0.170703853308690     
  0.151742280271502       0.132780707234314       0.113819134197126     
  9.485756115993772E-002  7.589598812274970E-002  5.693441508556118E-002
  3.797284204837306E-002  1.901126901118491E-002  0.210905313420257     
  0.191943740383069       0.172982167345881       0.154020594308692     
  0.135059021271504       0.116097448234316       9.713587519712774E-002
  7.817430215993885E-002  5.921272912275163E-002  4.025115608556305E-002
  2.128958304837521E-002  0.213278718906069       0.194317145868880     
  0.175355572831691       0.156393999794504       0.137432426757315     
  0.118470853720127       9.950928068293903E-002  8.054770764575073E-002
  6.158613460856264E-002  4.262456157137476E-002  2.366298853418656E-002
  0.215709785818185       0.196748212780998       0.177786639743809     
  0.158825066706621       0.139863493669432       0.120901920632245     
  0.101940347595057       8.297877455786810E-002  6.401720152067929E-002
  4.505562848349209E-002  2.609405544630338E-002  0.218160174779156     
  0.199198601741967       0.180237028704779       0.161275455667590     
  0.142313882630403       0.123352309593214       0.104390736556026     
  8.542916351883810E-002  6.646759048165052E-002  4.750601744446133E-002
  2.854444440727377E-002  0.220591241691273       0.201629668654085     
  0.182668095616896       0.163706522579709       0.144744949542521     
  0.125783376505332       0.106821803468144       8.786023043095610E-002
  6.889865739376710E-002  4.993708435657943E-002  3.097551131939129E-002
  0.222964647177084       0.204003074139895       0.185041501102708     
  0.166079928065519       0.147118355028331       0.128156781991143     
  0.109195208953955       9.023363591676681E-002  7.127206287957873E-002
  5.231048984238992E-002  3.334891680520231E-002  0.225242961214274     
  0.206281388177087       0.187319815139898       0.168358242102709     
  0.149396669065522       0.130435096028334       0.111473522991145     
  9.251194995395645E-002  7.355037691676987E-002  5.458880387958032E-002
  3.562723084239294E-002  0.227390253429478       0.208428680392290     
  0.189467107355102       0.170505534317913       0.151543961280726     
  0.132582388243537       0.113620815206349       9.465924216916075E-002
  7.569766913197258E-002  5.673609609478446E-002  3.777452305759686E-002
  0.229372659741732       0.210411086704543       0.191449513667355     
  0.172487940630167       0.153526367592980       0.134564794555791     
  0.115603221518603       9.664164848141434E-002  7.768007544422563E-002
  5.871850240703837E-002  3.975692936985058E-002  0.231158916419259     
  0.212197343382072       0.193235770344882       0.174274197307695     
  0.155312624270507       0.136351051233317       0.117389478196131     
  9.842790515894174E-002  7.946633212175394E-002  6.050475908456497E-002
  4.154318604737745E-002  0.232720853127197       0.213759280090008     
  0.194797707052821       0.175836134015633       0.156874560978445     
  0.137912987941256       0.118951414904067       9.998984186687988E-002
  8.102826882969082E-002  6.206669579250264E-002  4.310512275531507E-002
  0.234033837190606       0.215072264153417       0.196110691116229     
  0.177149118079041       0.158187545041853       0.139225972004664     
  0.120264398967476       0.101302825930287       8.234125289310053E-002
  6.337967985591243E-002  4.441810681872260E-002  0.235077162066467     
  0.216115589029278       0.197154015992090       0.178192442954900     
  0.159230869917713       0.140269296880526       0.121307723843338     
  0.102346150806149       8.338457776896106E-002  6.442300473177294E-002
  4.546143169458368E-002  0.235834373898236       0.216872800861046     
  0.197911227823859       0.178949654786670       0.159988081749482     
  0.141026508712293       0.122064935675107       0.103103362637917     
  8.414178960072982E-002  6.518021656354124E-002  4.621864352635247E-002
  0.236293531002987       0.217331957965799       0.198370384928611     
  0.179408811891423       0.160447238854235       0.141485665817047     
  0.122524092779859       0.103562519742670       8.460094670548218E-002
  6.563937366829521E-002  4.667780063110599E-002  0.236447392198895     
  0.217485819161708       0.198524246124520       0.179562673087331     
  0.160601100050144       0.141639527012956       0.122677953975767     
  0.103716380938578       8.475480790139039E-002  6.579323486420174E-002
  4.683166182701365E-002
  1.660316899342888E-002  1.494285209408599E-002  1.328253519474311E-002
  1.162221829540022E-002  9.961901396057328E-003  8.301584496714441E-003
  6.641267597371552E-003  4.980950698028665E-003  3.320633798685776E-003
  1.660316899342887E-003  0.000000000000000E+000  1.660316899342888E-002
  1.494285209408599E-002  1.328253519474311E-002  1.162221829540022E-002
  9.961901396057328E-003  8.301584496714441E-003  6.641267597371552E-003
  4.980950698028665E-003  3.320633798685776E-003  1.660316899342887E-003
  0.000000000000000E+000  1.660316899342888E-002  1.494285209408599E-002
  1.328253519474311E-002  1.162221829540022E-002  9.961901396057328E-003
  8.301584496714441E-003  6.641267597371552E-003  4.980950698028665E-003
  3.320633798685776E-003  1.660316899342887E-003  0.000000000000000E+000
  1.660316899342888E-002  1.494285209408599E-002  1.328253519474311E-002
  1.162221829540022E-002  9.961901396057328E-003  8.301584496714441E-003
  6.641267597371552E-003  4.980950698028665E-003  3.320633798685776E-003
  1.660316899342887E-003  0.000000000000000E+000  1.660316899342888E-002
  1.494285209408599E-002  1.328253519474311E-002  1.162221829540022E-002
  9.961901396057328E-003  8.301584496714441E-003  6.641267597371552E-003
  4.980950698028665E-003  3.320633798685776E-003  1.660316899342887E-003
  0.000000000000000E+000  1.660316899342888E-002  1.494285209408599E-002
  1.328253519474311E-002  1.162221829540022E-002  9.961901396057328E-003
  8.301584496714441E-003  6.641267597371552E-003  4.980950698028665E-003
  3.320633798685776E-003  1.660316899342887E-003  0.000000000000000E+000
  1.660316899342888E-002  1.494285209408599E-002  1.328253519474311E-002
  1.162221829540022E-002  9.961901396057328E-003  8.301584496714441E-003
  6.641267597371552E-003  4.980950698028665E-003  3.320633798685776E-003
  1.660316899342887E-003  0.000000000000000E+000  1.660316899342888E-002
  1.494285209408599E-002  1.328253519474311E-002  1.162221829540022E-002
  9.961901396057328E-003  8.301584496714441E-003  6.641267597371552E-003
  4.980950698028665E-003  3.320633798685776E-003  1.660316899342887E-003
  0.000000000000000E+000  1.660316899342888E-002  1.494285209408599E-002
  1.328253519474311E-002  1.162221829540022E-002  9.961901396057328E-003
  8.301584496714441E-003  6.641267597371552E-003  4.980950698028665E-003
  3.320633798685776E-003  1.660316899342887E-003  0.000000000000000E+000
  1.660316899342888E-002  1.494285209408599E-002  1.328253519474311E-002
  1.162221829540022E-002  9.961901396057328E-003  8.301584496714441E-003
  6.641267597371552E-003  4.980950698028665E-003  3.320633798685776E-003
  1.660316899342887E-003  0.000000000000000E+000  1.660316899342888E-002
  1.494285209408599E-002  1.328253519474311E-002  1.162221829540022E-002
  9.961901396057328E-003  8.301584496714441E-003  6.641267597371552E-003
  4.980950698028665E-003  3.320633798685776E-003  1.660316899342887E-003
  0.000000000000000E+000  1.660316899342888E-002  1.494285209408599E-002
  1.328253519474311E-002  1.162221829540022E-002  9.961901396057328E-003
  8.301584496714441E-003  6.641267597371552E-003  4.980950698028665E-003
  3.320633798685776E-003  1.660316899342887E-003  0.000000000000000E+000
  1.660316899342888E-002  1.494285209408599E-002  1.328253519474311E-002
  1.162221829540022E-002  9.961901396057328E-003  8.301584496714441E-003
  6.641267597371552E-003  4.980950698028665E-003  3.320633798685776E-003
  1.660316899342887E-003  0.000000000000000E+000  1.660316899342888E-002
  1.494285209408599E-002  1.328253519474311E-002  1.162221829540022E-002
  9.961901396057328E-003  8.301584496714441E-003  6.641267597371552E-003
  4.980950698028665E-003  3.320633798685776E-003  1.660316899342887E-003
  0.000000000000000E+000  1.660316899342888E-002  1.494285209408599E-002
  1.328253519474311E-002  1.162221829540022E-002  9.961901396057328E-003
  8.301584496714441E-003  6.641267597371552E-003  4.980950698028665E-003
  3.320633798685776E-003  1.660316899342887E-003  0.000000000000000E+000
  1.660316899342888E-002  1.494285209408599E-002  1.328253519474311E-002
  1.162221829540022E-002  9.961901396057328E-003  8.301584496714441E-003
  6.641267597371552E-003  4.980950698028665E-003  3.320633798685776E-003
  1.660316899342887E-003  0.000000000000000E+000  1.660316899342888E-002
  1.494285209408599E-002  1.328253519474311E-002  1.162221829540022E-002
  9.961901396057328E-003  8.301584496714441E-003  6.641267597371552E-003
  4.980950698028665E-003  3.320633798685776E-003  1.660316899342887E-003
  0.000000000000000E+000  1.660316899342888E-002  1.494285209408599E-002
  1.328253519474311E-002  1.162221829540022E-002  9.961901396057328E-003
  8.301584496714441E-003  6.641267597371552E-003  4.980950698028665E-003
  3.320633798685776E-003  1.660316899342887E-003  0.000000000000000E+000
  1.660316899342888E-002  1.494285209408599E-002  1.328253519474311E-002
  1.162221829540022E-002  9.961901396057328E-003  8.301584496714441E-003
  6.641267597371552E-003  4.980950698028665E-003  3.320633798685776E-003
  1.660316899342887E-003  0.000000000000000E+000  1.660316899342888E-002
  1.494285209408599E-002  1.328253519474311E-002  1.162221829540022E-002
  9.961901396057328E-003  8.301584496714441E-003  6.641267597371552E-003
  4.980950698028665E-003  3.320633798685776E-003  1.660316899342887E-003
  0.000000000000000E+000  1.660316899342888E-002  1.494285209408599E-002
  1.328253519474311E-002  1.162221829540022E-002  9.961901396057328E-003
  8.301584496714441E-003  6.641267597371552E-003  4.980950698028665E-003
  3.320633798685776E-003  1.660316899342887E-003  0.000000000000000E+000
  1.660316899342888E-002  1.494285209408599E-002  1.328253519474311E-002
  1.162221829540022E-002  9.961901396057328E-003  8.301584496714441E-003
  6.641267597371552E-003  4.980950698028665E-003  3.320633798685776E-003
  1.660316899342887E-003  0.000000000000000E+000  1.660316899342888E-002
  1.494285209408599E-002  1.328253519474311E-002  1.162221829540022E-002
  9.961901396057328E-003  8.301584496714441E-003  6.641267597371552E-003
  4.980950698028665E-003  3.320633798685776E-003  1.660316899342887E-003
  0.000000000000000E+000  1.660316899342888E-002  1.494285209408599E-002
  1.328253519474311E-002  1.162221829540022E-002  9.961901396057328E-003
  8.301584496714441E-003  6.641267597371552E-003  4.980950698028665E-003
  3.320633798685776E-003  1.660316899342887E-003  0.000000000000000E+000
  1.660316899342888E-002  1.494285209408599E-002  1.328253519474311E-002
  1.162221829540022E-002  9.961901396057328E-003  8.301584496714441E-003
  6.641267597371552E-003  4.980950698028665E-003  3.320633798685776E-003
  1.660316899342887E-003  0.000000000000000E+000  1.660316899342888E-002
  1.494285209408599E-002  1.328253519474311E-002  1.162221829540022E-002
  9.961901396057328E-003  8.301584496714441E-003  6.641267597371552E-003
  4.980950698028665E-003  3.320633798685776E-003  1.660316899342887E-003
  0.000000000000000E+000
  7.919323887449795E-003  1.598522072248916E-002  2.411734893208313E-002
  3.228406697458922E-002  4.038873293405366E-002  4.819089312071367E-002
  5.509802151348895E-002  6.074275854689289E-002  6.498538658024088E-002
  6.726562052921076E-002  1.461873528919922E-002  2.835478080508399E-002
  4.197096155257177E-002  5.543780061559200E-002  6.863020861125836E-002
  8.120950814168003E-002  9.239535537746617E-002  0.101658863727762     
  0.108688689242897       0.112921263995671       2.440229302059656E-002
  4.403425021757797E-002  6.268639145332598E-002  8.054252531704403E-002
  9.749550914506450E-002  0.113238040515638       0.127229129586588     
  0.138986341713017       0.148017484734752       0.153693910396774     
  3.756641232417654E-002  6.359754534799734E-002  8.698466370571956E-002
  0.108574090392792       0.128397114151372       0.146263591807121     
  0.161901090857678       0.175027476219009       0.185226599510435     
  0.191735033094412       5.408964362203197E-002  8.758656281850329E-002
  0.116110103256405       0.141598343820932       0.164446895764347     
  0.184684600221972       0.202213257438390       0.216842620238154     
  0.228233311889800       0.235578383530346       7.398419651128033E-002
  0.116380166556150       0.150930377225434       0.180956789803240     
  0.207386741816398       0.230517855828764       0.250431096468876     
  0.266994110888028       0.279818384111385       0.288051219916719     
  9.769201432581764E-002  0.150694376492869       0.192383298213852     
  0.227752839430048       0.258402889581826       0.284953834128188     
  0.307614363076786       0.326335582473953       0.340796341038185     
  0.350095790984817       0.125783848659092       0.191358902063907     
  0.241478089054613       0.283120377235946       0.318667475312726     
  0.349132164520674       0.374926097581212       0.396113438155176     
  0.412434926473570       0.422951648419939       0.158638604751326     
  0.238936591390484       0.298933783983433       0.347927608496901     
  0.389193086038648       0.424189597447382       0.453587672981923     
  0.477608854151183       0.496063867762495       0.507968943516990     
  0.196372425250326       0.293658274225991       0.365093934071566     
  0.422612075471639       0.470497627676641       0.510720278483878     
  0.544257894835464       0.571524804786416       0.592419995422768     
  0.605903569564967       0.238829254981306       0.355316933725717     
  0.439724149007636       0.506920947655391       0.562324558733340     
  0.608485582091774       0.646722507635208       0.677654901491230     
  0.701283950731889       0.716521208621733       0.285547525978089     
  0.423233452616290       0.521992161747090       0.599911184426214     
  0.663650065484208       0.716395226579543       0.759835581993053     
  0.794811958352564       0.821434910597739       0.838567231539472     
  0.335869710085220       0.496427755163994       0.610684295844689     
  0.700182450000167       0.772919038830447       0.832763753459921     
  0.881801829019068       0.921108265232163       0.950910676602122     
  0.970032888678598       0.389160732919009       0.573929528361073     
  0.704571245582396       0.806285529026470       0.888486698796039     
  0.955771063317263        1.01064465241842        1.05443348631094     
   1.08749532918648        1.10863153126842       0.445106148224867     
  0.655203689427476       0.802909473809057       0.917269776568760     
   1.00919166536534        1.08404596450100        1.14479559255023     
   1.19304711863108        1.22931406364799        1.25240059351375     
  0.503921169746637       0.740486011753182       0.905864454400398     
   1.03316007472652        1.13486468163236        1.21718495798973     
   1.28360281343956        1.33606254916747        1.37528373660568     
   1.40013101055484       0.567260578452880       0.832049883325183     
   1.01592230268418        1.15638778209788        1.26771032704841     
   1.35706743184928        1.42856653113722        1.48459625924227     
   1.52618971973342        1.55238305042759       0.644546470362004     
  0.941924174586654        1.14577397271923        1.29947790522835     
   1.41976940254227        1.51516533324128        1.59060526681008     
   1.64905693089311        1.69199936061564        1.71881822626755     
  0.767191158742119        1.10695167574492        1.33261597368283     
   1.49915939925415        1.62744899774796        1.72781432863366     
   1.80623271712620        1.86636760848255        1.91020105197172     
   1.93749064186626       0.928339104817362        1.31792037816051     
   1.56562688269017        1.74277441939657        1.87589726693023     
   1.97804629832072        2.05672451451135        2.11646702325418     
   2.15979860898394        2.18692217236123        1.00250166445213     
   1.41159123907156        1.66326224836131        1.83712044684657     
   1.96414170763063        2.05952537106236        2.13167491838752     
   2.18546932564221        2.22358315929630        2.24669343425102     
  0.967313818634748        1.34668140067525        1.57209381342657     
   1.72359804650607        1.83203632718047        1.91223275777331     
   1.97210116428837        2.01601771389112        2.04619811525099     
   2.06321380220715       0.848125976886850        1.15530468025789     
   1.33088601517981        1.44707756724497        1.52968532110359     
   1.59056824122599        1.63590967783769        1.66909548974878     
   1.69189030895506        1.70488813953303       0.652743529301128     
  0.861233853395936       0.978766161841892        1.05673254995583     
   1.11237153696079        1.15352888865067        1.18432328601676     
   1.20708874034278        1.22335238137060        1.23529545480136     
  0.397663545466664       0.514458835477836       0.580937640227770     
  0.625298594585206       0.657074082822130       0.680639001200041     
  0.698300948366691       0.711346337081850       0.720487732644608     
  0.725983623096170     
  0.000000000000000E+000  0.000000000000000E+000  0.000000000000000E+000
  0.000000000000000E+000  0.000000000000000E+000  0.000000000000000E+000
  0.000000000000000E+000  0.000000000000000E+000  0.000000000000000E+000
  0.000000000000000E+000  0.000000000000000E+000  0.000000000000000E+000
  0.000000000000000E+000  0.000000000000000E+000  0.000000000000000E+000
  0.000000000000000E+000  0.000000000000000E+000  0.000000000000000E+000
  0.000000000000000E+000  0.000000000000000E+000  0.000000000000000E+000
  0.000000000000000E+000  0.000000000000000E+000  0.000000000000000E+000
  0.000000000000000E+000  0.000000000000000E+000  0.000000000000000E+000
  0.000000000000000E+000  0.000000000000000E+000  0.000000000000000E+000
  0.000000000000000E+000  0.000000000000000E+000  0.000000000000000E+000
  0.000000000000000E+000  0.000000000000000E+000  0.000000000000000E+000
  0.000000000000000E+000  0.000000000000000E+000  0.000000000000000E+000
  0.000000000000000E+000  0.000000000000000E+000  0.000000000000000E+000
  0.000000000000000E+000  0.000000000000000E+000  0.000000000000000E+000
  0.000000000000000E+000  0.000000000000000E+000  0.000000000000000E+000
  0.000000000000000E+000  0.000000000000000E+000  0.000000000000000E+000
  0.000000000000000E+000  0.000000000000000E+000  0.000000000000000E+000
  0.000000000000000E+000  0.000000000000000E+000  0.000000000000000E+000
  0.000000000000000E+000  0.000000000000000E+000  0.000000000000000E+000
  0.000000000000000E+000  0.000000000000000E+000  0.000000000000000E+000
  0.000000000000000E+000  0.000000000000000E+000  0.000000000000000E+000
  0.000000000000000E+000  0.000000000000000E+000  0.000000000000000E+000
  0.000000000000000E+000  0.000000000000000E+000  0.000000000000000E+000
  0.000000000000000E+000  0.000000000000000E+000  0.000000000000000E+000
  0.000000000000000E+000  0.000000000000000E+000  0.000000000000000E+000
  0.000000000000000E+000  0.000000000000000E+000  0.000000000000000E+000
  0.000000000000000E+000  0.000000000000000E+000  0.000000000000000E+000
  0.000000000000000E+000  0.000000000000000E+000  0.000000000000000E+000
  0.000000000000000E+000  0.000000000000000E+000  0.000000000000000E+000
  0.000000000000000E+000  0.000000000000000E+000  0.000000000000000E+000
  0.000000000000000E+000  0.000000000000000E+000  0.000000000000000E+000
  0.000000000000000E+000  0.000000000000000E+000  0.000000000000000E+000
  0.000000000000000E+000  0.000000000000000E+000  0.000000000000000E+000
  0.000000000000000E+000  0.000000000000000E+000  0.000000000000000E+000
  0.000000000000000E+000  0.000000000000000E+000  0.000000000000000E+000
  0.000000000000000E+000  0.000000000000000E+000  0.000000000000000E+000
  0.000000000000000E+000  0.000000000000000E+000  0.000000000000000E+000
  0.000000000000000E+000  0.000000000000000E+000  0.000000000000000E+000