 Title = "Wing and Wake"
 VARIABLES = "X" "Y" "Z" "GAM" "skew"
 Zone I=   11 J=   26 K=1  T="Blade"
 DATAPACKING=BLOCK
 VARLOCATION=([4]=CELLCENTERED,[5]=CELLCENTERED)
  0.219574324254245       0.200876593889635       0.182178863525024     
  0.163481133160414       0.144783402795803       0.126085672431192     
  0.107387942066582       8.869021170197189E-002  6.999248133736161E-002
  5.129475097275094E-002  3.259702060814070E-002  0.220216763172120     
  0.201519032807510       0.182821302442900       0.164123572078289     
  0.145425841713679       0.126728111349068       0.108030380984458     
  8.933265061984730E-002  7.063492025523684E-002  5.193718989062651E-002
  3.323945952601592E-002  0.222133948280237       0.203436217915627     
  0.184738487551016       0.166040757186406       0.147343026821795     
  0.128645296457185       0.109947566092574       9.124983572796401E-002
  7.255210536335349E-002  5.385437499874325E-002  3.515664463413280E-002
  0.225295644424169       0.206597914059559       0.187900183694949     
  0.169202453330338       0.150504722965728       0.131806992601117     
  0.113109262236506       9.441153187189610E-002  7.571380150728582E-002
  5.701607114267530E-002  3.831834077806507E-002  0.229651989767022     
  0.210954259402411       0.192256529037800       0.173558798673190     
  0.154861068308580       0.136163337943969       0.117465607579359     
  9.876787721474828E-002  8.007014685013771E-002  6.137241648552726E-002
  4.267468612091704E-002  0.235134282140382       0.216436551775771     
  0.197738821411161       0.179041091046551       0.160343360681940     
  0.141645630317330       0.122947899952719       0.104250169588109     
  8.555243922349848E-002  6.685470885888795E-002  4.815697849427741E-002
  0.241656062518560       0.222958332153950       0.204260601789340     
  0.185562871424729       0.166865141060119       0.148167410695508     
  0.129469680330898       0.110771949966288       9.207421960167668E-002
  7.337648923706692E-002  5.467875887245642E-002  0.249114478529071     
  0.230416748164461       0.211719017799850       0.193021287435240     
  0.174323557070629       0.155625826706018       0.136928096341408     
  0.118230365976798       9.953263561218693E-002  8.083490524757689E-002
  6.213717488296657E-002  0.257391906495984       0.238694176131374     
  0.219996445766764       0.201298715402153       0.182600985037543     
  0.163903254672932       0.145205524308322       0.126507793943712     
  0.107810063579101       8.911233321449076E-002  7.041460284988064E-002
  0.266357806435569       0.247660076070957       0.228962345706347     
  0.210264615341737       0.191566884977126       0.172869154612516     
  0.154171424247906       0.135473693883295       0.116775963518685     
  9.807823315407477E-002  7.938050278946400E-002  0.275870780749806     
  0.257173050385196       0.238475320020585       0.219777589655974     
  0.201079859291364       0.182382128926753       0.163684398562143     
  0.144986668197532       0.126288937832922       0.107591207468312     
  8.889347710370150E-002  0.285780804150986       0.267083073786376     
  0.248385343421764       0.229687613057154       0.210989882692544     
  0.192292152327933       0.173594421963323       0.154896691598712     
  0.136198961234102       0.117501230869492       9.880350050488142E-002
  0.295931589650110       0.277233859285500       0.258536128920890     
  0.239838398556279       0.221140668191668       0.202442937827059     
  0.183745207462448       0.165047477097837       0.146349746733226     
  0.127652016368617       0.108954286004006       0.306163053296074     
  0.287465322931463       0.268767592566853       0.250069862202242     
  0.231372131837632       0.212674401473021       0.193976671108411     
  0.175278940743801       0.156581210379191       0.137883480014579     
  0.119185749649969       0.316313838795199       0.297616108430588     
  0.278918378065977       0.260220647701368       0.241522917336758     
  0.222825186972147       0.204127456607536       0.185429726242926     
  0.166731995878315       0.148034265513705       0.129336535149095     
  0.326223862196378       0.307526131831768       0.288828401467158     
  0.270130671102547       0.251432940737937       0.232735210373326     
  0.214037480008716       0.195339749644106       0.176642019279495     
  0.157944288914884       0.139246558550275       0.335736836510616     
  0.317039106146006       0.298341375781395       0.279643645416784     
  0.260945915052174       0.242248184687565       0.223550454322952     
  0.204852723958343       0.186154993593734       0.167457263229122     
  0.148759532864512       0.344702736450200       0.326005006085590     
  0.307307275720979       0.288609545356368       0.269911814991758     
  0.251214084627148       0.232516354262537       0.213818623897926     
  0.195120893533315       0.176423163168706       0.157725432804096     
  0.352980164417114       0.334282434052503       0.315584703687893     
  0.296886973323282       0.278189242958673       0.259491512594062     
  0.240793782229451       0.222096051864841       0.203398321500229     
  0.184700591135620       0.166002860771010       0.360438580427624     
  0.341740850063015       0.323043119698402       0.304345389333793     
  0.285647658969183       0.266949928604571       0.248252198239961     
  0.229554467875351       0.210856737510740       0.192159007146130     
  0.173461276781520       0.366960360805802       0.348262630441191     
  0.329564900076583       0.310867169711971       0.292169439347361     
  0.273471708982750       0.254773978618140       0.236076248253530     
  0.217378517888919       0.198680787524308       0.179983057159698     
  0.372442653179163       0.353744922814553       0.335047192449941     
  0.316349462085332       0.297651731720721       0.278954001356110     
  0.260256270991500       0.241558540626889       0.222860810262281     
  0.204163079897670       0.185465349533058       0.376798998522016     
  0.358101268157404       0.339403537792794       0.320705807428182     
  0.302008077063573       0.283310346698964       0.264612616334353     
  0.245914885969743       0.227217155605132       0.208519425240522     
  0.189821694875910       0.379960694665948       0.361262964301336     
  0.342565233936728       0.323867503572116       0.305169773207506     
  0.286472042842894       0.267774312478286       0.249076582113675     
  0.230378851749065       0.211681121384454       0.192983391019843     
  0.381877879774064       0.363180149409454       0.344482419044842     
  0.325784688680233       0.307086958315622       0.288389227951012     
  0.269691497586401       0.250993767221791       0.232296036857180     
  0.213598306492571       0.194900576127960       0.382520318691938     
  0.363822588327328       0.345124857962718       0.326427127598108     
  0.307729397233498       0.289031666868888       0.270333936504277     
  0.251636206139666       0.232938475775056       0.214240745410445     
  0.195543015045835     
 -0.155262579069384      -0.158509227650009      -0.161755876230635     
 -0.165002524811261      -0.168249173391886      -0.171495821972511     
 -0.174742470553137      -0.177989119133763      -0.181235767714389     
 -0.184482416295014      -0.187729064875640      -0.158962440438381     
 -0.162209089019006      -0.165455737599632      -0.168702386180257     
 -0.171949034760883      -0.175195683341508      -0.178442331922134     
 -0.181688980502759      -0.184935629083385      -0.188182277664011     
 -0.191428926244637      -0.170003675521391      -0.173250324102018     
 -0.176496972682643      -0.179743621263268      -0.182990269843894     
 -0.186236918424520      -0.189483567005145      -0.192730215585771     
 -0.195976864166397      -0.199223512747022      -0.202470161327647     
 -0.188212157445445      -0.191458806026070      -0.194705454606696     
 -0.197952103187321      -0.201198751767947      -0.204445400348572     
 -0.207692048929198      -0.210938697509823      -0.214185346090449     
 -0.217431994671075      -0.220678643251700      -0.213300727573377     
 -0.216547376154001      -0.219794024734627      -0.223040673315253     
 -0.226287321895879      -0.229533970476504      -0.232780619057130     
 -0.236027267637755      -0.239273916218381      -0.242520564799006     
 -0.245767213379632      -0.244873724167084      -0.248120372747710     
 -0.251367021328335      -0.254613669908961      -0.257860318489587     
 -0.261106967070212      -0.264353615650837      -0.267600264231463     
 -0.270846912812089      -0.274093561392714      -0.277340209973340     
 -0.282433222209491      -0.285679870790117      -0.288926519370743     
 -0.292173167951369      -0.295419816531994      -0.298666465112620     
 -0.301913113693245      -0.305159762273871      -0.308406410854496     
 -0.311653059435122      -0.314899708015747      -0.325386885979513     
 -0.328633534560139      -0.331880183140765      -0.335126831721391     
 -0.338373480302016      -0.341620128882642      -0.344866777463267     
 -0.348113426043893      -0.351360074624518      -0.354606723205144     
 -0.357853371785770      -0.373057310540221      -0.376303959120847     
 -0.379550607701472      -0.382797256282099      -0.386043904862724     
 -0.389290553443349      -0.392537202023975      -0.395783850604600     
 -0.399030499185226      -0.402277147765852      -0.405523796346477     
 -0.424692704819362      -0.427939353399987      -0.431186001980612     
 -0.434432650561238      -0.437679299141863      -0.440925947722489     
 -0.444172596303115      -0.447419244883740      -0.450665893464366     
 -0.453912542044992      -0.457159190625617      -0.479478747803662     
 -0.482725396384288      -0.485972044964914      -0.489218693545540     
 -0.492465342126164      -0.495711990706790      -0.498958639287417     
 -0.502205287868040      -0.505451936448667      -0.508698585029293     
 -0.511945233609918      -0.536551430867666      -0.539798079448293     
 -0.543044728028917      -0.546291376609543      -0.549538025190169     
 -0.552784673770794      -0.556031322351419      -0.559277970932045     
 -0.562524619512670      -0.565771268093296      -0.569017916673922     
 -0.595010683705884      -0.598257332286512      -0.601503980867136     
 -0.604750629447762      -0.607997278028386      -0.611243926609013     
 -0.614490575189640      -0.617737223770264      -0.620983872350890     
 -0.624230520931515      -0.627477169512141      -0.653934568979196     
 -0.657181217559822      -0.660427866140448      -0.663674514721073     
 -0.666921163301697      -0.670167811882323      -0.673414460462949     
 -0.676661109043576      -0.679907757624201      -0.683154406204826     
 -0.686401054785452      -0.712393821817415      -0.715640470398040     
 -0.718887118978665      -0.722133767559292      -0.725380416139917     
 -0.728627064720542      -0.731873713301167      -0.735120361881794     
 -0.738367010462420      -0.741613659043044      -0.744860307623671     
 -0.769466504881418      -0.772713153462044      -0.775959802042670     
 -0.779206450623297      -0.782453099203920      -0.785699747784545     
 -0.788946396365171      -0.792193044945799      -0.795439693526424     
 -0.798686342107048      -0.801932990687675      -0.824252547865720     
 -0.827499196446345      -0.830745845026969      -0.833992493607596     
 -0.837239142188222      -0.840485790768847      -0.843732439349473     
 -0.846979087930098      -0.850225736510724      -0.853472385091350     
 -0.856719033671976      -0.875887942144859      -0.879134590725485     
 -0.882381239306111      -0.885627887886737      -0.888874536467361     
 -0.892121185047988      -0.895367833628613      -0.898614482209238     
 -0.901861130789864      -0.905107779370490      -0.908354427951115     
 -0.923558366705566      -0.926805015286192      -0.930051663866819     
 -0.933298312447445      -0.936544961028069      -0.939791609608694     
 -0.943038258189321      -0.946284906769947      -0.949531555350572     
 -0.952778203931197      -0.956024852511823      -0.966512030475589     
 -0.969758679056216      -0.973005327636840      -0.976251976217466     
 -0.979498624798093      -0.982745273378718      -0.985991921959343     
 -0.989238570539969      -0.992485219120592      -0.995731867701219     
 -0.998978516281844       -1.00407152851799       -1.00731817709862     
  -1.01056482567925       -1.01381147425987       -1.01705812284050     
  -1.02030477142112       -1.02355142000175       -1.02679806858238     
  -1.03004471716300       -1.03329136574363       -1.03653801432425     
  -1.03564452511170       -1.03889117369233       -1.04213782227295     
  -1.04538447085358       -1.04863111943420       -1.05187776801483     
  -1.05512441659546       -1.05837106517608       -1.06161771375671     
  -1.06486436233734       -1.06811101091796       -1.06073309523964     
  -1.06397974382026       -1.06722639240089       -1.07047304098151     
  -1.07371968956214       -1.07696633814276       -1.08021298672339     
  -1.08345963530402       -1.08670628388464       -1.08995293246527     
  -1.09319958104589       -1.07894157716369       -1.08218822574432     
  -1.08543487432494       -1.08868152290557       -1.09192817148619     
  -1.09517482006682       -1.09842146864744       -1.10166811722807     
  -1.10491476580869       -1.10816141438932       -1.11140806296994     
  -1.08998281224670       -1.09322946082733       -1.09647610940795     
  -1.09972275798858       -1.10296940656920       -1.10621605514982     
  -1.10946270373045       -1.11270935231108       -1.11595600089170     
  -1.11920264947233       -1.12244929805296       -1.09368267361570     
  -1.09692932219632       -1.10017597077695       -1.10342261935757     
  -1.10666926793820       -1.10991591651883       -1.11316256509945     
  -1.11640921368008       -1.11965586226070       -1.12290251084132     
  -1.12614915942195     
  1.660316899342888E-002  1.494285209408599E-002  1.328253519474311E-002
  1.162221829540022E-002  9.961901396057328E-003  8.301584496714441E-003
  6.641267597371552E-003  4.980950698028665E-003  3.320633798685776E-003
  1.660316899342887E-003  0.000000000000000E+000  1.660316899342888E-002
  1.494285209408599E-002  1.328253519474311E-002  1.162221829540022E-002
  9.961901396057328E-003  8.301584496714441E-003  6.641267597371552E-003
  4.980950698028665E-003  3.320633798685776E-003  1.660316899342887E-003
  0.000000000000000E+000  1.660316899342888E-002  1.494285209408599E-002
  1.328253519474311E-002  1.162221829540022E-002  9.961901396057328E-003
  8.301584496714441E-003  6.641267597371552E-003  4.980950698028665E-003
  3.320633798685776E-003  1.660316899342887E-003  0.000000000000000E+000
  1.660316899342888E-002  1.494285209408599E-002  1.328253519474311E-002
  1.162221829540022E-002  9.961901396057328E-003  8.301584496714441E-003
  6.641267597371552E-003  4.980950698028665E-003  3.320633798685776E-003
  1.660316899342887E-003  0.000000000000000E+000  1.660316899342888E-002
  1.494285209408599E-002  1.328253519474311E-002  1.162221829540022E-002
  9.961901396057328E-003  8.301584496714441E-003  6.641267597371552E-003
  4.980950698028665E-003  3.320633798685776E-003  1.660316899342887E-003
  0.000000000000000E+000  1.660316899342888E-002  1.494285209408599E-002
  1.328253519474311E-002  1.162221829540022E-002  9.961901396057328E-003
  8.301584496714441E-003  6.641267597371552E-003  4.980950698028665E-003
  3.320633798685776E-003  1.660316899342887E-003  0.000000000000000E+000
  1.660316899342888E-002  1.494285209408599E-002  1.328253519474311E-002
  1.162221829540022E-002  9.961901396057328E-003  8.301584496714441E-003
  6.641267597371552E-003  4.980950698028665E-003  3.320633798685776E-003
  1.660316899342887E-003  0.000000000000000E+000  1.660316899342888E-002
  1.494285209408599E-002  1.328253519474311E-002  1.162221829540022E-002
  9.961901396057328E-003  8.301584496714441E-003  6.641267597371552E-003
  4.980950698028665E-003  3.320633798685776E-003  1.660316899342887E-003
  0.000000000000000E+000  1.660316899342888E-002  1.494285209408599E-002
  1.328253519474311E-002  1.162221829540022E-002  9.961901396057328E-003
  8.301584496714441E-003  6.641267597371552E-003  4.980950698028665E-003
  3.320633798685776E-003  1.660316899342887E-003  0.000000000000000E+000
  1.660316899342888E-002  1.494285209408599E-002  1.328253519474311E-002
  1.162221829540022E-002  9.961901396057328E-003  8.301584496714441E-003
  6.641267597371552E-003  4.980950698028665E-003  3.320633798685776E-003
  1.660316899342887E-003  0.000000000000000E+000  1.660316899342888E-002
  1.494285209408599E-002  1.328253519474311E-002  1.162221829540022E-002
  9.961901396057328E-003  8.301584496714441E-003  6.641267597371552E-003
  4.980950698028665E-003  3.320633798685776E-003  1.660316899342887E-003
  0.000000000000000E+000  1.660316899342888E-002  1.494285209408599E-002
  1.328253519474311E-002  1.162221829540022E-002  9.961901396057328E-003
  8.301584496714441E-003  6.641267597371552E-003  4.980950698028665E-003
  3.320633798685776E-003  1.660316899342887E-003  0.000000000000000E+000
  1.660316899342888E-002  1.494285209408599E-002  1.328253519474311E-002
  1.162221829540022E-002  9.961901396057328E-003  8.301584496714441E-003
  6.641267597371552E-003  4.980950698028665E-003  3.320633798685776E-003
  1.660316899342887E-003  0.000000000000000E+000  1.660316899342888E-002
  1.494285209408599E-002  1.328253519474311E-002  1.162221829540022E-002
  9.961901396057328E-003  8.301584496714441E-003  6.641267597371552E-003
  4.980950698028665E-003  3.320633798685776E-003  1.660316899342887E-003
  0.000000000000000E+000  1.660316899342888E-002  1.494285209408599E-002
  1.328253519474311E-002  1.162221829540022E-002  9.961901396057328E-003
  8.301584496714441E-003  6.641267597371552E-003  4.980950698028665E-003
  3.320633798685776E-003  1.660316899342887E-003  0.000000000000000E+000
  1.660316899342888E-002  1.494285209408599E-002  1.328253519474311E-002
  1.162221829540022E-002  9.961901396057328E-003  8.301584496714441E-003
  6.641267597371552E-003  4.980950698028665E-003  3.320633798685776E-003
  1.660316899342887E-003  0.000000000000000E+000  1.660316899342888E-002
  1.494285209408599E-002  1.328253519474311E-002  1.162221829540022E-002
  9.961901396057328E-003  8.301584496714441E-003  6.641267597371552E-003
  4.980950698028665E-003  3.320633798685776E-003  1.660316899342887E-003
  0.000000000000000E+000  1.660316899342888E-002  1.494285209408599E-002
  1.328253519474311E-002  1.162221829540022E-002  9.961901396057328E-003
  8.301584496714441E-003  6.641267597371552E-003  4.980950698028665E-003
  3.320633798685776E-003  1.660316899342887E-003  0.000000000000000E+000
  1.660316899342888E-002  1.494285209408599E-002  1.328253519474311E-002
  1.162221829540022E-002  9.961901396057328E-003  8.301584496714441E-003
  6.641267597371552E-003  4.980950698028665E-003  3.320633798685776E-003
  1.660316899342887E-003  0.000000000000000E+000  1.660316899342888E-002
  1.494285209408599E-002  1.328253519474311E-002  1.162221829540022E-002
  9.961901396057328E-003  8.301584496714441E-003  6.641267597371552E-003
  4.980950698028665E-003  3.320633798685776E-003  1.660316899342887E-003
  0.000000000000000E+000  1.660316899342888E-002  1.494285209408599E-002
  1.328253519474311E-002  1.162221829540022E-002  9.961901396057328E-003
  8.301584496714441E-003  6.641267597371552E-003  4.980950698028665E-003
  3.320633798685776E-003  1.660316899342887E-003  0.000000000000000E+000
  1.660316899342888E-002  1.494285209408599E-002  1.328253519474311E-002
  1.162221829540022E-002  9.961901396057328E-003  8.301584496714441E-003
  6.641267597371552E-003  4.980950698028665E-003  3.320633798685776E-003
  1.660316899342887E-003  0.000000000000000E+000  1.660316899342888E-002
  1.494285209408599E-002  1.328253519474311E-002  1.162221829540022E-002
  9.961901396057328E-003  8.301584496714441E-003  6.641267597371552E-003
  4.980950698028665E-003  3.320633798685776E-003  1.660316899342887E-003
  0.000000000000000E+000  1.660316899342888E-002  1.494285209408599E-002
  1.328253519474311E-002  1.162221829540022E-002  9.961901396057328E-003
  8.301584496714441E-003  6.641267597371552E-003  4.980950698028665E-003
  3.320633798685776E-003  1.660316899342887E-003  0.000000000000000E+000
  1.660316899342888E-002  1.494285209408599E-002  1.328253519474311E-002
  1.162221829540022E-002  9.961901396057328E-003  8.301584496714441E-003
  6.641267597371552E-003  4.980950698028665E-003  3.320633798685776E-003
  1.660316899342887E-003  0.000000000000000E+000  1.660316899342888E-002
  1.494285209408599E-002  1.328253519474311E-002  1.162221829540022E-002
  9.961901396057328E-003  8.301584496714441E-003  6.641267597371552E-003
  4.980950698028665E-003  3.320633798685776E-003  1.660316899342887E-003
  0.000000000000000E+000
  9.141193548071377E-003  2.630778057303795E-002  5.063300353309472E-002
  8.224402672747319E-002  0.117478376833852       0.150307760434360     
  0.173476157450941       0.184865320603987       0.186623154944853     
  0.181227094410415       1.633111501500173E-002  4.442782090557415E-002
  8.372127599496865E-002  0.134586224239280       0.191529932898986     
  0.245240124893280       0.283971123437334       0.303367495125057     
  0.306640924163495       0.298502275605635       2.492166828531685E-002
  6.068219361242069E-002  0.108635309924495       0.169617342191014     
  0.238668473840348       0.304694857616597       0.354097966125498     
  0.380079682606325       0.385288109761074       0.375061713588008     
  3.374858795876245E-002  7.300146371026081E-002  0.122187391846950     
  0.181560608047645       0.247548095303563       0.310085599543686     
  0.357942184530864       0.385502446493404       0.392792154619307     
  0.383750356625805       4.349306127338642E-002  8.346209578617751E-002
  0.128385483414523       0.178007553942883       0.229809221325656     
  0.278180137932882       0.316334576991486       0.340596805069612     
  0.349853656996984       0.346174421558173       5.691746870644696E-002
  9.844884446854738E-002  0.139096943003720       0.179780397115952     
  0.218668280364316       0.252385563149017       0.279983018503694     
  0.300619491621785       0.311554565412336       0.312718249565095     
  7.627216556380820E-002  0.123038528914246       0.163372080718514     
  0.199941485349370       0.232785986444847       0.261173363195458     
  0.284437048238861       0.302135364037751       0.313702420480144     
  0.318422252874864       0.102622957472401       0.159074937229951     
  0.204010757379026       0.242429826609733       0.275750768049861     
  0.304354299000580       0.328187988893160       0.346981682547303     
  0.360305323466963       0.367373253666077       0.135996028286159     
  0.206350342064787       0.259807387964789       0.303989979214756     
  0.341467700313868       0.373296325023567       0.399873587815836     
  0.421235582956843       0.437105734008253       0.446586056506112     
  0.175543867365056       0.263269537482561       0.328129130921350     
  0.380624809408286       0.424482756707714       0.461374817267250     
  0.492097897847531       0.516956386633678       0.535804089157848     
  0.547664680126030       0.220248732555215       0.328054858370399     
  0.406402572128760       0.468930009907723       0.520591250397444     
  0.563702151733061       0.599445290840199       0.628361197076264     
  0.650417015835605       0.664566351190507       0.269100644557649     
  0.399046087587448       0.492377147503616       0.566110313990759     
  0.626506643732820       0.676553662395011       0.717828370513656     
  0.751110834397840       0.776488994835650       0.792856747683767     
  0.321124592138426       0.474732331793588       0.584114686298132     
  0.669857897714056       0.739604001282635       0.797047553106975     
  0.844177252976691       0.882018634458963       0.910783497849627     
  0.929324889459312       0.375530935932580       0.553892014986578     
  0.680053702702553       0.778327635680546       0.857798423676152     
  0.922901108478417       0.976052525520039        1.01853236353763     
   1.05068582672277        1.07134344306695       0.431916739025272     
  0.635865736097131       0.779309807418306       0.890425173686654     
  0.979792397940185        1.05262164347198        1.11178477192698     
   1.15883910802105        1.19428395234148        1.21694951997563     
  0.490465681524891       0.720879432825235       0.882079645336960     
   1.00625574338431        1.10554717087158        1.18598229389148     
   1.25094145676845        1.30231119239515        1.34078884276395     
   1.36525802542979       0.552797786444586       0.811281628454749     
  0.991064151571751        1.12860037727007        1.23773447654141     
   1.32542794963673        1.39566565710016        1.45076703788307     
   1.49173477290934        1.51761350226229       0.628812718068040     
  0.920014101328780        1.12021851446922        1.27151550148792     
   1.39012438895454        1.48430321530997        1.55885204223747     
   1.61666561405383        1.65919158006807        1.68581539899890     
  0.756910829706576        1.09233793442572        1.31561947681235     
   1.48097514021260        1.60870139011931        1.70880225848070     
   1.78712128754714        1.84727583134516        1.89123109032322     
   1.91871222247886       0.938003858742348        1.32942282241347     
   1.57784830986379        1.75581615105843        1.88963554041017     
   1.99237547922052        2.07159496909553        2.13187449847583     
   2.17576787258751        2.20344894673696        1.02633554867130     
   1.44287466795784        1.69824336705258        1.87449815501404     
   2.00326289164734        2.09994505849360        2.17309158189829     
   2.22769451148344        2.26650729520630        2.29023080870264     
  0.994152662158528        1.38276269569227        1.61301227442145     
   1.76748478900071        1.87792858372187        1.95955567200421     
   2.02048640959431        2.06522190046227        2.09605038468321     
   2.11356652581900       0.872080254396178        1.18734876405559     
   1.36717239886339        1.48596332013219        1.57031668963586     
   1.63244196925530        1.67870346625172        1.71258906985157     
   1.73591813222885        1.74929673798178       0.671015377493829     
  0.885106964487342        1.00558709467664        1.08538189983932     
   1.14225892190476        1.18430295678451        1.21575784872006     
   1.23902874459416        1.25568695915503        1.26796566220353     
  0.408729933352349       0.528675619255022       0.596836816925983     
  0.642251088337171       0.674744047116535       0.698825002690288     
  0.716872241742623       0.730211598254360       0.739576741948645     
  0.745229951636524     
  0.000000000000000E+000  0.000000000000000E+000  0.000000000000000E+000
  0.000000000000000E+000  0.000000000000000E+000  0.000000000000000E+000
  0.000000000000000E+000  0.000000000000000E+000  0.000000000000000E+000
  0.000000000000000E+000  0.000000000000000E+000  0.000000000000000E+000
  0.000000000000000E+000  0.000000000000000E+000  0.000000000000000E+000
  0.000000000000000E+000  0.000000000000000E+000  0.000000000000000E+000
  0.000000000000000E+000  0.000000000000000E+000  0.000000000000000E+000
  0.000000000000000E+000  0.000000000000000E+000  0.000000000000000E+000
  0.000000000000000E+000  0.000000000000000E+000  0.000000000000000E+000
  0.000000000000000E+000  0.000000000000000E+000  0.000000000000000E+000
  0.000000000000000E+000  0.000000000000000E+000  0.000000000000000E+000
  0.000000000000000E+000  0.000000000000000E+000  0.000000000000000E+000
  0.000000000000000E+000  0.000000000000000E+000  0.000000000000000E+000
  0.000000000000000E+000  0.000000000000000E+000  0.000000000000000E+000
  0.000000000000000E+000  0.000000000000000E+000  0.000000000000000E+000
  0.000000000000000E+000  0.000000000000000E+000  0.000000000000000E+000
  0.000000000000000E+000  0.000000000000000E+000  0.000000000000000E+000
  0.000000000000000E+000  0.000000000000000E+000  0.000000000000000E+000
  0.000000000000000E+000  0.000000000000000E+000  0.000000000000000E+000
  0.000000000000000E+000  0.000000000000000E+000  0.000000000000000E+000
  0.000000000000000E+000  0.000000000000000E+000  0.000000000000000E+000
  0.000000000000000E+000  0.000000000000000E+000  0.000000000000000E+000
  0.000000000000000E+000  0.000000000000000E+000  0.000000000000000E+000
  0.000000000000000E+000  0.000000000000000E+000  0.000000000000000E+000
  0.000000000000000E+000  0.000000000000000E+000  0.000000000000000E+000
  0.000000000000000E+000  0.000000000000000E+000  0.000000000000000E+000
  0.000000000000000E+000  0.000000000000000E+000  0.000000000000000E+000
  0.000000000000000E+000  0.000000000000000E+000  0.000000000000000E+000
  0.000000000000000E+000  0.000000000000000E+000  0.000000000000000E+000
  0.000000000000000E+000  0.000000000000000E+000  0.000000000000000E+000
  0.000000000000000E+000  0.000000000000000E+000  0.000000000000000E+000
  0.000000000000000E+000  0.000000000000000E+000  0.000000000000000E+000
  0.000000000000000E+000  0.000000000000000E+000  0.000000000000000E+000
  0.000000000000000E+000  0.000000000000000E+000  0.000000000000000E+000
  0.000000000000000E+000  0.000000000000000E+000  0.000000000000000E+000
  0.000000000000000E+000  0.000000000000000E+000  0.000000000000000E+000
  0.000000000000000E+000  0.000000000000000E+000  0.000000000000000E+000
  0.000000000000000E+000  0.000000000000000E+000  0.000000000000000E+000
  0.000000000000000E+000  0.000000000000000E+000  0.000000000000000E+000