 Title = "Wing and Wake"
 VARIABLES = "X" "Y" "Z" "GAM" "skew"
 Zone I=   11 J=   26 K=1  T="Blade"
 DATAPACKING=BLOCK
 VARLOCATION=([4]=CELLCENTERED,[5]=CELLCENTERED)
 -0.251998646680923      -0.244143921018672      -0.236289195356421     
 -0.228434469694169      -0.220579744031918      -0.212725018369666     
 -0.204870292707415      -0.197015567045164      -0.189160841382912     
 -0.181306115720661      -0.173451390058409      -0.255417116260480     
 -0.247562390598228      -0.239707664935977      -0.231852939273726     
 -0.223998213611474      -0.216143487949223      -0.208288762286971     
 -0.200434036624720      -0.192579310962469      -0.184724585300217     
 -0.176869859637966      -0.265618613691784      -0.257763888029532     
 -0.249909162367281      -0.242054436705030      -0.234199711042778     
 -0.226344985380527      -0.218490259718275      -0.210635534056024     
 -0.202780808393773      -0.194926082731521      -0.187071357069270     
 -0.282442255266266      -0.274587529604014      -0.266732803941763     
 -0.258878078279511      -0.251023352617260      -0.243168626955008     
 -0.235313901292757      -0.227459175630506      -0.219604449968254     
 -0.211749724306003      -0.203894998643752      -0.305622722106338     
 -0.297767996444087      -0.289913270781835      -0.282058545119584     
 -0.274203819457333      -0.266349093795081      -0.258494368132830     
 -0.250639642470579      -0.242784916808327      -0.234930191146076     
 -0.227075465483824      -0.334794444402595      -0.326939718740343     
 -0.319084993078092      -0.311230267415840      -0.303375541753589     
 -0.295520816091338      -0.287666090429086      -0.279811364766835     
 -0.271956639104584      -0.264101913442332      -0.256247187780081     
 -0.369497366668081      -0.361642641005829      -0.353787915343578     
 -0.345933189681327      -0.338078464019075      -0.330223738356824     
 -0.322369012694572      -0.314514287032321      -0.306659561370069     
 -0.298804835707818      -0.290950110045567      -0.409184203088149     
 -0.401329477425897      -0.393474751763646      -0.385620026101394     
 -0.377765300439143      -0.369910574776892      -0.362055849114640     
 -0.354201123452389      -0.346346397790137      -0.338491672127886     
 -0.330636946465635      -0.453229068544687      -0.445374342882436     
 -0.437519617220184      -0.429664891557933      -0.421810165895681     
 -0.413955440233430      -0.406100714571179      -0.398245988908927     
 -0.390391263246676      -0.382536537584424      -0.374681811922173     
 -0.500937349198319      -0.493082623536068      -0.485227897873816     
 -0.477373172211565      -0.469518446549314      -0.461663720887062     
 -0.453808995224811      -0.445954269562559      -0.438099543900308     
 -0.430244818238056      -0.422390092575805      -0.551556656963591     
 -0.543701931301340      -0.535847205639089      -0.527992479976837     
 -0.520137754314586      -0.512283028652334      -0.504428302990083     
 -0.496573577327832      -0.488718851665580      -0.480864126003329     
 -0.473009400341077      -0.604288695118537      -0.596433969456286     
 -0.588579243794034      -0.580724518131783      -0.572869792469532     
 -0.565015066807280      -0.557160341145029      -0.549305615482777     
 -0.541450889820526      -0.533596164158275      -0.525741438496023     
 -0.658301847920860      -0.650447122258609      -0.642592396596357     
 -0.634737670934106      -0.626882945271854      -0.619028219609603     
 -0.611173493947351      -0.603318768285100      -0.595464042622849     
 -0.587609316960597      -0.579754591298346      -0.712744295684974     
 -0.704889570022723      -0.697034844360471      -0.689180118698219     
 -0.681325393035968      -0.673470667373717      -0.665615941711465     
 -0.657761216049214      -0.649906490386963      -0.642051764724711     
 -0.634197039062460      -0.766757448487296      -0.758902722825045     
 -0.751047997162794      -0.743193271500542      -0.735338545838291     
 -0.727483820176039      -0.719629094513788      -0.711774368851536     
 -0.703919643189285      -0.696064917527034      -0.688210191864782     
 -0.819489486642242      -0.811634760979991      -0.803780035317739     
 -0.795925309655488      -0.788070583993237      -0.780215858330986     
 -0.772361132668734      -0.764506407006482      -0.756651681344231     
 -0.748796955681979      -0.740942230019728      -0.870108794407515     
 -0.862254068745263      -0.854399343083012      -0.846544617420760     
 -0.838689891758509      -0.830835166096258      -0.822980440434006     
 -0.815125714771755      -0.807270989109504      -0.799416263447252     
 -0.791561537785001      -0.917817075061147      -0.909962349398895     
 -0.902107623736644      -0.894252898074392      -0.886398172412141     
 -0.878543446749889      -0.870688721087638      -0.862833995425387     
 -0.854979269763135      -0.847124544100884      -0.839269818438632     
 -0.961861940517685      -0.954007214855434      -0.946152489193182     
 -0.938297763530931      -0.930443037868679      -0.922588312206428     
 -0.914733586544176      -0.906878860881925      -0.899024135219674     
 -0.891169409557422      -0.883314683895171       -1.00154877693775     
 -0.993694051275501      -0.985839325613250      -0.977984599950999     
 -0.970129874288747      -0.962275148626496      -0.954420422964244     
 -0.946565697301993      -0.938710971639742      -0.930856245977490     
 -0.923001520315239       -1.03625169920324       -1.02839697354099     
  -1.02054224787874       -1.01268752221648       -1.00483279655423     
 -0.996978070891981      -0.989123345229730      -0.981268619567479     
 -0.973413893905227      -0.965559168242976      -0.957704442580725     
  -1.06542342149950       -1.05756869583724       -1.04971397017499     
  -1.04185924451274       -1.03400451885049       -1.02614979318824     
  -1.01829506752599       -1.01044034186374       -1.00258561620148     
 -0.994730890539233      -0.986876164876981       -1.08860388833957     
  -1.08074916267732       -1.07289443701507       -1.06503971135281     
  -1.05718498569056       -1.04933026002831       -1.04147553436606     
  -1.03362080870381       -1.02576608304156       -1.01791135737931     
  -1.01005663171705       -1.10542752991405       -1.09757280425180     
  -1.08971807858955       -1.08186335292730       -1.07400862726504     
  -1.06615390160279       -1.05829917594054       -1.05044445027829     
  -1.04258972461604       -1.03473499895379       -1.02688027329154     
  -1.11562902734535       -1.10777430168310       -1.09991957602085     
  -1.09206485035860       -1.08421012469635       -1.07635539903410     
  -1.06850067337185       -1.06064594770959       -1.05279122204734     
  -1.04493649638509       -1.03708177072284       -1.11904749692491     
  -1.11119277126266       -1.10333804560041       -1.09548331993816     
  -1.08762859427590       -1.07977386861365       -1.07191914295140     
  -1.06406441728915       -1.05620969162690       -1.04835496596465     
  -1.04050024030240     
 -9.389373995090823E-002 -7.661805957170109E-002 -5.934237919249384E-002
 -4.206669881328660E-002 -2.479101843407936E-002 -7.515338054872119E-003
  9.760342324335130E-003  2.703602270354237E-002  4.431170308274957E-002
  6.158738346195682E-002  7.886306384116405E-002 -9.233946595748090E-002
 -7.506378557827358E-002 -5.778810519906637E-002 -4.051242481985916E-002
 -2.323674444065190E-002 -5.961064061444717E-003  1.131461631776258E-002
  2.859029669696977E-002  4.586597707617709E-002  6.314165745538429E-002
  8.041733783459151E-002 -8.770115580655334E-002 -7.042547542734612E-002
 -5.314979504813894E-002 -3.587411466893162E-002 -1.859843428972442E-002
 -1.322753910517141E-003  1.595292646869004E-002  3.322860684789728E-002
  5.050428722710448E-002  6.777996760631176E-002  8.505564798551903E-002
 -8.005195841999783E-002 -6.277627804079056E-002 -4.550059766158331E-002
 -2.822491728237613E-002 -1.094923690316896E-002  6.326443476038374E-003
  2.360212385524562E-002  4.087780423445287E-002  5.815348461366007E-002
  7.542916499286731E-002  9.270484537207456E-002 -6.951250621000957E-002
 -5.223682583080233E-002 -3.496114545159500E-002 -1.768546507238776E-002
 -4.097846931805719E-004  1.686589568602666E-002  3.414157606523385E-002
  5.141725644444117E-002  6.869293682364840E-002  8.596861720285563E-002
  0.103244297582063      -5.624901263390342E-002 -3.897333225469624E-002
 -2.169765187548896E-002 -4.421971496281827E-003  1.285370888292545E-002
  3.012938926213274E-002  4.740506964133991E-002  6.468075002054709E-002
  8.195643039975443E-002  9.923211077896171E-002  0.116507791158169     
 -4.047065090860179E-002 -2.319497052939460E-002 -5.919290150187374E-003
  1.135639022901999E-002  2.863207060822711E-002  4.590775098743442E-002
  6.318343136664153E-002  8.045911174584887E-002  9.773479212505612E-002
  0.115010472504263       0.132286152883471      -2.242625522404893E-002
 -5.150574844841794E-003  1.212510553436544E-002  2.940078591357283E-002
  4.667646629277990E-002  6.395214667198730E-002  8.122782705119448E-002
  9.850350743040175E-002  0.115779187809609       0.133054868188816     
  0.150330548568023      -2.400396479389673E-003  1.487528389981745E-002
  3.215096427902459E-002  4.942664465823193E-002  6.670232503743906E-002
  8.397800541664635E-002  0.101253685795853       0.118529366175061     
  0.135805046554268       0.153080726933475       0.170356407312683     
  1.929110557010414E-002  3.656678594931131E-002  5.384246632851863E-002
  7.111814670772565E-002  8.839382708693305E-002  0.105669507466140     
  0.122945187845347       0.140220868224555       0.157496548603762     
  0.174772228982969       0.192047909362176       4.230616297923696E-002
  5.958184335844421E-002  7.685752373765144E-002  9.413320411685877E-002
  0.111408884496066       0.128684564875273       0.145960245254480     
  0.163235925633688       0.180511606012895       0.197787286392102     
  0.215062966771309       6.628181454413815E-002  8.355749492334526E-002
  0.100833175302553       0.118108855681760       0.135384536060967     
  0.152660216440174       0.169935896819382       0.187211577198589     
  0.204487257577796       0.221762937957003       0.239038618336210     
  9.083994991726882E-002  0.108115630296476       0.125391310675683     
  0.142666991054891       0.159942671434098       0.177218351813305     
  0.194494032192512       0.211769712571720       0.229045392950927     
  0.246321073330134       0.263596753709341       0.115593272633476     
  0.132868953012683       0.150144633391891       0.167420313771098     
  0.184695994150305       0.201971674529513       0.219247354908720     
  0.236523035287927       0.253798715667134       0.271074396046341     
  0.288350076425549       0.140151408006607       0.157427088385814     
  0.174702768765021       0.191978449144229       0.209254129523436     
  0.226529809902643       0.243805490281850       0.261081170661057     
  0.278356851040265       0.295632531419472       0.312908211798679     
  0.164127059571508       0.181402739950715       0.198678420329922     
  0.215954100709130       0.233229781088337       0.250505461467544     
  0.267781141846752       0.285056822225959       0.302332502605166     
  0.319608182984373       0.336883863363580       0.187142116980641     
  0.204417797359848       0.221693477739055       0.238969158118263     
  0.256244838497470       0.273520518876677       0.290796199255884     
  0.308071879635092       0.325347560014299       0.342623240393506     
  0.359898920772713       0.208833619030135       0.226109299409342     
  0.243384979788549       0.260660660167757       0.277936340546964     
  0.295212020926171       0.312487701305378       0.329763381684585     
  0.347039062063793       0.364314742443000       0.381590422822207     
  0.228859477774794       0.246135158154001       0.263410838533208     
  0.280686518912416       0.297962199291623       0.315237879670830     
  0.332513560050037       0.349789240429244       0.367064920808452     
  0.384340601187659       0.401616281566866       0.246903873459347     
  0.264179553838554       0.281455234217761       0.298730914596968     
  0.316006594976176       0.333282275355383       0.350557955734590     
  0.367833636113797       0.385109316493005       0.402384996872212     
  0.419660677251419       0.262682235184648       0.279957915563856     
  0.297233595943063       0.314509276322270       0.331784956701477     
  0.349060637080684       0.366336317459892       0.383611997839099     
  0.400887678218306       0.418163358597513       0.435439038976721     
  0.275945728760754       0.293221409139962       0.310497089519169     
  0.327772769898376       0.345048450277583       0.362324130656791     
  0.379599811035998       0.396875491415205       0.414151171794413     
  0.431426852173619       0.448702532552827       0.286485180970743     
  0.303760861349950       0.321036541729157       0.338312222108365     
  0.355587902487572       0.372863582866779       0.390139263245986     
  0.407414943625193       0.424690624004401       0.441966304383608     
  0.459241984762815       0.294134378357298       0.311410058736506     
  0.328685739115713       0.345961419494920       0.363237099874127     
  0.380512780253335       0.397788460632542       0.415064141011749     
  0.432339821390957       0.449615501770164       0.466891182149371     
  0.298772688508226       0.316048368887433       0.333324049266641     
  0.350599729645848       0.367875410025055       0.385151090404262     
  0.402426770783469       0.419702451162676       0.436978131541884     
  0.454253811921091       0.471529492300298       0.300326962501653     
  0.317602642880861       0.334878323260068       0.352154003639275     
  0.369429684018482       0.386705364397689       0.403981044776897     
  0.421256725156104       0.438532405535311       0.455808085914518     
  0.473083766293726     
  1.660316899342888E-002  1.494285209408599E-002  1.328253519474311E-002
  1.162221829540022E-002  9.961901396057328E-003  8.301584496714441E-003
  6.641267597371552E-003  4.980950698028665E-003  3.320633798685776E-003
  1.660316899342887E-003  0.000000000000000E+000  1.660316899342888E-002
  1.494285209408599E-002  1.328253519474311E-002  1.162221829540022E-002
  9.961901396057328E-003  8.301584496714441E-003  6.641267597371552E-003
  4.980950698028665E-003  3.320633798685776E-003  1.660316899342887E-003
  0.000000000000000E+000  1.660316899342888E-002  1.494285209408599E-002
  1.328253519474311E-002  1.162221829540022E-002  9.961901396057328E-003
  8.301584496714441E-003  6.641267597371552E-003  4.980950698028665E-003
  3.320633798685776E-003  1.660316899342887E-003  0.000000000000000E+000
  1.660316899342888E-002  1.494285209408599E-002  1.328253519474311E-002
  1.162221829540022E-002  9.961901396057328E-003  8.301584496714441E-003
  6.641267597371552E-003  4.980950698028665E-003  3.320633798685776E-003
  1.660316899342887E-003  0.000000000000000E+000  1.660316899342888E-002
  1.494285209408599E-002  1.328253519474311E-002  1.162221829540022E-002
  9.961901396057328E-003  8.301584496714441E-003  6.641267597371552E-003
  4.980950698028665E-003  3.320633798685776E-003  1.660316899342887E-003
  0.000000000000000E+000  1.660316899342888E-002  1.494285209408599E-002
  1.328253519474311E-002  1.162221829540022E-002  9.961901396057328E-003
  8.301584496714441E-003  6.641267597371552E-003  4.980950698028665E-003
  3.320633798685776E-003  1.660316899342887E-003  0.000000000000000E+000
  1.660316899342888E-002  1.494285209408599E-002  1.328253519474311E-002
  1.162221829540022E-002  9.961901396057328E-003  8.301584496714441E-003
  6.641267597371552E-003  4.980950698028665E-003  3.320633798685776E-003
  1.660316899342887E-003  0.000000000000000E+000  1.660316899342888E-002
  1.494285209408599E-002  1.328253519474311E-002  1.162221829540022E-002
  9.961901396057328E-003  8.301584496714441E-003  6.641267597371552E-003
  4.980950698028665E-003  3.320633798685776E-003  1.660316899342887E-003
  0.000000000000000E+000  1.660316899342888E-002  1.494285209408599E-002
  1.328253519474311E-002  1.162221829540022E-002  9.961901396057328E-003
  8.301584496714441E-003  6.641267597371552E-003  4.980950698028665E-003
  3.320633798685776E-003  1.660316899342887E-003  0.000000000000000E+000
  1.660316899342888E-002  1.494285209408599E-002  1.328253519474311E-002
  1.162221829540022E-002  9.961901396057328E-003  8.301584496714441E-003
  6.641267597371552E-003  4.980950698028665E-003  3.320633798685776E-003
  1.660316899342887E-003  0.000000000000000E+000  1.660316899342888E-002
  1.494285209408599E-002  1.328253519474311E-002  1.162221829540022E-002
  9.961901396057328E-003  8.301584496714441E-003  6.641267597371552E-003
  4.980950698028665E-003  3.320633798685776E-003  1.660316899342887E-003
  0.000000000000000E+000  1.660316899342888E-002  1.494285209408599E-002
  1.328253519474311E-002  1.162221829540022E-002  9.961901396057328E-003
  8.301584496714441E-003  6.641267597371552E-003  4.980950698028665E-003
  3.320633798685776E-003  1.660316899342887E-003  0.000000000000000E+000
  1.660316899342888E-002  1.494285209408599E-002  1.328253519474311E-002
  1.162221829540022E-002  9.961901396057328E-003  8.301584496714441E-003
  6.641267597371552E-003  4.980950698028665E-003  3.320633798685776E-003
  1.660316899342887E-003  0.000000000000000E+000  1.660316899342888E-002
  1.494285209408599E-002  1.328253519474311E-002  1.162221829540022E-002
  9.961901396057328E-003  8.301584496714441E-003  6.641267597371552E-003
  4.980950698028665E-003  3.320633798685776E-003  1.660316899342887E-003
  0.000000000000000E+000  1.660316899342888E-002  1.494285209408599E-002
  1.328253519474311E-002  1.162221829540022E-002  9.961901396057328E-003
  8.301584496714441E-003  6.641267597371552E-003  4.980950698028665E-003
  3.320633798685776E-003  1.660316899342887E-003  0.000000000000000E+000
  1.660316899342888E-002  1.494285209408599E-002  1.328253519474311E-002
  1.162221829540022E-002  9.961901396057328E-003  8.301584496714441E-003
  6.641267597371552E-003  4.980950698028665E-003  3.320633798685776E-003
  1.660316899342887E-003  0.000000000000000E+000  1.660316899342888E-002
  1.494285209408599E-002  1.328253519474311E-002  1.162221829540022E-002
  9.961901396057328E-003  8.301584496714441E-003  6.641267597371552E-003
  4.980950698028665E-003  3.320633798685776E-003  1.660316899342887E-003
  0.000000000000000E+000  1.660316899342888E-002  1.494285209408599E-002
  1.328253519474311E-002  1.162221829540022E-002  9.961901396057328E-003
  8.301584496714441E-003  6.641267597371552E-003  4.980950698028665E-003
  3.320633798685776E-003  1.660316899342887E-003  0.000000000000000E+000
  1.660316899342888E-002  1.494285209408599E-002  1.328253519474311E-002
  1.162221829540022E-002  9.961901396057328E-003  8.301584496714441E-003
  6.641267597371552E-003  4.980950698028665E-003  3.320633798685776E-003
  1.660316899342887E-003  0.000000000000000E+000  1.660316899342888E-002
  1.494285209408599E-002  1.328253519474311E-002  1.162221829540022E-002
  9.961901396057328E-003  8.301584496714441E-003  6.641267597371552E-003
  4.980950698028665E-003  3.320633798685776E-003  1.660316899342887E-003
  0.000000000000000E+000  1.660316899342888E-002  1.494285209408599E-002
  1.328253519474311E-002  1.162221829540022E-002  9.961901396057328E-003
  8.301584496714441E-003  6.641267597371552E-003  4.980950698028665E-003
  3.320633798685776E-003  1.660316899342887E-003  0.000000000000000E+000
  1.660316899342888E-002  1.494285209408599E-002  1.328253519474311E-002
  1.162221829540022E-002  9.961901396057328E-003  8.301584496714441E-003
  6.641267597371552E-003  4.980950698028665E-003  3.320633798685776E-003
  1.660316899342887E-003  0.000000000000000E+000  1.660316899342888E-002
  1.494285209408599E-002  1.328253519474311E-002  1.162221829540022E-002
  9.961901396057328E-003  8.301584496714441E-003  6.641267597371552E-003
  4.980950698028665E-003  3.320633798685776E-003  1.660316899342887E-003
  0.000000000000000E+000  1.660316899342888E-002  1.494285209408599E-002
  1.328253519474311E-002  1.162221829540022E-002  9.961901396057328E-003
  8.301584496714441E-003  6.641267597371552E-003  4.980950698028665E-003
  3.320633798685776E-003  1.660316899342887E-003  0.000000000000000E+000
  1.660316899342888E-002  1.494285209408599E-002  1.328253519474311E-002
  1.162221829540022E-002  9.961901396057328E-003  8.301584496714441E-003
  6.641267597371552E-003  4.980950698028665E-003  3.320633798685776E-003
  1.660316899342887E-003  0.000000000000000E+000  1.660316899342888E-002
  1.494285209408599E-002  1.328253519474311E-002  1.162221829540022E-002
  9.961901396057328E-003  8.301584496714441E-003  6.641267597371552E-003
  4.980950698028665E-003  3.320633798685776E-003  1.660316899342887E-003
  0.000000000000000E+000
  4.923365472984629E-002  6.651404681689640E-002  7.760899670960610E-002
  8.569349248451290E-002  9.183896341089037E-002  9.653458913307379E-002
  0.100031080350093       0.102451425329781       0.103831437750771     
  0.104117805258699       8.266154654157232E-002  0.113603329349391     
  0.133272919882855       0.147527252992366       0.158326060615536     
  0.166557878293541       0.172678934476072       0.176924661633572     
  0.179415175904606       0.180354136406343       0.114036467944885     
  0.160988660915693       0.190985663198870       0.212615280742594     
  0.228920428095982       0.241298451171730       0.250474556731950     
  0.256834111912568       0.260547147116309       0.261574599758103     
  0.143554497799035       0.206246246010006       0.247261885027041     
  0.277015133181483       0.299440261865663       0.316421974015539     
  0.328950213383029       0.337520516409607       0.342258062947046     
  0.342919798182983       0.173084173347520       0.250930499053946     
  0.302922904230931       0.341070788708473       0.369969420205091     
  0.391871192158197       0.407973868505633       0.418864380731487     
  0.424663852281284       0.425101961107884       0.203656111978550     
  0.296578326749359       0.359426828498901       0.405977004127834     
  0.441460350960886       0.468442453317403       0.488292593764019     
  0.501683611254853       0.508758987696882       0.509249639740438     
  0.235761900831435       0.344100951463830       0.417889768846547     
  0.472881132003697       0.515012811998225       0.547183119284765     
  0.570937122663627       0.587035775621236       0.595646132502460     
  0.596473612463229       0.269557297063618       0.393869865687685     
  0.478860827482502       0.542442577407683       0.591340277940175     
  0.628825415196797       0.656638212288453       0.675635634921974     
  0.686004293929410       0.687389733662130       0.304919987919391     
  0.445794716338294       0.542312698372749       0.614691157411226     
  0.670508427718571       0.713445022387532       0.745456881998013     
  0.767506690217833       0.779798121445407       0.781892579334063     
  0.341470292713221       0.499367183022795       0.607673761640250     
  0.689016481443666       0.751873201702601       0.800360097341234     
  0.836665107894129       0.861864850165114       0.876180611419505     
  0.879076513099857       0.378585873429727       0.553693977017355     
  0.673872776694081       0.764213902455341       0.834121274058962     
  0.888163003570036       0.928769655270631       0.957138429275790     
  0.973511046588384       0.977250912364102       0.415421881516960     
  0.607534316425566       0.739391329949952       0.838548725635551     
  0.915341026141520       0.974793705155585        1.01958512856927     
   1.05103817306405        1.06942002864066        1.07399878729286     
  0.450932864996721       0.659336345306614       0.802312642378646     
  0.909814644711352       0.993087705408005        1.05760873883699     
   1.10630385436708        1.14062526913931        1.16087347079057     
   1.16623535476999       0.483892343236685       0.707266550708327     
  0.860357843273391       0.975374819455701        1.06442753347521     
   1.13342666505847        1.18554103245873        1.22235482544986     
   1.24421268928001        1.25024416623822       0.512908289899017     
  0.749229962296664       0.910907835524046        1.03218379401238     
   1.12595883233621        1.19854798647287        1.25335292645489     
   1.29209211354766        1.31516844590244        1.32168813372188     
  0.536436392587984       0.782884113187268       0.951014831382694     
   1.07679584657543        1.17381735080338        1.24875834220327     
   1.30523908729056        1.34511431153807        1.36886325840046     
   1.37561243701968       0.552795519476990       0.805652629974190     
  0.977410925456364        1.10536948295785        1.20367960192981     
   1.27933385077107        1.33615295512406        1.37612859120985     
   1.39983656838601        1.40647616555825       0.560189699531282     
  0.814743423642157       0.986520491969131        1.11367981129475     
   1.21078417405507        1.28508048120404        1.34056559192472     
   1.37936321613065        1.40216156619063        1.40828625978985     
  0.556734845297406       0.807167453132322       0.974476508072784     
   1.09715125615390        1.19000309693065        1.26046231614312     
   1.31266113066279        1.34883047335797        1.36976651371924     
   1.37495806790794       0.540475375230505       0.779732337589504     
  0.937128176441998        1.05093411424303        1.13603185959847     
   1.19992790133233        1.24680066292211        1.27891283917585     
   1.29711615158458        1.30105426338902       0.509347608080522     
  0.728955798840144       0.870045089520627       0.970127344521688     
   1.04388045300160        1.09864865311390        1.13845346535704     
   1.16543114651515        1.18037276558738        1.18299677467753     
  0.460980383426629       0.650852908659118       0.768725783731107     
  0.850546916695934       0.910081047372495       0.953966460819047     
  0.985716979785739        1.00714557482767        1.01888049841371     
   1.02059714819231       0.392039410648744       0.540959267711774     
  0.629967374929429       0.690900157836525       0.735045796799016     
  0.767581387668983       0.791184660032146       0.807247084893537     
  0.816325271086683       0.818303886766330       0.297328002375603     
  0.397329467166239       0.456322137363646       0.496804234995407     
  0.526252029975054       0.548050360673721       0.563959750423580     
  0.574932462545584       0.581489137353941       0.584350592196755     
  0.180252743735990       0.236208921796268       0.269521769428171     
  0.292504454604115       0.309278310302422       0.321722209874964     
  0.330814684537869       0.337073790171426       0.340726087713437     
  0.341729311394043     
  0.000000000000000E+000  0.000000000000000E+000  0.000000000000000E+000
  0.000000000000000E+000  0.000000000000000E+000  0.000000000000000E+000
  0.000000000000000E+000  0.000000000000000E+000  0.000000000000000E+000
  0.000000000000000E+000  0.000000000000000E+000  0.000000000000000E+000
  0.000000000000000E+000  0.000000000000000E+000  0.000000000000000E+000
  0.000000000000000E+000  0.000000000000000E+000  0.000000000000000E+000
  0.000000000000000E+000  0.000000000000000E+000  0.000000000000000E+000
  0.000000000000000E+000  0.000000000000000E+000  0.000000000000000E+000
  0.000000000000000E+000  0.000000000000000E+000  0.000000000000000E+000
  0.000000000000000E+000  0.000000000000000E+000  0.000000000000000E+000
  0.000000000000000E+000  0.000000000000000E+000  0.000000000000000E+000
  0.000000000000000E+000  0.000000000000000E+000  0.000000000000000E+000
  0.000000000000000E+000  0.000000000000000E+000  0.000000000000000E+000
  0.000000000000000E+000  0.000000000000000E+000  0.000000000000000E+000
  0.000000000000000E+000  0.000000000000000E+000  0.000000000000000E+000
  0.000000000000000E+000  0.000000000000000E+000  0.000000000000000E+000
  0.000000000000000E+000  0.000000000000000E+000  0.000000000000000E+000
  0.000000000000000E+000  0.000000000000000E+000  0.000000000000000E+000
  0.000000000000000E+000  0.000000000000000E+000  0.000000000000000E+000
  0.000000000000000E+000  0.000000000000000E+000  0.000000000000000E+000
  0.000000000000000E+000  0.000000000000000E+000  0.000000000000000E+000
  0.000000000000000E+000  0.000000000000000E+000  0.000000000000000E+000
  0.000000000000000E+000  0.000000000000000E+000  0.000000000000000E+000
  0.000000000000000E+000  0.000000000000000E+000  0.000000000000000E+000
  0.000000000000000E+000  0.000000000000000E+000  0.000000000000000E+000
  0.000000000000000E+000  0.000000000000000E+000  0.000000000000000E+000
  0.000000000000000E+000  0.000000000000000E+000  0.000000000000000E+000
  0.000000000000000E+000  0.000000000000000E+000  0.000000000000000E+000
  0.000000000000000E+000  0.000000000000000E+000  0.000000000000000E+000
  0.000000000000000E+000  0.000000000000000E+000  0.000000000000000E+000
  0.000000000000000E+000  0.000000000000000E+000  0.000000000000000E+000
  0.000000000000000E+000  0.000000000000000E+000  0.000000000000000E+000
  0.000000000000000E+000  0.000000000000000E+000  0.000000000000000E+000
  0.000000000000000E+000  0.000000000000000E+000  0.000000000000000E+000
  0.000000000000000E+000  0.000000000000000E+000  0.000000000000000E+000
  0.000000000000000E+000  0.000000000000000E+000  0.000000000000000E+000
  0.000000000000000E+000  0.000000000000000E+000  0.000000000000000E+000
  0.000000000000000E+000  0.000000000000000E+000  0.000000000000000E+000
  0.000000000000000E+000  0.000000000000000E+000  0.000000000000000E+000