 Title = "Wing and Wake"
 VARIABLES = "X" "Y" "Z" "GAM" "skew"
 Zone I=   11 J=   26 K=1  T="Blade"
 DATAPACKING=BLOCK
 VARLOCATION=([4]=CELLCENTERED,[5]=CELLCENTERED)
  0.252272005555410       0.235051215578738       0.217830425602066     
  0.200609635625394       0.183388845648723       0.166168055672050     
  0.148947265695379       0.131726475718707       0.114505685742035     
  9.728489576536314E-002  8.006410578869148E-002  0.253849950303854     
  0.236629160327182       0.219408370350510       0.202187580373839     
  0.184966790397167       0.167746000420495       0.150525210443823     
  0.133304420467151       0.116083630490479       9.886284051380752E-002
  8.164205053713564E-002  0.258558899417885       0.241338109441214     
  0.224117319464542       0.206896529487869       0.189675739511198     
  0.172454949534526       0.155234159557854       0.138013369581182     
  0.120792579604510       0.103571789627839       8.635099965116681E-002
  0.266324589956985       0.249103799980313       0.231883010003642     
  0.214662220026969       0.197441430050298       0.180220640073626     
  0.162999850096954       0.145779060120282       0.128558270143610     
  0.111337480166939       9.411669019026681E-002  0.277024552342354     
  0.259803762365682       0.242582972389010       0.225362182412338     
  0.208141392435666       0.190920602458994       0.173699812482323     
  0.156479022505651       0.139258232528979       0.122037442552307     
  0.104816652575635       0.290490041775325       0.273269251798654     
  0.256048461821981       0.238827671845310       0.221606881868638     
  0.204386091891966       0.187165301915294       0.169944511938623     
  0.152723721961951       0.135502931985279       0.118282142008607     
  0.306508699443649       0.289287909466977       0.272067119490306     
  0.254846329513634       0.237625539536962       0.220404749560290     
  0.203183959583618       0.185963169606947       0.168742379630274     
  0.151521589653603       0.134300799676931       0.324827901546814     
  0.307607111570142       0.290386321593471       0.273165531616799     
  0.255944741640127       0.238723951663455       0.221503161686783     
  0.204282371710111       0.187061581733439       0.169840791756768     
  0.152620001780096       0.345158743324290       0.327937953347619     
  0.310717163370947       0.293496373394275       0.276275583417604     
  0.259054793440932       0.241834003464260       0.224613213487588     
  0.207392423510916       0.190171633534244       0.172950843557573     
  0.367180595256194       0.349959805279522       0.332739015302850     
  0.315518225326178       0.298297435349506       0.281076645372834     
  0.263855855396163       0.246635065419491       0.229414275442819     
  0.212193485466147       0.194972695489475       0.390546159582339     
  0.373325369605667       0.356104579628996       0.338883789652323     
  0.321662999675652       0.304442209698980       0.287221419722308     
  0.270000629745635       0.252779839768964       0.235559049792292     
  0.218338259815621       0.414886947395392       0.397666157418721     
  0.380445367442048       0.363224577465376       0.346003787488705     
  0.328782997512033       0.311562207535361       0.294341417558689     
  0.277120627582017       0.259899837605346       0.242679047628674     
  0.439819089931059       0.422598299954389       0.405377509977717     
  0.388156720001044       0.370935930024372       0.353715140047701     
  0.336494350071029       0.319273560094357       0.302052770117685     
  0.284831980141013       0.267611190164341       0.464949392407815     
  0.447728602431142       0.430507812454471       0.413287022477798     
  0.396066232501126       0.378845442524454       0.361624652547783     
  0.344403862571111       0.327183072594440       0.309962282617767     
  0.292741492641096       0.489881534943482       0.472660744966810     
  0.455439954990137       0.438219165013467       0.420998375036795     
  0.403777585060122       0.386556795083451       0.369336005106779     
  0.352115215130107       0.334894425153435       0.317673635176764     
  0.514222322756534       0.497001532779862       0.479780742803191     
  0.462559952826519       0.445339162849847       0.428118372873175     
  0.410897582896504       0.393676792919832       0.376456002943161     
  0.359235212966488       0.342014422989817       0.537587887082680     
  0.520367097106009       0.503146307129336       0.485925517152664     
  0.468704727175993       0.451483937199322       0.434263147222649     
  0.417042357245977       0.399821567269306       0.382600777292633     
  0.365379987315962       0.559609739014583       0.542388949037911     
  0.525168159061240       0.507947369084567       0.490726579107895     
  0.473505789131224       0.456284999154552       0.439064209177880     
  0.421843419201208       0.404622629224536       0.387401839247865     
  0.579940580792060       0.562719790815387       0.545499000838716     
  0.528278210862045       0.511057420885373       0.493836630908701     
  0.476615840932029       0.459395050955357       0.442174260978685     
  0.424953471002013       0.407732681025342       0.598259782895224     
  0.581038992918553       0.563818202941880       0.546597412965209     
  0.529376622988538       0.512155833011865       0.494935043035194     
  0.477714253058521       0.460493463081850       0.443272673105178     
  0.426051883128506       0.614278440563548       0.597057650586876     
  0.579836860610206       0.562616070633533       0.545395280656861     
  0.528174490680189       0.510953700703517       0.493732910726846     
  0.476512120750173       0.459291330773501       0.442070540796830     
  0.627743929996520       0.610523140019849       0.593302350043176     
  0.576081560066505       0.558860770089833       0.541639980113161     
  0.524419190136489       0.507198400159816       0.489977610183146     
  0.472756820206474       0.455536030229801       0.638443892381890     
  0.621223102405217       0.604002312428545       0.586781522451873     
  0.569560732475201       0.552339942498531       0.535119152521858     
  0.517898362545186       0.500677572568514       0.483456782591843     
  0.466235992615169       0.646209582920990       0.628988792944317     
  0.611768002967646       0.594547212990973       0.577326423014302     
  0.560105633037629       0.542884843060958       0.525664053084286     
  0.508443263107615       0.491222473130942       0.474001683154270     
  0.650918532035019       0.633697742058348       0.616476952081675     
  0.599256162105004       0.582035372128332       0.564814582151659     
  0.547593792174988       0.530373002198316       0.513152212221644     
  0.495931422244974       0.478710632268301       0.652496476783463     
  0.635275686806792       0.618054896830120       0.600834106853448     
  0.583613316876777       0.566392526900106       0.549171736923433     
  0.531950946946761       0.514730156970090       0.497509366993416     
  0.480288577016746     
 -9.315679011235016E-002 -0.101131139011985      -0.109105487911620     
 -0.117079836811255      -0.125054185710891      -0.133028534610526     
 -0.141002883510161      -0.148977232409796      -0.156951581309431     
 -0.164925930209067      -0.172900279108702      -9.656439811267115E-002
 -0.104538747012307      -0.112513095911942      -0.120487444811577     
 -0.128461793711212      -0.136436142610847      -0.144410491510482     
 -0.152384840410117      -0.160359189309753      -0.168333538209388     
 -0.176307887109023      -0.106733482099863      -0.114707830999499     
 -0.122682179899134      -0.130656528798769      -0.138630877698404     
 -0.146605226598039      -0.154579575497674      -0.162553924397310     
 -0.170528273296945      -0.178502622196580      -0.186476971096215     
 -0.123503669544733      -0.131478018444367      -0.139452367344003     
 -0.147426716243638      -0.155401065143273      -0.163375414042908     
 -0.171349762942543      -0.179324111842179      -0.187298460741814     
 -0.195272809641449      -0.203247158541084      -0.146610484573248     
 -0.154584833472883      -0.162559182372518      -0.170533531272154     
 -0.178507880171789      -0.186482229071424      -0.194456577971059     
 -0.202430926870695      -0.210405275770329      -0.218379624669965     
 -0.226353973569600      -0.175689518909069      -0.183663867808704     
 -0.191638216708339      -0.199612565607974      -0.207586914507610     
 -0.215561263407245      -0.223535612306879      -0.231509961206515     
 -0.239484310106150      -0.247458659005785      -0.255433007905421     
 -0.210282178809745      -0.218256527709380      -0.226230876609015     
 -0.234205225508651      -0.242179574408286      -0.250153923307921     
 -0.258128272207556      -0.266102621107192      -0.274076970006827     
 -0.282051318906462      -0.290025667806096      -0.249842917363990     
 -0.257817266263625      -0.265791615163261      -0.273765964062896     
 -0.281740312962531      -0.289714661862166      -0.297689010761801     
 -0.305663359661436      -0.313637708561072      -0.321612057460707     
 -0.329586406360343      -0.293747838092364      -0.301722186992000     
 -0.309696535891634      -0.317670884791270      -0.325645233690905     
 -0.333619582590540      -0.341593931490175      -0.349568280389810     
 -0.357542629289445      -0.365516978189081      -0.373491327088716     
 -0.341304534167452      -0.349278883067086      -0.357253231966722     
 -0.365227580866357      -0.373201929765992      -0.381176278665628     
 -0.389150627565263      -0.397124976464898      -0.405099325364533     
 -0.413073674264169      -0.421048023163803      -0.391763008083155     
 -0.399737356982791      -0.407711705882426      -0.415686054782061     
 -0.423660403681696      -0.431634752581331      -0.439609101480967     
 -0.447583450380602      -0.455557799280237      -0.463532148179873     
 -0.471506497079507      -0.444327499563394      -0.452301848463030     
 -0.460276197362664      -0.468250546262299      -0.476224895161936     
 -0.484199244061571      -0.492173592961205      -0.500147941860841     
 -0.508122290760475      -0.516096639660111      -0.524070988559746     
 -0.498169035177018      -0.506143384076655      -0.514117732976290     
 -0.522092081875924      -0.530066430775559      -0.538040779675195     
 -0.546015128574831      -0.553989477474465      -0.561963826374101     
 -0.569938175273736      -0.577912524173371      -0.552438501744029     
 -0.560412850643665      -0.568387199543300      -0.576361548442935     
 -0.584335897342569      -0.592310246242204      -0.600284595141840     
 -0.608258944041476      -0.616233292941110      -0.624207641840746     
 -0.632181990740381      -0.606280037357654      -0.614254386257289     
 -0.622228735156924      -0.630203084056560      -0.638177432956194     
 -0.646151781855829      -0.654126130755464      -0.662100479655100     
 -0.670074828554735      -0.678049177454370      -0.686023526354006     
 -0.658844528837892      -0.666818877737528      -0.674793226637164     
 -0.682767575536798      -0.690741924436433      -0.698716273336067     
 -0.706690622235702      -0.714664971135340      -0.722639320034975     
 -0.730613668934609      -0.738588017834244      -0.709303002753597     
 -0.717277351653231      -0.725251700552866      -0.733226049452502     
 -0.741200398352138      -0.749174747251772      -0.757149096151408     
 -0.765123445051043      -0.773097793950678      -0.781072142850312     
 -0.789046491749949      -0.756859698828683      -0.764834047728319     
 -0.772808396627954      -0.780782745527590      -0.788757094427224     
 -0.796731443326860      -0.804705792226494      -0.812680141126130     
 -0.820654490025765      -0.828628838925401      -0.836603187825035     
 -0.800764619557057      -0.808738968456692      -0.816713317356328     
 -0.824687666255964      -0.832662015155598      -0.840636364055233     
 -0.848610712954869      -0.856585061854504      -0.864559410754140     
 -0.872533759653774      -0.880508108553409      -0.840325358111302     
 -0.848299707010938      -0.856274055910573      -0.864248404810208     
 -0.872222753709844      -0.880197102609479      -0.888171451509114     
 -0.896145800408749      -0.904120149308383      -0.912094498208019     
 -0.920068847107654      -0.874918018011978      -0.882892366911614     
 -0.890866715811250      -0.898841064710883      -0.906815413610518     
 -0.914789762510155      -0.922764111409791      -0.930738460309426     
 -0.938712809209059      -0.946687158108695      -0.954661507008331     
 -0.903997052347798      -0.911971401247435      -0.919945750147070     
 -0.927920099046705      -0.935894447946339      -0.943868796845975     
 -0.951843145745610      -0.959817494645245      -0.967791843544882     
 -0.975766192444515      -0.983740541344152      -0.927103867376316     
 -0.935078216275951      -0.943052565175586      -0.951026914075222     
 -0.959001262974856      -0.966975611874491      -0.974949960774126     
 -0.982924309673762      -0.990898658573395      -0.998873007473033     
  -1.00684735637267      -0.943874054821185      -0.951848403720821     
 -0.959822752620455      -0.967797101520091      -0.975771450419725     
 -0.983745799319362      -0.991720148218995      -0.999694497118630     
  -1.00766884601827       -1.01564319491790       -1.02361754381754     
 -0.954043138808376      -0.962017487708012      -0.969991836607646     
 -0.977966185507282      -0.985940534406917      -0.993914883306551     
  -1.00188923220619       -1.00986358110582       -1.01783793000546     
  -1.02581227890509       -1.03378662780473      -0.957450746808699     
 -0.965425095708332      -0.973399444607968      -0.981373793507603     
 -0.989348142407237      -0.997322491306874       -1.00529684020651     
  -1.01327118910615       -1.02124553800578       -1.02921988690541     
  -1.03719423580505     
  1.660316899342888E-002  1.494285209408599E-002  1.328253519474311E-002
  1.162221829540022E-002  9.961901396057328E-003  8.301584496714441E-003
  6.641267597371552E-003  4.980950698028665E-003  3.320633798685776E-003
  1.660316899342887E-003  0.000000000000000E+000  1.660316899342888E-002
  1.494285209408599E-002  1.328253519474311E-002  1.162221829540022E-002
  9.961901396057328E-003  8.301584496714441E-003  6.641267597371552E-003
  4.980950698028665E-003  3.320633798685776E-003  1.660316899342887E-003
  0.000000000000000E+000  1.660316899342888E-002  1.494285209408599E-002
  1.328253519474311E-002  1.162221829540022E-002  9.961901396057328E-003
  8.301584496714441E-003  6.641267597371552E-003  4.980950698028665E-003
  3.320633798685776E-003  1.660316899342887E-003  0.000000000000000E+000
  1.660316899342888E-002  1.494285209408599E-002  1.328253519474311E-002
  1.162221829540022E-002  9.961901396057328E-003  8.301584496714441E-003
  6.641267597371552E-003  4.980950698028665E-003  3.320633798685776E-003
  1.660316899342887E-003  0.000000000000000E+000  1.660316899342888E-002
  1.494285209408599E-002  1.328253519474311E-002  1.162221829540022E-002
  9.961901396057328E-003  8.301584496714441E-003  6.641267597371552E-003
  4.980950698028665E-003  3.320633798685776E-003  1.660316899342887E-003
  0.000000000000000E+000  1.660316899342888E-002  1.494285209408599E-002
  1.328253519474311E-002  1.162221829540022E-002  9.961901396057328E-003
  8.301584496714441E-003  6.641267597371552E-003  4.980950698028665E-003
  3.320633798685776E-003  1.660316899342887E-003  0.000000000000000E+000
  1.660316899342888E-002  1.494285209408599E-002  1.328253519474311E-002
  1.162221829540022E-002  9.961901396057328E-003  8.301584496714441E-003
  6.641267597371552E-003  4.980950698028665E-003  3.320633798685776E-003
  1.660316899342887E-003  0.000000000000000E+000  1.660316899342888E-002
  1.494285209408599E-002  1.328253519474311E-002  1.162221829540022E-002
  9.961901396057328E-003  8.301584496714441E-003  6.641267597371552E-003
  4.980950698028665E-003  3.320633798685776E-003  1.660316899342887E-003
  0.000000000000000E+000  1.660316899342888E-002  1.494285209408599E-002
  1.328253519474311E-002  1.162221829540022E-002  9.961901396057328E-003
  8.301584496714441E-003  6.641267597371552E-003  4.980950698028665E-003
  3.320633798685776E-003  1.660316899342887E-003  0.000000000000000E+000
  1.660316899342888E-002  1.494285209408599E-002  1.328253519474311E-002
  1.162221829540022E-002  9.961901396057328E-003  8.301584496714441E-003
  6.641267597371552E-003  4.980950698028665E-003  3.320633798685776E-003
  1.660316899342887E-003  0.000000000000000E+000  1.660316899342888E-002
  1.494285209408599E-002  1.328253519474311E-002  1.162221829540022E-002
  9.961901396057328E-003  8.301584496714441E-003  6.641267597371552E-003
  4.980950698028665E-003  3.320633798685776E-003  1.660316899342887E-003
  0.000000000000000E+000  1.660316899342888E-002  1.494285209408599E-002
  1.328253519474311E-002  1.162221829540022E-002  9.961901396057328E-003
  8.301584496714441E-003  6.641267597371552E-003  4.980950698028665E-003
  3.320633798685776E-003  1.660316899342887E-003  0.000000000000000E+000
  1.660316899342888E-002  1.494285209408599E-002  1.328253519474311E-002
  1.162221829540022E-002  9.961901396057328E-003  8.301584496714441E-003
  6.641267597371552E-003  4.980950698028665E-003  3.320633798685776E-003
  1.660316899342887E-003  0.000000000000000E+000  1.660316899342888E-002
  1.494285209408599E-002  1.328253519474311E-002  1.162221829540022E-002
  9.961901396057328E-003  8.301584496714441E-003  6.641267597371552E-003
  4.980950698028665E-003  3.320633798685776E-003  1.660316899342887E-003
  0.000000000000000E+000  1.660316899342888E-002  1.494285209408599E-002
  1.328253519474311E-002  1.162221829540022E-002  9.961901396057328E-003
  8.301584496714441E-003  6.641267597371552E-003  4.980950698028665E-003
  3.320633798685776E-003  1.660316899342887E-003  0.000000000000000E+000
  1.660316899342888E-002  1.494285209408599E-002  1.328253519474311E-002
  1.162221829540022E-002  9.961901396057328E-003  8.301584496714441E-003
  6.641267597371552E-003  4.980950698028665E-003  3.320633798685776E-003
  1.660316899342887E-003  0.000000000000000E+000  1.660316899342888E-002
  1.494285209408599E-002  1.328253519474311E-002  1.162221829540022E-002
  9.961901396057328E-003  8.301584496714441E-003  6.641267597371552E-003
  4.980950698028665E-003  3.320633798685776E-003  1.660316899342887E-003
  0.000000000000000E+000  1.660316899342888E-002  1.494285209408599E-002
  1.328253519474311E-002  1.162221829540022E-002  9.961901396057328E-003
  8.301584496714441E-003  6.641267597371552E-003  4.980950698028665E-003
  3.320633798685776E-003  1.660316899342887E-003  0.000000000000000E+000
  1.660316899342888E-002  1.494285209408599E-002  1.328253519474311E-002
  1.162221829540022E-002  9.961901396057328E-003  8.301584496714441E-003
  6.641267597371552E-003  4.980950698028665E-003  3.320633798685776E-003
  1.660316899342887E-003  0.000000000000000E+000  1.660316899342888E-002
  1.494285209408599E-002  1.328253519474311E-002  1.162221829540022E-002
  9.961901396057328E-003  8.301584496714441E-003  6.641267597371552E-003
  4.980950698028665E-003  3.320633798685776E-003  1.660316899342887E-003
  0.000000000000000E+000  1.660316899342888E-002  1.494285209408599E-002
  1.328253519474311E-002  1.162221829540022E-002  9.961901396057328E-003
  8.301584496714441E-003  6.641267597371552E-003  4.980950698028665E-003
  3.320633798685776E-003  1.660316899342887E-003  0.000000000000000E+000
  1.660316899342888E-002  1.494285209408599E-002  1.328253519474311E-002
  1.162221829540022E-002  9.961901396057328E-003  8.301584496714441E-003
  6.641267597371552E-003  4.980950698028665E-003  3.320633798685776E-003
  1.660316899342887E-003  0.000000000000000E+000  1.660316899342888E-002
  1.494285209408599E-002  1.328253519474311E-002  1.162221829540022E-002
  9.961901396057328E-003  8.301584496714441E-003  6.641267597371552E-003
  4.980950698028665E-003  3.320633798685776E-003  1.660316899342887E-003
  0.000000000000000E+000  1.660316899342888E-002  1.494285209408599E-002
  1.328253519474311E-002  1.162221829540022E-002  9.961901396057328E-003
  8.301584496714441E-003  6.641267597371552E-003  4.980950698028665E-003
  3.320633798685776E-003  1.660316899342887E-003  0.000000000000000E+000
  1.660316899342888E-002  1.494285209408599E-002  1.328253519474311E-002
  1.162221829540022E-002  9.961901396057328E-003  8.301584496714441E-003
  6.641267597371552E-003  4.980950698028665E-003  3.320633798685776E-003
  1.660316899342887E-003  0.000000000000000E+000  1.660316899342888E-002
  1.494285209408599E-002  1.328253519474311E-002  1.162221829540022E-002
  9.961901396057328E-003  8.301584496714441E-003  6.641267597371552E-003
  4.980950698028665E-003  3.320633798685776E-003  1.660316899342887E-003
  0.000000000000000E+000
  1.313265545963207E-002  2.261392138658928E-002  3.139621104212148E-002
  3.985860364194409E-002  4.819911562077882E-002  5.653730994592882E-002
  6.473474482773878E-002  7.231242967434527E-002  7.885241472897615E-002
  8.343674796466818E-002  2.309262269455816E-002  3.947405268660215E-002
  5.446793864727285E-002  6.876560253101213E-002  8.266526270364019E-002
  9.634049314919191E-002  0.109646108987267       0.122000018729631     
  0.132701973239399       0.140664398677221       3.508620368550784E-002
  5.887911022406728E-002  8.016380230421985E-002  0.100073997721668     
  0.118945685082284       0.136915471020749       0.153915045818442     
  0.169523743130964       0.182916496971936       0.192887201792169     
  4.915008214772623E-002  8.053658862017250E-002  0.107861287264832     
  0.132910608545188       0.156112292493457       0.177552904994876     
  0.197168958862030       0.214710260372688       0.229479307568828     
  0.240172043153405       6.546641136815796E-002  0.104844960930596     
  0.138079890750633       0.167891462505226       0.194993885971574     
  0.219557844168023       0.241555047815855       0.260781328610195     
  0.276645089375345       0.287892177714063       8.445640480363130E-002
  0.132585736731291       0.171874802941373       0.206284967305255     
  0.237001887806001       0.264427176597811       0.288640833770093     
  0.309472096484678       0.326422830161433       0.338327043144462     
  0.106895677642392       0.165006654117999       0.210934518886910     
  0.250224265517942       0.284691116281235       0.315046112246966     
  0.341506413689545       0.363989278311343       0.382101283932903     
  0.394681583798448       0.133594743546429       0.203504132882555     
  0.257213124162816       0.302157478700442       0.340886882523332     
  0.374486483634656       0.403392763893225       0.427659499894493     
  0.446966931514853       0.460173813713875       0.165125322601272     
  0.249013265688647       0.311969559104607       0.363664324125443     
  0.407505330491108       0.445006357429558       0.476850561715172     
  0.503252146148244       0.523995149034895       0.537975482786077     
  0.201664417536526       0.301890342225279       0.375751101901408     
  0.435470337147225       0.485431491915780       0.527639773595395     
  0.563079546141037       0.592163036973626       0.614781295054532     
  0.629826241309224       0.243124981665042       0.362021959101056     
  0.448420472760109       0.517413603777631       0.574489569918171     
  0.622227059429072       0.661954165345272       0.694289529998053     
  0.719226875780073       0.735629900909375       0.289057950738628     
  0.428728520296217       0.529126397598367       0.608515466022633     
  0.673610924291302       0.727619785438089       0.772239916938242     
  0.808312326827915       0.835938402602749       0.853939301776136     
  0.338811537743648       0.501037907608955       0.616669330947852     
  0.707392244528095       0.781248583284731       0.842123901621838     
  0.892109984326313       0.932281906419566       0.962856203471421     
  0.982622197494915       0.391807546561215       0.578058643198174     
  0.709905851527623       0.812678677457251       0.895832628409116     
  0.963979938384161        1.01963194222607        1.06411495150413     
   1.09777981430891        1.11940019555595       0.447812063283015     
  0.659360802741884       0.808205202803684       0.923534779371505     
   1.01630525599621        1.09190923901991        1.15331915463778     
   1.20214624076332        1.23890278650889        1.26237201279986     
  0.507139929079833       0.745302286412184       0.911852976657899     
   1.04009176165342        1.14258353733007        1.22557190848080     
   1.29256066661874        1.34550737895256        1.38513731268022     
   1.41030243976631       0.571637128026127       0.838351022901346     
   1.02348621370712        1.16487263968964        1.27690362402450     
   1.36682473070020        1.43878360196826        1.49519391969515     
   1.53710407056267        1.56354923751438       0.650725836152157     
  0.950367771609677        1.15546124732793        1.30993098290037     
   1.43072658041092        1.52647506263319        1.60217412084658     
   1.66082219951639        1.70391734663551        1.73085818493046     
  0.772171321822373        1.11371462141117        1.34019057651557     
   1.50699288127515        1.63526247421364        1.73549303164509     
   1.81372428541651        1.87363478492517        1.91721004102579     
   1.94423025029573       0.922575310577071        1.31078640237375     
   1.55774523133395        1.73407826618157        1.86642257513205     
   1.96785550089495        2.04584157628048        2.10487183016620     
   2.14742978886448        2.17371276531679       0.988178656608812     
   1.39256611120712        1.64171020643721        1.81379612910253     
   1.93939877646846        2.03358367734973        2.10466580756620     
   2.15744532884452        2.19452054966791        2.21651869372142     
  0.951161335162071        1.32478706667390        1.54702084500277     
   1.69642156529309        1.80329146433307        1.88221699227893     
   1.94098378458705        1.98388051330151        2.01305000746318     
   2.02901517068228       0.833755406868818        1.13592873016208     
   1.30874163908037        1.42310531287901        1.50435994515714     
   1.56415463664842        1.60856149904004        1.64089442910172     
   1.66286124846443        1.67502122037489       0.641838188838463     
  0.846859442109134       0.962462222191510        1.03913801462726     
   1.09381372331720        1.13419306252686        1.16431831843922     
   1.18647357316601        1.20214211831592        1.21344877922574     
  0.391077035706858       0.505917286976507       0.571291667340563     
  0.614906714531694       0.646122223394787       0.669233364958228     
  0.686504735409699       0.699195215390611       0.707995546738170     
  0.713150594547457     
  0.000000000000000E+000  0.000000000000000E+000  0.000000000000000E+000
  0.000000000000000E+000  0.000000000000000E+000  0.000000000000000E+000
  0.000000000000000E+000  0.000000000000000E+000  0.000000000000000E+000
  0.000000000000000E+000  0.000000000000000E+000  0.000000000000000E+000
  0.000000000000000E+000  0.000000000000000E+000  0.000000000000000E+000
  0.000000000000000E+000  0.000000000000000E+000  0.000000000000000E+000
  0.000000000000000E+000  0.000000000000000E+000  0.000000000000000E+000
  0.000000000000000E+000  0.000000000000000E+000  0.000000000000000E+000
  0.000000000000000E+000  0.000000000000000E+000  0.000000000000000E+000
  0.000000000000000E+000  0.000000000000000E+000  0.000000000000000E+000
  0.000000000000000E+000  0.000000000000000E+000  0.000000000000000E+000
  0.000000000000000E+000  0.000000000000000E+000  0.000000000000000E+000
  0.000000000000000E+000  0.000000000000000E+000  0.000000000000000E+000
  0.000000000000000E+000  0.000000000000000E+000  0.000000000000000E+000
  0.000000000000000E+000  0.000000000000000E+000  0.000000000000000E+000
  0.000000000000000E+000  0.000000000000000E+000  0.000000000000000E+000
  0.000000000000000E+000  0.000000000000000E+000  0.000000000000000E+000
  0.000000000000000E+000  0.000000000000000E+000  0.000000000000000E+000
  0.000000000000000E+000  0.000000000000000E+000  0.000000000000000E+000
  0.000000000000000E+000  0.000000000000000E+000  0.000000000000000E+000
  0.000000000000000E+000  0.000000000000000E+000  0.000000000000000E+000
  0.000000000000000E+000  0.000000000000000E+000  0.000000000000000E+000
  0.000000000000000E+000  0.000000000000000E+000  0.000000000000000E+000
  0.000000000000000E+000  0.000000000000000E+000  0.000000000000000E+000
  0.000000000000000E+000  0.000000000000000E+000  0.000000000000000E+000
  0.000000000000000E+000  0.000000000000000E+000  0.000000000000000E+000
  0.000000000000000E+000  0.000000000000000E+000  0.000000000000000E+000
  0.000000000000000E+000  0.000000000000000E+000  0.000000000000000E+000
  0.000000000000000E+000  0.000000000000000E+000  0.000000000000000E+000
  0.000000000000000E+000  0.000000000000000E+000  0.000000000000000E+000
  0.000000000000000E+000  0.000000000000000E+000  0.000000000000000E+000
  0.000000000000000E+000  0.000000000000000E+000  0.000000000000000E+000
  0.000000000000000E+000  0.000000000000000E+000  0.000000000000000E+000
  0.000000000000000E+000  0.000000000000000E+000  0.000000000000000E+000
  0.000000000000000E+000  0.000000000000000E+000  0.000000000000000E+000
  0.000000000000000E+000  0.000000000000000E+000  0.000000000000000E+000
  0.000000000000000E+000  0.000000000000000E+000  0.000000000000000E+000
  0.000000000000000E+000  0.000000000000000E+000  0.000000000000000E+000
  0.000000000000000E+000  0.000000000000000E+000  0.000000000000000E+000