 Title = "Wing and Wake"
 VARIABLES = "X" "Y" "Z" "GAM" "skew"
 Zone I=   11 J=   26 K=1  T="Blade"
 DATAPACKING=BLOCK
 VARLOCATION=([4]=CELLCENTERED,[5]=CELLCENTERED)
  4.544752379487047E-002  2.993164847623339E-002  1.441577315759590E-002
 -1.100102161041644E-003 -1.661597747967910E-002 -3.213185279831659E-002
 -4.764772811695397E-002 -6.316360343559141E-002 -7.867947875422883E-002
 -9.419535407286625E-002 -0.109711229391504       4.328527822229683E-002
  2.776940290365914E-002  1.225352758502197E-002 -3.262347733615429E-003
 -1.877822305225306E-002 -3.429409837089028E-002 -4.980997368952787E-002
 -6.532584900816514E-002 -8.084172432680288E-002 -9.635759964544013E-002
 -0.111873474964078       3.683264140891789E-002  2.131676609028037E-002
  5.800890771643123E-003 -9.714984546994461E-003 -2.523085986563189E-002
 -4.074673518426923E-002 -5.626261050290680E-002 -7.177848582154414E-002
 -8.729436114018183E-002 -0.102810236458819      -0.118326111777457     
  2.619137529189870E-002  1.067549997326161E-002 -4.840375345376125E-003
 -2.035625066401348E-002 -3.587212598265071E-002 -5.138800130128823E-002
 -6.690387661992588E-002 -8.241975193856313E-002 -9.793562725720056E-002
 -0.113451502575838      -0.128967377894475       1.152929899468983E-002
 -3.986576323947662E-003 -1.950245164258508E-002 -3.501832696122254E-002
 -5.053420227986009E-002 -6.605007759849749E-002 -8.156595291713484E-002
 -9.708182823577233E-002 -0.112597703554410      -0.128113578873047     
 -0.143629454191685      -6.922357780802854E-003 -2.243823309944004E-002
 -3.795410841807765E-002 -5.346998373671485E-002 -6.898585905535251E-002
 -8.450173437398997E-002 -0.100017609692627      -0.115533485011265     
 -0.131049360329902      -0.146565235648540      -0.162081110967177     
 -2.887260138474351E-002 -4.438847670338081E-002 -5.990435202201837E-002
 -7.542022734065602E-002 -9.093610265929342E-002 -0.106451977977931     
 -0.121967853296568      -0.137483728615206      -0.152999603933843     
 -0.168515479252480      -0.184031354571118      -5.397526336305873E-002
 -6.949113868169615E-002 -8.500701400033361E-002 -0.100522889318971     
 -0.116038764637608      -0.131554639956246      -0.147070515274883     
 -0.162586390593521      -0.178102265912158      -0.193618141230796     
 -0.209134016549433      -8.183445974074717E-002 -9.735033505938448E-002
 -0.112866210378022      -0.128382085696659      -0.143897961015296     
 -0.159413836333934      -0.174929711652572      -0.190445586971209     
 -0.205961462289846      -0.221477337608484      -0.236993212927121     
 -0.112010834348655      -0.127526709667292      -0.143042584985929     
 -0.158558460304566      -0.174074335623204      -0.189590210941842     
 -0.205106086260479      -0.220621961579116      -0.236137836897754     
 -0.251653712216392      -0.267169587535029      -0.144028487732722     
 -0.159544363051360      -0.175060238369997      -0.190576113688635     
 -0.206091989007272      -0.221607864325909      -0.237123739644547     
 -0.252639614963184      -0.268155490281822      -0.283671365600460     
 -0.299187240919097      -0.177382482372665      -0.192898357691302     
 -0.208414233009940      -0.223930108328577      -0.239445983647215     
 -0.254961858965853      -0.270477734284489      -0.285993609603127     
 -0.301509484921764      -0.317025360240402      -0.332541235559039     
 -0.211546805848299      -0.227062681166937      -0.242578556485574     
 -0.258094431804212      -0.273610307122849      -0.289126182441487     
 -0.304642057760124      -0.320157933078761      -0.335673808397400     
 -0.351189683716036      -0.366705559034674      -0.245982666369638     
 -0.261498541688276      -0.277014417006913      -0.292530292325551     
 -0.308046167644187      -0.323562042962825      -0.339077918281463     
 -0.354593793600100      -0.370109668918737      -0.385625544237376     
 -0.401141419556012      -0.280146989845272      -0.295662865163910     
 -0.311178740482548      -0.326694615801185      -0.342210491119822     
 -0.357726366438460      -0.373242241757097      -0.388758117075735     
 -0.404273992394372      -0.419789867713010      -0.435305743031647     
 -0.313500984485215      -0.329016859803853      -0.344532735122490     
 -0.360048610441128      -0.375564485759765      -0.391080361078402     
 -0.406596236397039      -0.422112111715678      -0.437627987034315     
 -0.453143862352952      -0.468659737671590      -0.345518637869283     
 -0.361034513187920      -0.376550388506558      -0.392066263825195     
 -0.407582139143833      -0.423098014462470      -0.438613889781109     
 -0.454129765099746      -0.469645640418383      -0.485161515737020     
 -0.500677391055658      -0.375695012477191      -0.391210887795828     
 -0.406726763114465      -0.422242638433104      -0.437758513751740     
 -0.453274389070378      -0.468790264389015      -0.484306139707652     
 -0.499822015026290      -0.515337890344928      -0.530853765663565     
 -0.403554208854878      -0.419070084173515      -0.434585959492154     
 -0.450101834810792      -0.465617710129428      -0.481133585448066     
 -0.496649460766704      -0.512165336085341      -0.527681211403979     
 -0.543197086722615      -0.558712962041253      -0.428656870833194     
 -0.444172746151831      -0.459688621470469      -0.475204496789106     
 -0.490720372107743      -0.506236247426381      -0.521752122745019     
 -0.537267998063657      -0.552783873382293      -0.568299748700931     
 -0.583815624019568      -0.450607114437135      -0.466122989755772     
 -0.481638865074410      -0.497154740393046      -0.512670615711684     
 -0.528186491030321      -0.543702366348960      -0.559218241667597     
 -0.574734116986234      -0.590249992304871      -0.605765867623509     
 -0.469058771212627      -0.484574646531265      -0.500090521849902     
 -0.515606397168540      -0.531122272487176      -0.546638147805814     
 -0.562154023124452      -0.577669898443090      -0.593185773761727     
 -0.608701649080364      -0.624217524399002      -0.483720847509837     
 -0.499236722828474      -0.514752598147111      -0.530268473465749     
 -0.545784348784387      -0.561300224103023      -0.576816099421660     
 -0.592331974740298      -0.607847850058935      -0.623363725377574     
 -0.638879600696211      -0.494362113626855      -0.509877988945494     
 -0.525393864264131      -0.540909739582769      -0.556425614901405     
 -0.571941490220043      -0.587457365538679      -0.602973240857317     
 -0.618489116175956      -0.634004991494593      -0.649520866813229     
 -0.500814750440234      -0.516330625758872      -0.531846501077508     
 -0.547362376396146      -0.562878251714784      -0.578394127033422     
 -0.593910002352058      -0.609425877670696      -0.624941752989333     
 -0.640457628307970      -0.655973503626608      -0.502976996012809     
 -0.518492871331445      -0.534008746650083      -0.549524621968720     
 -0.565040497287358      -0.580556372605995      -0.596072247924632     
 -0.611588123243272      -0.627103998561908      -0.642619873880544     
 -0.658135749199183     
 -0.265054475366669      -0.254127286300388      -0.243200097234107     
 -0.232272908167826      -0.221345719101544      -0.210418530035263     
 -0.199491340968982      -0.188564151902701      -0.177636962836420     
 -0.166709773770139      -0.155782584703858      -0.268124719004701     
 -0.257197529938420      -0.246270340872139      -0.235343151805859     
 -0.224415962739577      -0.213488773673296      -0.202561584607015     
 -0.191634395540734      -0.180707206474453      -0.169780017408172     
 -0.158852828341891      -0.277287030342553      -0.266359841276273     
 -0.255432652209992      -0.244505463143710      -0.233578274077429     
 -0.222651085011148      -0.211723895944867      -0.200796706878586     
 -0.189869517812305      -0.178942328746024      -0.168015139679743     
 -0.292396914257127      -0.281469725190846      -0.270542536124566     
 -0.259615347058284      -0.248688157992003      -0.237760968925722     
 -0.226833779859441      -0.215906590793160      -0.204979401726879     
 -0.194052212660598      -0.183125023594317      -0.313216078852883     
 -0.302288889786602      -0.291361700720321      -0.280434511654039     
 -0.269507322587759      -0.258580133521477      -0.247652944455197     
 -0.236725755388915      -0.225798566322634      -0.214871377256353     
 -0.203944188190072      -0.339416193467379      -0.328489004401098     
 -0.317561815334816      -0.306634626268536      -0.295707437202255     
 -0.284780248135974      -0.273853059069692      -0.262925870003411     
 -0.251998680937130      -0.241071491870849      -0.230144302804568     
 -0.370584066641955      -0.359656877575674      -0.348729688509393     
 -0.337802499443112      -0.326875310376831      -0.315948121310550     
 -0.305020932244269      -0.294093743177988      -0.283166554111706     
 -0.272239365045426      -0.261312175979144      -0.406228162397864     
 -0.395300973331583      -0.384373784265302      -0.373446595199021     
 -0.362519406132740      -0.351592217066458      -0.340665028000178     
 -0.329737838933896      -0.318810649867615      -0.307883460801334     
 -0.296956271735053      -0.445786352052282      -0.434859162986002     
 -0.423931973919721      -0.413004784853440      -0.402077595787159     
 -0.391150406720878      -0.380223217654597      -0.369296028588315     
 -0.358368839522034      -0.347441650455754      -0.336514461389472     
 -0.488634779323446      -0.477707590257164      -0.466780401190883     
 -0.455853212124603      -0.444926023058321      -0.433998833992041     
 -0.423071644925760      -0.412144455859478      -0.401217266793197     
 -0.390290077726917      -0.379362888660635      -0.534097698916876     
 -0.523170509850596      -0.512243320784315      -0.501316131718033     
 -0.490388942651752      -0.479461753585471      -0.468534564519190     
 -0.457607375452908      -0.446680186386628      -0.435752997320347     
 -0.424825808254066      -0.581458133432354      -0.570530944366074     
 -0.559603755299791      -0.548676566233511      -0.537749377167231     
 -0.526822188100949      -0.515894999034668      -0.504967809968387     
 -0.494040620902105      -0.483113431835825      -0.472186242769544     
 -0.629969180525817      -0.619041991459537      -0.608114802393256     
 -0.597187613326975      -0.586260424260693      -0.575333235194413     
 -0.564406046128132      -0.553478857061850      -0.542551667995570     
 -0.531624478929289      -0.520697289863008      -0.678865792005509     
 -0.667938602939229      -0.657011413872948      -0.646084224806666     
 -0.635157035740385      -0.624229846674103      -0.613302657607823     
 -0.602375468541542      -0.591448279475261      -0.580521090408980     
 -0.569593901342699      -0.727376839098974      -0.716449650032692     
 -0.705522460966411      -0.694595271900131      -0.683668082833849     
 -0.672740893767568      -0.661813704701287      -0.650886515635006     
 -0.639959326568725      -0.629032137502444      -0.618104948436163     
 -0.774737273614451      -0.763810084548169      -0.752882895481890     
 -0.741955706415608      -0.731028517349327      -0.720101328283045     
 -0.709174139216764      -0.698246950150484      -0.687319761084203     
 -0.676392572017921      -0.665465382951640      -0.820200193207882     
 -0.809273004141601      -0.798345815075319      -0.787418626009038     
 -0.776491436942757      -0.765564247876476      -0.754637058810195     
 -0.743709869743914      -0.732782680677634      -0.721855491611351     
 -0.710928302545071      -0.863048620479044      -0.852121431412763     
 -0.841194242346483      -0.830267053280201      -0.819339864213919     
 -0.808412675147639      -0.797485486081357      -0.786558297015076     
 -0.775631107948795      -0.764703918882515      -0.753776729816233     
 -0.902606810133463      -0.891679621067182      -0.880752432000901     
 -0.869825242934621      -0.858898053868340      -0.847970864802059     
 -0.837043675735777      -0.826116486669496      -0.815189297603215     
 -0.804262108536934      -0.793334919470653      -0.938250905889372     
 -0.927323716823092      -0.916396527756810      -0.905469338690529     
 -0.894542149624249      -0.883614960557966      -0.872687771491687     
 -0.861760582425405      -0.850833393359123      -0.839906204292842     
 -0.828979015226561      -0.969418779063948      -0.958491589997666     
 -0.947564400931388      -0.936637211865105      -0.925710022798824     
 -0.914782833732542      -0.903855644666262      -0.892928455599981     
 -0.882001266533699      -0.871074077467418      -0.860146888401138     
 -0.995618893678444      -0.984691704612164      -0.973764515545883     
 -0.962837326479602      -0.951910137413320      -0.940982948347039     
 -0.930055759280758      -0.919128570214476      -0.908201381148197     
 -0.897274192081916      -0.886347003015634       -1.01643805827420     
  -1.00551086920792      -0.994583680141638      -0.983656491075357     
 -0.972729302009075      -0.961802112942795      -0.950874923876514     
 -0.939947734810233      -0.929020545743951      -0.918093356677672     
 -0.907166167611389       -1.03154794218877       -1.02062075312249     
  -1.00969356405621      -0.998766374989932      -0.987839185923650     
 -0.976911996857369      -0.965984807791088      -0.955057618724806     
 -0.944130429658526      -0.933203240592245      -0.922276051525963     
  -1.04071025352662       -1.02978306446035       -1.01885587539406     
  -1.00792868632778      -0.997001497261501      -0.986074308195219     
 -0.975147119128939      -0.964219930062657      -0.953292740996377     
 -0.942365551930096      -0.931438362863814       -1.04378049716466     
  -1.03285330809838       -1.02192611903210       -1.01099892996582     
  -1.00007174089953      -0.989144551833254      -0.978217362766972     
 -0.967290173700692      -0.956362984634410      -0.945435795568128     
 -0.934508606501849     
  1.660316899342888E-002  1.494285209408599E-002  1.328253519474311E-002
  1.162221829540022E-002  9.961901396057328E-003  8.301584496714441E-003
  6.641267597371552E-003  4.980950698028665E-003  3.320633798685776E-003
  1.660316899342887E-003  0.000000000000000E+000  1.660316899342888E-002
  1.494285209408599E-002  1.328253519474311E-002  1.162221829540022E-002
  9.961901396057328E-003  8.301584496714441E-003  6.641267597371552E-003
  4.980950698028665E-003  3.320633798685776E-003  1.660316899342887E-003
  0.000000000000000E+000  1.660316899342888E-002  1.494285209408599E-002
  1.328253519474311E-002  1.162221829540022E-002  9.961901396057328E-003
  8.301584496714441E-003  6.641267597371552E-003  4.980950698028665E-003
  3.320633798685776E-003  1.660316899342887E-003  0.000000000000000E+000
  1.660316899342888E-002  1.494285209408599E-002  1.328253519474311E-002
  1.162221829540022E-002  9.961901396057328E-003  8.301584496714441E-003
  6.641267597371552E-003  4.980950698028665E-003  3.320633798685776E-003
  1.660316899342887E-003  0.000000000000000E+000  1.660316899342888E-002
  1.494285209408599E-002  1.328253519474311E-002  1.162221829540022E-002
  9.961901396057328E-003  8.301584496714441E-003  6.641267597371552E-003
  4.980950698028665E-003  3.320633798685776E-003  1.660316899342887E-003
  0.000000000000000E+000  1.660316899342888E-002  1.494285209408599E-002
  1.328253519474311E-002  1.162221829540022E-002  9.961901396057328E-003
  8.301584496714441E-003  6.641267597371552E-003  4.980950698028665E-003
  3.320633798685776E-003  1.660316899342887E-003  0.000000000000000E+000
  1.660316899342888E-002  1.494285209408599E-002  1.328253519474311E-002
  1.162221829540022E-002  9.961901396057328E-003  8.301584496714441E-003
  6.641267597371552E-003  4.980950698028665E-003  3.320633798685776E-003
  1.660316899342887E-003  0.000000000000000E+000  1.660316899342888E-002
  1.494285209408599E-002  1.328253519474311E-002  1.162221829540022E-002
  9.961901396057328E-003  8.301584496714441E-003  6.641267597371552E-003
  4.980950698028665E-003  3.320633798685776E-003  1.660316899342887E-003
  0.000000000000000E+000  1.660316899342888E-002  1.494285209408599E-002
  1.328253519474311E-002  1.162221829540022E-002  9.961901396057328E-003
  8.301584496714441E-003  6.641267597371552E-003  4.980950698028665E-003
  3.320633798685776E-003  1.660316899342887E-003  0.000000000000000E+000
  1.660316899342888E-002  1.494285209408599E-002  1.328253519474311E-002
  1.162221829540022E-002  9.961901396057328E-003  8.301584496714441E-003
  6.641267597371552E-003  4.980950698028665E-003  3.320633798685776E-003
  1.660316899342887E-003  0.000000000000000E+000  1.660316899342888E-002
  1.494285209408599E-002  1.328253519474311E-002  1.162221829540022E-002
  9.961901396057328E-003  8.301584496714441E-003  6.641267597371552E-003
  4.980950698028665E-003  3.320633798685776E-003  1.660316899342887E-003
  0.000000000000000E+000  1.660316899342888E-002  1.494285209408599E-002
  1.328253519474311E-002  1.162221829540022E-002  9.961901396057328E-003
  8.301584496714441E-003  6.641267597371552E-003  4.980950698028665E-003
  3.320633798685776E-003  1.660316899342887E-003  0.000000000000000E+000
  1.660316899342888E-002  1.494285209408599E-002  1.328253519474311E-002
  1.162221829540022E-002  9.961901396057328E-003  8.301584496714441E-003
  6.641267597371552E-003  4.980950698028665E-003  3.320633798685776E-003
  1.660316899342887E-003  0.000000000000000E+000  1.660316899342888E-002
  1.494285209408599E-002  1.328253519474311E-002  1.162221829540022E-002
  9.961901396057328E-003  8.301584496714441E-003  6.641267597371552E-003
  4.980950698028665E-003  3.320633798685776E-003  1.660316899342887E-003
  0.000000000000000E+000  1.660316899342888E-002  1.494285209408599E-002
  1.328253519474311E-002  1.162221829540022E-002  9.961901396057328E-003
  8.301584496714441E-003  6.641267597371552E-003  4.980950698028665E-003
  3.320633798685776E-003  1.660316899342887E-003  0.000000000000000E+000
  1.660316899342888E-002  1.494285209408599E-002  1.328253519474311E-002
  1.162221829540022E-002  9.961901396057328E-003  8.301584496714441E-003
  6.641267597371552E-003  4.980950698028665E-003  3.320633798685776E-003
  1.660316899342887E-003  0.000000000000000E+000  1.660316899342888E-002
  1.494285209408599E-002  1.328253519474311E-002  1.162221829540022E-002
  9.961901396057328E-003  8.301584496714441E-003  6.641267597371552E-003
  4.980950698028665E-003  3.320633798685776E-003  1.660316899342887E-003
  0.000000000000000E+000  1.660316899342888E-002  1.494285209408599E-002
  1.328253519474311E-002  1.162221829540022E-002  9.961901396057328E-003
  8.301584496714441E-003  6.641267597371552E-003  4.980950698028665E-003
  3.320633798685776E-003  1.660316899342887E-003  0.000000000000000E+000
  1.660316899342888E-002  1.494285209408599E-002  1.328253519474311E-002
  1.162221829540022E-002  9.961901396057328E-003  8.301584496714441E-003
  6.641267597371552E-003  4.980950698028665E-003  3.320633798685776E-003
  1.660316899342887E-003  0.000000000000000E+000  1.660316899342888E-002
  1.494285209408599E-002  1.328253519474311E-002  1.162221829540022E-002
  9.961901396057328E-003  8.301584496714441E-003  6.641267597371552E-003
  4.980950698028665E-003  3.320633798685776E-003  1.660316899342887E-003
  0.000000000000000E+000  1.660316899342888E-002  1.494285209408599E-002
  1.328253519474311E-002  1.162221829540022E-002  9.961901396057328E-003
  8.301584496714441E-003  6.641267597371552E-003  4.980950698028665E-003
  3.320633798685776E-003  1.660316899342887E-003  0.000000000000000E+000
  1.660316899342888E-002  1.494285209408599E-002  1.328253519474311E-002
  1.162221829540022E-002  9.961901396057328E-003  8.301584496714441E-003
  6.641267597371552E-003  4.980950698028665E-003  3.320633798685776E-003
  1.660316899342887E-003  0.000000000000000E+000  1.660316899342888E-002
  1.494285209408599E-002  1.328253519474311E-002  1.162221829540022E-002
  9.961901396057328E-003  8.301584496714441E-003  6.641267597371552E-003
  4.980950698028665E-003  3.320633798685776E-003  1.660316899342887E-003
  0.000000000000000E+000  1.660316899342888E-002  1.494285209408599E-002
  1.328253519474311E-002  1.162221829540022E-002  9.961901396057328E-003
  8.301584496714441E-003  6.641267597371552E-003  4.980950698028665E-003
  3.320633798685776E-003  1.660316899342887E-003  0.000000000000000E+000
  1.660316899342888E-002  1.494285209408599E-002  1.328253519474311E-002
  1.162221829540022E-002  9.961901396057328E-003  8.301584496714441E-003
  6.641267597371552E-003  4.980950698028665E-003  3.320633798685776E-003
  1.660316899342887E-003  0.000000000000000E+000  1.660316899342888E-002
  1.494285209408599E-002  1.328253519474311E-002  1.162221829540022E-002
  9.961901396057328E-003  8.301584496714441E-003  6.641267597371552E-003
  4.980950698028665E-003  3.320633798685776E-003  1.660316899342887E-003
  0.000000000000000E+000
  4.495278360599062E-002  6.710532416933111E-002  8.569744293616859E-002
  0.102480228306070       0.117611793453129       0.131133840165505     
  0.142920356878065       0.152647559387519       0.160119218295914     
  0.165390041165349       7.411399639828173E-002  0.112133998674481     
  0.143651165501616       0.171952556158426       0.197382597209868     
  0.220059833780182       0.239796007485339       0.256129513425726     
  0.268871006764734       0.278507148881540       9.699364039106521E-002
  0.149865231413176       0.193228503806019       0.231813180860210     
  0.266343027264483       0.297044133023638       0.323675533238133     
  0.345763388844447       0.363009222909075       0.375238747286376     
  0.111595606919992       0.174718004726265       0.226627773796963     
  0.272578920586485       0.313517013469890       0.349706222173330     
  0.380928908782403       0.406697291125878       0.426606258400409     
  0.440000290432467       0.119752814425728       0.188395955627470     
  0.244880484115718       0.294618810556731       0.338853146405247     
  0.377782130985125       0.411212534833500       0.438672972841505     
  0.459547816846647       0.472876064543895       0.125511966911618     
  0.196763076895322       0.254828304816183       0.305495163474473     
  0.350292561091515       0.389535152189732       0.423054103496416     
  0.450457126515977       0.471214739708638       0.484265679961367     
  0.133897608609547       0.207786028128014       0.266753852443639     
  0.317382430238914       0.361621805579872       0.400083860893251     
  0.432841848223327       0.459681588505638       0.480089345031579     
  0.492901972296858       0.148892955992938       0.228097548897992     
  0.289632749871567       0.341431130317535       0.386067511808579     
  0.424541068076320       0.457174282608781       0.483904108080136     
  0.504308354904141       0.517213982536909       0.172159558291593     
  0.260691217988064       0.327723473171868       0.383058383103748     
  0.430052590224891       0.470139783702303       0.503925383942289     
  0.531535935853477       0.552657817518341       0.566109201791384     
  0.203462168432286       0.305331043432851       0.380821958578387     
  0.442076947684303       0.493397983624409       0.536721818978633     
  0.572962735613184       0.602449755364056       0.624984034249243     
  0.639374682492974       0.241477233880701       0.360044829985959     
  0.446478773733951       0.515651762474621       0.572938256614120     
  0.620834133339309       0.660594879165017       0.692768301349912     
  0.717272007885006       0.732916430293782       0.284687582034000     
  0.422561337516682       0.521850477895260       0.600461221056788     
  0.664953108275043       0.718437290864688       0.762534276335432     
  0.798022157429342       0.824946724985116       0.842103575515443     
  0.331857501946559       0.491000783372102       0.604571736151714     
  0.693747339036653       0.766359812656696       0.826177002909969     
  0.875210302076606       0.914475310265194       0.944144652765097     
  0.963000014007763       0.382452291271993       0.564498559906530     
  0.693495786944227       0.794102253519863       0.875507060140718     
  0.942182125359151       0.996551124964743        1.03988268697380     
   1.07249114609680        1.09315814025588       0.437161382078211     
  0.643899533320687       0.789452037817157       0.902250085095833     
  0.992955676790440        1.06681515579292        1.12671948159597     
   1.17423110059808        1.20983919341574        1.23235304392672     
  0.498260619339092       0.732219759891074       0.895727463230852     
   1.02148931506913        1.12186383539604        1.20300772811078     
   1.26838631176999        1.31994303945038        1.35840869373825     
   1.38268195046187       0.570588514622584       0.835678520040270     
   1.01890985135135        1.15829300999756        1.26835793880288     
   1.35644775768815        1.42677826203552        1.48181274007224     
   1.52264242443267        1.54836204916580       0.663522225621972     
  0.965412340630355        1.17001680627283        1.32293494195774     
   1.44184102945965        1.53574227802997        1.60984515151630     
   1.66726148886975        1.70955120969660        1.73614483890840     
  0.780057942000854        1.12303322286930        1.34867514244318     
   1.51328496579624        1.63882985444203        1.73643024303380     
   1.81246809525467        1.87077968678523        1.91342478956395     
   1.94023452661375       0.878072302771807        1.25240968043734     
   1.49151490588840        1.66131379538471        1.78780131695973     
   1.88418270281377        1.95799939426825        2.01376000750701     
   2.05397497291368        2.07898793680997       0.908408602979854     
   1.28446085965508        1.51763477074604        1.67870745652894     
   1.79579830673394        1.88314004321113        1.94873255830129     
   1.99724234089549        2.03124896170187        2.05152662742759     
  0.868530704979063        1.21128536667817        1.41574224267760     
   1.55318463585940        1.65122765558882        1.72331743706062     
   1.77673223182533        1.81555278886184        1.84190905717357     
   1.85650503512227       0.763441621992015        1.03978090212937     
   1.19769209644799        1.30200472314315        1.37586887577140     
   1.42997969473037        1.46996995784937        1.49897257248120     
   1.51868901557841        1.52985055203905       0.589961977825257     
  0.777299947224100       0.882611531514393       0.952255024765946     
   1.00172220819499        1.03808138745141        1.06507486775289     
   1.08485851852164        1.09888845760746        1.10927578681330     
  0.360100336971627       0.464980473807612       0.524468012680951     
  0.564024263377322       0.592218884093005       0.612992263989903     
  0.628440432148158       0.639752547325268       0.647616662605551     
  0.652350266636068     
  0.000000000000000E+000  0.000000000000000E+000  0.000000000000000E+000
  0.000000000000000E+000  0.000000000000000E+000  0.000000000000000E+000
  0.000000000000000E+000  0.000000000000000E+000  0.000000000000000E+000
  0.000000000000000E+000  0.000000000000000E+000  0.000000000000000E+000
  0.000000000000000E+000  0.000000000000000E+000  0.000000000000000E+000
  0.000000000000000E+000  0.000000000000000E+000  0.000000000000000E+000
  0.000000000000000E+000  0.000000000000000E+000  0.000000000000000E+000
  0.000000000000000E+000  0.000000000000000E+000  0.000000000000000E+000
  0.000000000000000E+000  0.000000000000000E+000  0.000000000000000E+000
  0.000000000000000E+000  0.000000000000000E+000  0.000000000000000E+000
  0.000000000000000E+000  0.000000000000000E+000  0.000000000000000E+000
  0.000000000000000E+000  0.000000000000000E+000  0.000000000000000E+000
  0.000000000000000E+000  0.000000000000000E+000  0.000000000000000E+000
  0.000000000000000E+000  0.000000000000000E+000  0.000000000000000E+000
  0.000000000000000E+000  0.000000000000000E+000  0.000000000000000E+000
  0.000000000000000E+000  0.000000000000000E+000  0.000000000000000E+000
  0.000000000000000E+000  0.000000000000000E+000  0.000000000000000E+000
  0.000000000000000E+000  0.000000000000000E+000  0.000000000000000E+000
  0.000000000000000E+000  0.000000000000000E+000  0.000000000000000E+000
  0.000000000000000E+000  0.000000000000000E+000  0.000000000000000E+000
  0.000000000000000E+000  0.000000000000000E+000  0.000000000000000E+000
  0.000000000000000E+000  0.000000000000000E+000  0.000000000000000E+000
  0.000000000000000E+000  0.000000000000000E+000  0.000000000000000E+000
  0.000000000000000E+000  0.000000000000000E+000  0.000000000000000E+000
  0.000000000000000E+000  0.000000000000000E+000  0.000000000000000E+000
  0.000000000000000E+000  0.000000000000000E+000  0.000000000000000E+000
  0.000000000000000E+000  0.000000000000000E+000  0.000000000000000E+000
  0.000000000000000E+000  0.000000000000000E+000  0.000000000000000E+000
  0.000000000000000E+000  0.000000000000000E+000  0.000000000000000E+000
  0.000000000000000E+000  0.000000000000000E+000  0.000000000000000E+000
  0.000000000000000E+000  0.000000000000000E+000  0.000000000000000E+000
  0.000000000000000E+000  0.000000000000000E+000  0.000000000000000E+000
  0.000000000000000E+000  0.000000000000000E+000  0.000000000000000E+000
  0.000000000000000E+000  0.000000000000000E+000  0.000000000000000E+000
  0.000000000000000E+000  0.000000000000000E+000  0.000000000000000E+000
  0.000000000000000E+000  0.000000000000000E+000  0.000000000000000E+000
  0.000000000000000E+000  0.000000000000000E+000  0.000000000000000E+000
  0.000000000000000E+000  0.000000000000000E+000  0.000000000000000E+000
  0.000000000000000E+000  0.000000000000000E+000  0.000000000000000E+000