 Title = "Wing and Wake"
 VARIABLES = "X" "Y" "Z" "GAM" "skew"
 Zone I=   11 J=   26 K=1  T="Blade"
 DATAPACKING=BLOCK
 VARLOCATION=([4]=CELLCENTERED,[5]=CELLCENTERED)
 -2.468663503129827E-002 -3.684650247478247E-002 -4.900636991826696E-002
 -6.116623736175180E-002 -7.332610480523638E-002 -8.548597224872088E-002
 -9.764583969220554E-002 -0.109805707135690      -0.121965574579175     
 -0.134125442022659      -0.146285309466144      -2.756970146378726E-002
 -3.972956890727194E-002 -5.188943635075625E-002 -6.404930379424092E-002
 -7.620917123772558E-002 -8.836903868121007E-002 -0.100528906124695     
 -0.112688773568179      -0.124848641011664      -0.137008508455148     
 -0.149168375898633      -3.617343308135369E-002 -4.833330052483843E-002
 -6.049316796832281E-002 -7.265303541180740E-002 -8.481290285529192E-002
 -9.697277029877661E-002 -0.109132637742261      -0.121292505185746     
 -0.133452372629231      -0.145612240072715      -0.157772107516199     
 -5.036214389676905E-002 -6.252201134025312E-002 -7.468187878373810E-002
 -8.684174622722253E-002 -9.900161367070695E-002 -0.111161481114191     
 -0.123321348557676      -0.135481216001161      -0.147641083444645     
 -0.159800950888130      -0.171960818331614      -6.991206946454814E-002
 -8.207193690803238E-002 -9.423180435151697E-002 -0.106391671795002     
 -0.118551539238486      -0.130711406681971      -0.142871274125455     
 -0.155031141568940      -0.167191009012424      -0.179350876455909     
 -0.191510743899394      -9.451489577992811E-002 -0.106674763223412     
 -0.118834630666897      -0.130994498110382      -0.143154365553866     
 -0.155314232997351      -0.167474100440835      -0.179633967884320     
 -0.191793835327805      -0.203953702771289      -0.216113570214774     
 -0.123782621574899      -0.135942489018384      -0.148102356461869     
 -0.160262223905353      -0.172422091348838      -0.184581958792322     
 -0.196741826235806      -0.208901693679292      -0.221061561122776     
 -0.233221428566261      -0.245381296009745      -0.157253677329983     
 -0.169413544773468      -0.181573412216953      -0.193733279660437     
 -0.205893147103922      -0.218053014547407      -0.230212881990891     
 -0.242372749434376      -0.254532616877860      -0.266692484321345     
 -0.278852351764830      -0.194400204501283      -0.206560071944768     
 -0.218719939388252      -0.230879806831737      -0.243039674275221     
 -0.255199541718706      -0.267359409162191      -0.279519276605675     
 -0.291679144049160      -0.303839011492644      -0.315998878936129     
 -0.234636380165047      -0.246796247608531      -0.258956115052016     
 -0.271115982495500      -0.283275849938985      -0.295435717382470     
 -0.307595584825955      -0.319755452269439      -0.331915319712924     
 -0.344075187156409      -0.356235054599892      -0.277327655795131     
 -0.289487523238616      -0.301647390682101      -0.313807258125585     
 -0.325967125569070      -0.338126993012554      -0.350286860456039     
 -0.362446727899523      -0.374606595343008      -0.386766462786493     
 -0.398926330229977      -0.321800764472317      -0.333960631915803     
 -0.346120499359287      -0.358280366802771      -0.370440234246257     
 -0.382600101689742      -0.394759969133226      -0.406919836576710     
 -0.419079704020194      -0.431239571463679      -0.443399438907164     
 -0.367354338705820      -0.379514206149306      -0.391674073592789     
 -0.403833941036274      -0.415993808479758      -0.428153675923243     
 -0.440313543366729      -0.452473410810212      -0.464633278253697     
 -0.476793145697181      -0.488953013140667      -0.413269971417589     
 -0.425429838861075      -0.437589706304560      -0.449749573748044     
 -0.461909441191527      -0.474069308635012      -0.486229176078497     
 -0.498389043521982      -0.510548910965466      -0.522708778408952     
 -0.534868645852436      -0.458823545651092      -0.470983413094576     
 -0.483143280538061      -0.495303147981546      -0.507463015425030     
 -0.519622882868514      -0.531782750311999      -0.543942617755484     
 -0.556102485198969      -0.568262352642453      -0.580422220085938     
 -0.503296654328279      -0.515456521771763      -0.527616389215249     
 -0.539776256658733      -0.551936124102217      -0.564095991545700     
 -0.576255858989185      -0.588415726432672      -0.600575593876156     
 -0.612735461319639      -0.624895328763125      -0.545987929958363     
 -0.558147797401847      -0.570307664845332      -0.582467532288817     
 -0.594627399732302      -0.606787267175786      -0.618947134619271     
 -0.631107002062755      -0.643266869506240      -0.655426736949724     
 -0.667586604393209      -0.586224105622126      -0.598383973065611     
 -0.610543840509096      -0.622703707952582      -0.634863575396065     
 -0.647023442839550      -0.659183310283034      -0.671343177726519     
 -0.683503045170003      -0.695662912613489      -0.707822780056972     
 -0.623370632793426      -0.635530500236910      -0.647690367680396     
 -0.659850235123881      -0.672010102567364      -0.684169970010848     
 -0.696329837454334      -0.708489704897819      -0.720649572341304     
 -0.732809439784788      -0.744969307228272      -0.656841688548510     
 -0.669001555991995      -0.681161423435480      -0.693321290878964     
 -0.705481158322449      -0.717641025765934      -0.729800893209418     
 -0.741960760652903      -0.754120628096386      -0.766280495539872     
 -0.778440362983356      -0.686109414343481      -0.698269281786967     
 -0.710429149230451      -0.722589016673935      -0.734748884117419     
 -0.746908751560904      -0.759068619004390      -0.771228486447874     
 -0.783388353891358      -0.795548221334843      -0.807708088778327     
 -0.710712240658861      -0.722872108102347      -0.735031975545831     
 -0.747191842989315      -0.759351710432799      -0.771511577876285     
 -0.783671445319769      -0.795831312763253      -0.807991180206739     
 -0.820151047650222      -0.832310915093709      -0.730262166226642     
 -0.742422033670126      -0.754581901113610      -0.766741768557096     
 -0.778901636000579      -0.791061503444063      -0.803221370887548     
 -0.815381238331034      -0.827541105774516      -0.839700973218003     
 -0.851860840661487      -0.744450877042056      -0.756610744485542     
 -0.768770611929025      -0.780930479372511      -0.793090346815994     
 -0.805250214259482      -0.817410081702962      -0.829569949146448     
 -0.841729816589933      -0.853889684033417      -0.866049551476901     
 -0.753054608659623      -0.765214476103108      -0.777374343546592     
 -0.789534210990076      -0.801694078433561      -0.813853945877044     
 -0.826013813320529      -0.838173680764014      -0.850333548207497     
 -0.862493415650983      -0.874653283094468      -0.755937675092113     
 -0.768097542535595      -0.780257409979081      -0.792417277422565     
 -0.804577144866049      -0.816737012309535      -0.828896879753018     
 -0.841056747196505      -0.853216614639990      -0.865376482083472     
 -0.877536349526958     
 -0.267787084045920      -0.253217133066228      -0.238647182086535     
 -0.224077231106843      -0.209507280127151      -0.194937329147458     
 -0.180367378167766      -0.165797427188074      -0.151227476208381     
 -0.136657525228689      -0.122087574248997      -0.270193249015088     
 -0.255623298035395      -0.241053347055703      -0.226483396076011     
 -0.211913445096319      -0.197343494116626      -0.182773543136934     
 -0.168203592157241      -0.153633641177549      -0.139063690197857     
 -0.124493739218164      -0.277373797263654      -0.262803846283962     
 -0.248233895304270      -0.233663944324577      -0.219093993344884     
 -0.204524042365192      -0.189954091385500      -0.175384140405808     
 -0.160814189426115      -0.146244238446423      -0.131674287466731     
 -0.289215487256287      -0.274645536276595      -0.260075585296903     
 -0.245505634317211      -0.230935683337518      -0.216365732357826     
 -0.201795781378133      -0.187225830398441      -0.172655879418749     
 -0.158085928439057      -0.143515977459364      -0.305531568467922     
 -0.290961617488229      -0.276391666508536      -0.261821715528844     
 -0.247251764549152      -0.232681813569459      -0.218111862589768     
 -0.203541911610075      -0.188971960630383      -0.174402009650690     
 -0.159832058670998      -0.326064726551094      -0.311494775571401     
 -0.296924824591709      -0.282354873612017      -0.267784922632325     
 -0.253214971652632      -0.238645020672940      -0.224075069693248     
 -0.209505118713555      -0.194935167733863      -0.180365216754170     
 -0.350491141336919      -0.335921190357227      -0.321351239377534     
 -0.306781288397843      -0.292211337418150      -0.277641386438457     
 -0.263071435458765      -0.248501484479073      -0.233931533499380     
 -0.219361582519688      -0.204791631539996      -0.378425593672592     
 -0.363855642692900      -0.349285691713208      -0.334715740733515     
 -0.320145789753823      -0.305575838774130      -0.291005887794438     
 -0.276435936814746      -0.261865985835053      -0.247296034855361     
 -0.232726083875669      -0.409427540557545      -0.394857589577853     
 -0.380287638598161      -0.365717687618469      -0.351147736638776     
 -0.336577785659084      -0.322007834679392      -0.307437883699699     
 -0.292867932720007      -0.278297981740315      -0.263728030760623     
 -0.443008062769739      -0.428438111790046      -0.413868160810354     
 -0.399298209830662      -0.384728258850970      -0.370158307871277     
 -0.355588356891585      -0.341018405911893      -0.326448454932200     
 -0.311878503952509      -0.297308552972816      -0.478637575413854     
 -0.464067624434162      -0.449497673454470      -0.434927722474778     
 -0.420357771495085      -0.405787820515393      -0.391217869535701     
 -0.376647918556007      -0.362077967576316      -0.347508016596624     
 -0.332938065616931      -0.515754179791455      -0.501184228811763     
 -0.486614277832070      -0.472044326852378      -0.457474375872686     
 -0.442904424892993      -0.428334473913301      -0.413764522933609     
 -0.399194571953916      -0.384624620974225      -0.370054669994532     
 -0.553772524879120      -0.539202573899430      -0.524632622919737     
 -0.510062671940044      -0.495492720960351      -0.480922769980660     
 -0.466352819000968      -0.451782868021275      -0.437212917041582     
 -0.422642966061890      -0.408073015082198      -0.592093038663762     
 -0.577523087684070      -0.562953136704378      -0.548383185724685     
 -0.533813234744992      -0.519243283765299      -0.504673332785607     
 -0.490103381805916      -0.475533430826224      -0.460963479846531     
 -0.446393528866839      -0.630111383751428      -0.615541432771736     
 -0.600971481792043      -0.586401530812352      -0.571831579832659     
 -0.557261628852966      -0.542691677873274      -0.528121726893582     
 -0.513551775913889      -0.498981824934197      -0.484411873954505     
 -0.667227988129028      -0.652658037149335      -0.638088086169644     
 -0.623518135189952      -0.608948184210259      -0.594378233230566     
 -0.579808282250874      -0.565238331271183      -0.550668380291491     
 -0.536098429311797      -0.521528478332105      -0.702857500773144     
 -0.688287549793452      -0.673717598813759      -0.659147647834066     
 -0.644577696854375      -0.630007745874683      -0.615437794894990     
 -0.600867843915297      -0.586297892935606      -0.571727941955912     
 -0.557157990976221      -0.736438022985337      -0.721868072005645     
 -0.707298121025953      -0.692728170046261      -0.678158219066568     
 -0.663588268086876      -0.649018317107183      -0.634448366127491     
 -0.619878415147799      -0.605308464168107      -0.590738513188414     
 -0.767439969870291      -0.752870018890598      -0.738300067910906     
 -0.723730116931215      -0.709160165951522      -0.694590214971829     
 -0.680020263992137      -0.665450313012445      -0.650880362032752     
 -0.636310411053060      -0.621740460073368      -0.795374422205964     
 -0.780804471226273      -0.766234520246579      -0.751664569266887     
 -0.737094618287196      -0.722524667307502      -0.707954716327811     
 -0.693384765348118      -0.678814814368425      -0.664244863388732     
 -0.649674912409040      -0.819800836991789      -0.805230886012096     
 -0.790660935032406      -0.776090984052712      -0.761521033073019     
 -0.746951082093328      -0.732381131113635      -0.717811180133944     
 -0.703241229154249      -0.688671278174558      -0.674101327194865     
 -0.840333995074961      -0.825764044095270      -0.811194093115577     
 -0.796624142135885      -0.782054191156191      -0.767484240176500     
 -0.752914289196807      -0.738344338217114      -0.723774387237424     
 -0.709204436257731      -0.694634485278038      -0.856650076286597     
 -0.842080125306903      -0.827510174327211      -0.812940223347518     
 -0.798370272367825      -0.783800321388135      -0.769230370408442     
 -0.754660419428749      -0.740090468449056      -0.725520517469366     
 -0.710950566489671      -0.868491766279230      -0.853921815299537     
 -0.839351864319845      -0.824781913340153      -0.810211962360460     
 -0.795642011380768      -0.781072060401076      -0.766502109421383     
 -0.751932158441691      -0.737362207461998      -0.722792256482305     
 -0.875672314527794      -0.861102363548103      -0.846532412568410     
 -0.831962461588718      -0.817392510609025      -0.802822559629332     
 -0.788252608649640      -0.773682657669948      -0.759112706690255     
 -0.744542755710565      -0.729972804730871      -0.878078479496962     
 -0.863508528517270      -0.848938577537578      -0.834368626557885     
 -0.819798675578194      -0.805228724598502      -0.790658773618809     
 -0.776088822639117      -0.761518871659425      -0.746948920679730     
 -0.732378969700040     
  1.660316899342888E-002  1.494285209408599E-002  1.328253519474311E-002
  1.162221829540022E-002  9.961901396057328E-003  8.301584496714441E-003
  6.641267597371552E-003  4.980950698028665E-003  3.320633798685776E-003
  1.660316899342887E-003  0.000000000000000E+000  1.660316899342888E-002
  1.494285209408599E-002  1.328253519474311E-002  1.162221829540022E-002
  9.961901396057328E-003  8.301584496714441E-003  6.641267597371552E-003
  4.980950698028665E-003  3.320633798685776E-003  1.660316899342887E-003
  0.000000000000000E+000  1.660316899342888E-002  1.494285209408599E-002
  1.328253519474311E-002  1.162221829540022E-002  9.961901396057328E-003
  8.301584496714441E-003  6.641267597371552E-003  4.980950698028665E-003
  3.320633798685776E-003  1.660316899342887E-003  0.000000000000000E+000
  1.660316899342888E-002  1.494285209408599E-002  1.328253519474311E-002
  1.162221829540022E-002  9.961901396057328E-003  8.301584496714441E-003
  6.641267597371552E-003  4.980950698028665E-003  3.320633798685776E-003
  1.660316899342887E-003  0.000000000000000E+000  1.660316899342888E-002
  1.494285209408599E-002  1.328253519474311E-002  1.162221829540022E-002
  9.961901396057328E-003  8.301584496714441E-003  6.641267597371552E-003
  4.980950698028665E-003  3.320633798685776E-003  1.660316899342887E-003
  0.000000000000000E+000  1.660316899342888E-002  1.494285209408599E-002
  1.328253519474311E-002  1.162221829540022E-002  9.961901396057328E-003
  8.301584496714441E-003  6.641267597371552E-003  4.980950698028665E-003
  3.320633798685776E-003  1.660316899342887E-003  0.000000000000000E+000
  1.660316899342888E-002  1.494285209408599E-002  1.328253519474311E-002
  1.162221829540022E-002  9.961901396057328E-003  8.301584496714441E-003
  6.641267597371552E-003  4.980950698028665E-003  3.320633798685776E-003
  1.660316899342887E-003  0.000000000000000E+000  1.660316899342888E-002
  1.494285209408599E-002  1.328253519474311E-002  1.162221829540022E-002
  9.961901396057328E-003  8.301584496714441E-003  6.641267597371552E-003
  4.980950698028665E-003  3.320633798685776E-003  1.660316899342887E-003
  0.000000000000000E+000  1.660316899342888E-002  1.494285209408599E-002
  1.328253519474311E-002  1.162221829540022E-002  9.961901396057328E-003
  8.301584496714441E-003  6.641267597371552E-003  4.980950698028665E-003
  3.320633798685776E-003  1.660316899342887E-003  0.000000000000000E+000
  1.660316899342888E-002  1.494285209408599E-002  1.328253519474311E-002
  1.162221829540022E-002  9.961901396057328E-003  8.301584496714441E-003
  6.641267597371552E-003  4.980950698028665E-003  3.320633798685776E-003
  1.660316899342887E-003  0.000000000000000E+000  1.660316899342888E-002
  1.494285209408599E-002  1.328253519474311E-002  1.162221829540022E-002
  9.961901396057328E-003  8.301584496714441E-003  6.641267597371552E-003
  4.980950698028665E-003  3.320633798685776E-003  1.660316899342887E-003
  0.000000000000000E+000  1.660316899342888E-002  1.494285209408599E-002
  1.328253519474311E-002  1.162221829540022E-002  9.961901396057328E-003
  8.301584496714441E-003  6.641267597371552E-003  4.980950698028665E-003
  3.320633798685776E-003  1.660316899342887E-003  0.000000000000000E+000
  1.660316899342888E-002  1.494285209408599E-002  1.328253519474311E-002
  1.162221829540022E-002  9.961901396057328E-003  8.301584496714441E-003
  6.641267597371552E-003  4.980950698028665E-003  3.320633798685776E-003
  1.660316899342887E-003  0.000000000000000E+000  1.660316899342888E-002
  1.494285209408599E-002  1.328253519474311E-002  1.162221829540022E-002
  9.961901396057328E-003  8.301584496714441E-003  6.641267597371552E-003
  4.980950698028665E-003  3.320633798685776E-003  1.660316899342887E-003
  0.000000000000000E+000  1.660316899342888E-002  1.494285209408599E-002
  1.328253519474311E-002  1.162221829540022E-002  9.961901396057328E-003
  8.301584496714441E-003  6.641267597371552E-003  4.980950698028665E-003
  3.320633798685776E-003  1.660316899342887E-003  0.000000000000000E+000
  1.660316899342888E-002  1.494285209408599E-002  1.328253519474311E-002
  1.162221829540022E-002  9.961901396057328E-003  8.301584496714441E-003
  6.641267597371552E-003  4.980950698028665E-003  3.320633798685776E-003
  1.660316899342887E-003  0.000000000000000E+000  1.660316899342888E-002
  1.494285209408599E-002  1.328253519474311E-002  1.162221829540022E-002
  9.961901396057328E-003  8.301584496714441E-003  6.641267597371552E-003
  4.980950698028665E-003  3.320633798685776E-003  1.660316899342887E-003
  0.000000000000000E+000  1.660316899342888E-002  1.494285209408599E-002
  1.328253519474311E-002  1.162221829540022E-002  9.961901396057328E-003
  8.301584496714441E-003  6.641267597371552E-003  4.980950698028665E-003
  3.320633798685776E-003  1.660316899342887E-003  0.000000000000000E+000
  1.660316899342888E-002  1.494285209408599E-002  1.328253519474311E-002
  1.162221829540022E-002  9.961901396057328E-003  8.301584496714441E-003
  6.641267597371552E-003  4.980950698028665E-003  3.320633798685776E-003
  1.660316899342887E-003  0.000000000000000E+000  1.660316899342888E-002
  1.494285209408599E-002  1.328253519474311E-002  1.162221829540022E-002
  9.961901396057328E-003  8.301584496714441E-003  6.641267597371552E-003
  4.980950698028665E-003  3.320633798685776E-003  1.660316899342887E-003
  0.000000000000000E+000  1.660316899342888E-002  1.494285209408599E-002
  1.328253519474311E-002  1.162221829540022E-002  9.961901396057328E-003
  8.301584496714441E-003  6.641267597371552E-003  4.980950698028665E-003
  3.320633798685776E-003  1.660316899342887E-003  0.000000000000000E+000
  1.660316899342888E-002  1.494285209408599E-002  1.328253519474311E-002
  1.162221829540022E-002  9.961901396057328E-003  8.301584496714441E-003
  6.641267597371552E-003  4.980950698028665E-003  3.320633798685776E-003
  1.660316899342887E-003  0.000000000000000E+000  1.660316899342888E-002
  1.494285209408599E-002  1.328253519474311E-002  1.162221829540022E-002
  9.961901396057328E-003  8.301584496714441E-003  6.641267597371552E-003
  4.980950698028665E-003  3.320633798685776E-003  1.660316899342887E-003
  0.000000000000000E+000  1.660316899342888E-002  1.494285209408599E-002
  1.328253519474311E-002  1.162221829540022E-002  9.961901396057328E-003
  8.301584496714441E-003  6.641267597371552E-003  4.980950698028665E-003
  3.320633798685776E-003  1.660316899342887E-003  0.000000000000000E+000
  1.660316899342888E-002  1.494285209408599E-002  1.328253519474311E-002
  1.162221829540022E-002  9.961901396057328E-003  8.301584496714441E-003
  6.641267597371552E-003  4.980950698028665E-003  3.320633798685776E-003
  1.660316899342887E-003  0.000000000000000E+000  1.660316899342888E-002
  1.494285209408599E-002  1.328253519474311E-002  1.162221829540022E-002
  9.961901396057328E-003  8.301584496714441E-003  6.641267597371552E-003
  4.980950698028665E-003  3.320633798685776E-003  1.660316899342887E-003
  0.000000000000000E+000
  9.749435072938812E-003  1.850247235434698E-002  2.717507652495808E-002
  3.590354662536164E-002  4.469363357136481E-002  5.334143251142021E-002
  6.121156484551819E-002  6.783157779260063E-002  7.298750127565458E-002
  7.590798172688522E-002  1.763151054017917E-002  3.260280977497897E-002
  4.717840919427579E-002  6.160661409034528E-002  7.592292114650241E-002
  8.985733518041936E-002  0.102589609507668       0.113447193074455     
  0.121968401300250       0.127332697355715       2.835064899011753E-002
  4.986816239091852E-002  7.000940330227495E-002  8.927752398888746E-002
  0.107734741327301       0.125161872519809       0.141029427854701     
  0.154739987346204       0.165606952224517       0.172761082275766     
  4.217836323185910E-002  7.070435547150739E-002  9.615496188643700E-002
  0.119653794701293       0.141352455677121       0.161139456687573     
  0.178760786973331       0.193866250697847       0.205902524737637     
  0.213906164513839       5.921294380183493E-002  9.567247413850946E-002
  0.126706614546983       0.154493314007884       0.179497691429908     
  0.201802178253186       0.221319487079021       0.237798883611195     
  0.250814317184992       0.259437817833500       7.954246458072589E-002
  0.125142311545504       0.162354291757950       0.194758608918466     
  0.223353896319059       0.248470846170216       0.270189718758839     
  0.288353331566434       0.302524146992278       0.311757594262584     
  0.103449926588973       0.159607217710650       0.203805015371074     
  0.241348389977996       0.273934547624174       0.302210705283363     
  0.326378528816406       0.346374479983846       0.361860653814032     
  0.371887294002483       0.131357117064850       0.199842040029762     
  0.252189316412086       0.295701382547132       0.332861613495979     
  0.364714330090583       0.391675160856417       0.413809389599667     
  0.430854056911509       0.441835573588749       0.163776668450944     
  0.246659023128268       0.308566400399853       0.359108162484075     
  0.401665750659245       0.437739311665530       0.468011856134738     
  0.492702818060864       0.511621521255832       0.523773074232143     
  0.200943774311002       0.300474152800726       0.373530289298089     
  0.432327919432712       0.481252489534703       0.522310288620441     
  0.556493197416296       0.584220413305687       0.605391427188113     
  0.618962425676304       0.242822496911664       0.361252830243366     
  0.447046132552807       0.515315260598038       0.571564946658011     
  0.618381986238763       0.657103009985000       0.688356185209998     
  0.712141348913966       0.727360772274965       0.289060533421345     
  0.428448341629070       0.528410929291945       0.607247996699568     
  0.671697472114582       0.724980224572167       0.768802546125332     
  0.804012157631666       0.830714031710590       0.847759300292271     
  0.339070943403283       0.501173171957433       0.616516599726105     
  0.706837395633505       0.780204238252304       0.840518764263241     
  0.889880394639174       0.929368189659055       0.959202460815795     
  0.978196080649696       0.392284575712506       0.578547311412253     
  0.710233760352072       0.812734378450814       0.895533882751086     
  0.963260969886607        1.01843386660934        1.06238182209251     
   1.09545682492011        1.11644797797230       0.448437305623098     
  0.660100818320729       0.808887418926431       0.924053734536765     
   1.01658427539876        1.09188633959749        1.15293864273421     
   1.20135198927489        1.23763436210202        1.26057706850048     
  0.507743996667243       0.746060550469607       0.912621877827612     
   1.04078477193517        1.14313521297929        1.22592621115877     
   1.29266284001327        1.34529683477264        1.38454349999303     
   1.40925508970311       0.571805489209746       0.838596328450690     
   1.02377203918833        1.16516346376553        1.27715865913877     
   1.36699652790960        1.43881619024718        1.49501934752506     
   1.53663835089570        1.56269908263701       0.649891293076832     
  0.949455602012666        1.15464326103256        1.30924959628647     
   1.43016766282388        1.52599291008783        1.60170449410512     
   1.66028630169022        1.70321840246141        1.72988082664035     
  0.771963242160290        1.11368515985821        1.34049696759261     
   1.50772926305832        1.63643034265399        1.73702945596464     
   1.81554516183227        1.87565191815358        1.91932851970337     
   1.94633319022331       0.928656991402967        1.31885516895200     
   1.56702495326810        1.74438921351615        1.87759631901156     
   1.97973735808227        2.05831486991133        2.11785279874955     
   2.16085885323180        2.18753126056438       0.999069680680093     
   1.40730138406894        1.65863031164040        1.83225523622047     
   1.95905697398899        2.05421176473831        2.12610225625867     
   2.17958248639761        2.21729812673676        2.23990798135352     
  0.962761280944868        1.34066229679064        1.56533956139443     
   1.71638402340105        1.82447541104325        1.90436780265159     
   1.96393631185060        2.00752811754453        2.03733178567196     
   2.05390124092188       0.843907270433939        1.14970817285419     
   1.32457653785446        1.44031734371617        1.52259122058204     
   1.58319157281930        1.62826651803103        1.66117779148164     
   1.68366917197353        1.69632216907958       0.649502534493675     
  0.857017981373280       0.974037745800724        1.05167349982874     
   1.10706560365669        1.14801475225899        1.17861502601188     
   1.20118364927530        1.21723207950381        1.22892294659159     
  0.395700292842301       0.511944232908348       0.578127612075231     
  0.622295609433509       0.653926080515861       0.677368509878984     
  0.694916582866503       0.707847423873415       0.716865631818772     
  0.722224602651196     
  0.000000000000000E+000  0.000000000000000E+000  0.000000000000000E+000
  0.000000000000000E+000  0.000000000000000E+000  0.000000000000000E+000
  0.000000000000000E+000  0.000000000000000E+000  0.000000000000000E+000
  0.000000000000000E+000  0.000000000000000E+000  0.000000000000000E+000
  0.000000000000000E+000  0.000000000000000E+000  0.000000000000000E+000
  0.000000000000000E+000  0.000000000000000E+000  0.000000000000000E+000
  0.000000000000000E+000  0.000000000000000E+000  0.000000000000000E+000
  0.000000000000000E+000  0.000000000000000E+000  0.000000000000000E+000
  0.000000000000000E+000  0.000000000000000E+000  0.000000000000000E+000
  0.000000000000000E+000  0.000000000000000E+000  0.000000000000000E+000
  0.000000000000000E+000  0.000000000000000E+000  0.000000000000000E+000
  0.000000000000000E+000  0.000000000000000E+000  0.000000000000000E+000
  0.000000000000000E+000  0.000000000000000E+000  0.000000000000000E+000
  0.000000000000000E+000  0.000000000000000E+000  0.000000000000000E+000
  0.000000000000000E+000  0.000000000000000E+000  0.000000000000000E+000
  0.000000000000000E+000  0.000000000000000E+000  0.000000000000000E+000
  0.000000000000000E+000  0.000000000000000E+000  0.000000000000000E+000
  0.000000000000000E+000  0.000000000000000E+000  0.000000000000000E+000
  0.000000000000000E+000  0.000000000000000E+000  0.000000000000000E+000
  0.000000000000000E+000  0.000000000000000E+000  0.000000000000000E+000
  0.000000000000000E+000  0.000000000000000E+000  0.000000000000000E+000
  0.000000000000000E+000  0.000000000000000E+000  0.000000000000000E+000
  0.000000000000000E+000  0.000000000000000E+000  0.000000000000000E+000
  0.000000000000000E+000  0.000000000000000E+000  0.000000000000000E+000
  0.000000000000000E+000  0.000000000000000E+000  0.000000000000000E+000
  0.000000000000000E+000  0.000000000000000E+000  0.000000000000000E+000
  0.000000000000000E+000  0.000000000000000E+000  0.000000000000000E+000
  0.000000000000000E+000  0.000000000000000E+000  0.000000000000000E+000
  0.000000000000000E+000  0.000000000000000E+000  0.000000000000000E+000
  0.000000000000000E+000  0.000000000000000E+000  0.000000000000000E+000
  0.000000000000000E+000  0.000000000000000E+000  0.000000000000000E+000
  0.000000000000000E+000  0.000000000000000E+000  0.000000000000000E+000
  0.000000000000000E+000  0.000000000000000E+000  0.000000000000000E+000
  0.000000000000000E+000  0.000000000000000E+000  0.000000000000000E+000
  0.000000000000000E+000  0.000000000000000E+000  0.000000000000000E+000
  0.000000000000000E+000  0.000000000000000E+000  0.000000000000000E+000
  0.000000000000000E+000  0.000000000000000E+000  0.000000000000000E+000
  0.000000000000000E+000  0.000000000000000E+000  0.000000000000000E+000
  0.000000000000000E+000  0.000000000000000E+000  0.000000000000000E+000