 Title = "Wing and Wake"
 VARIABLES = "X" "Y" "Z" "GAM" "skew"
 Zone I=   17 J=   20 K=1  T="Blade 01"
 DATAPACKING=BLOCK
 VARLOCATION=([4]=CELLCENTERED,[5]=CELLCENTERED)
 -0.430513849156728      -0.429910303135933      -0.428359101540890     
 -0.426024476763531      -0.422821316475762      -0.418619247491487     
 -0.413384201101008      -0.407273511463084      -0.400654849541472     
 -0.394046760918678      -0.387962931959865      -0.382762736931115     
 -0.378601189324501      -0.375432782772237      -0.373116208866839     
 -0.371472061902647      -0.370337574347187      -0.438573982141874     
 -0.437970436121080      -0.436419234526037      -0.434084609748679     
 -0.430881449460910      -0.426679380476634      -0.421444334086155     
 -0.415333644448232      -0.408714982526619      -0.402106893903825     
 -0.396023064945013      -0.390822869916263      -0.386661322309649     
 -0.383492915757385      -0.381176341851987      -0.379532194887794     
 -0.378397707332335      -0.449972847415614      -0.449369301394820     
 -0.447818099799777      -0.445483475022418      -0.442280314734649     
 -0.438078245750374      -0.432843199359895      -0.426732509721971     
 -0.420113847800358      -0.413505759177565      -0.407421930218752     
 -0.402221735190002      -0.398060187583388      -0.394891781031124     
 -0.392575207125726      -0.390931060161533      -0.389796572606074     
 -0.465886074784703      -0.465282528763908      -0.463731327168865     
 -0.461396702391506      -0.458193542103738      -0.453991473119462     
 -0.448756426728984      -0.442645737091060      -0.436027075169447     
 -0.429418986546653      -0.423335157587840      -0.418134962559091     
 -0.413973414952476      -0.410805008400213      -0.408488434494814     
 -0.406844287530622      -0.405709799975163      -0.487704880984103     
 -0.487101334963308      -0.485550133368266      -0.483215508590907     
 -0.480012348303137      -0.475810279318862      -0.470575232928384     
 -0.464464543290461      -0.457845881368848      -0.451237792746054     
 -0.445153963787241      -0.439953768758491      -0.435792221151876     
 -0.432623814599613      -0.430307240694214      -0.428663093730022     
 -0.427528606174563      -0.516893284434774      -0.516289738413980     
 -0.514738536818937      -0.512403912041578      -0.509200751753809     
 -0.504998682769533      -0.499763636379055      -0.493652946741131     
 -0.487034284819518      -0.480426196196724      -0.474342367237912     
 -0.469142172209163      -0.464980624602548      -0.461812218050284     
 -0.459495644144885      -0.457851497180693      -0.456717009625234     
 -0.554680271533983      -0.554076725513188      -0.552525523918145     
 -0.550190899140786      -0.546987738853017      -0.542785669868742     
 -0.537550623478263      -0.531439933840339      -0.524821271918727     
 -0.518213183295933      -0.512129354337120      -0.506929159308370     
 -0.502767611701756      -0.499599205149493      -0.497282631244094     
 -0.495638484279901      -0.494503996724442      -0.601574420769445     
 -0.600970874748650      -0.599419673153607      -0.597085048376249     
 -0.593881888088480      -0.589679819104204      -0.584444772713725     
 -0.578334083075801      -0.571715421154189      -0.565107332531395     
 -0.559023503572583      -0.553823308543833      -0.549661760937218     
 -0.546493354384955      -0.544176780479556      -0.542532633515364     
 -0.541398145959905      -0.656811361407036      -0.656207815386242     
 -0.654656613791199      -0.652321989013841      -0.649118828726071     
 -0.644916759741795      -0.639681713351318      -0.633571023713394     
 -0.626952361791780      -0.620344273168988      -0.614260444210174     
 -0.609060249181424      -0.604898701574810      -0.601730295022547     
 -0.599413721117148      -0.597769574152956      -0.596635086597496     
 -0.718012967662670      -0.717409421641875      -0.715858220046833     
 -0.713523595269475      -0.710320434981706      -0.706118365997430     
 -0.700883319606951      -0.694772629969027      -0.688153968047415     
 -0.681545879424621      -0.675462050465809      -0.670261855437060     
 -0.666100307830444      -0.662931901278180      -0.660615327372783     
 -0.658971180408590      -0.657836692853131      -0.781391579173724     
 -0.780788033152931      -0.779236831557888      -0.776902206780529     
 -0.773699046492760      -0.769496977508485      -0.764261931118005     
 -0.758151241480083      -0.751532579558469      -0.744924490935674     
 -0.738840661976862      -0.733640466948113      -0.729478919341498     
 -0.726310512789236      -0.723993938883836      -0.722349791919644     
 -0.721215304364185      -0.842593185429360      -0.841989639408564     
 -0.840438437813522      -0.838103813036164      -0.834900652748395     
 -0.830698583764119      -0.825463537373640      -0.819352847735716     
 -0.812734185814104      -0.806126097191310      -0.800042268232496     
 -0.794842073203747      -0.790680525597132      -0.787512119044869     
 -0.785195545139471      -0.783551398175278      -0.782416910619818     
 -0.897830126066951      -0.897226580046156      -0.895675378451114     
 -0.893340753673755      -0.890137593385986      -0.885935524401710     
 -0.880700478011231      -0.874589788373309      -0.867971126451695     
 -0.861363037828902      -0.855279208870089      -0.850079013841339     
 -0.845917466234723      -0.842749059682461      -0.840432485777062     
 -0.838788338812869      -0.837653851257410      -0.944724275302413     
 -0.944120729281618      -0.942569527686576      -0.940234902909217     
 -0.937031742621448      -0.932829673637172      -0.927594627246694     
 -0.921483937608771      -0.914865275687157      -0.908257187064364     
 -0.902173358105551      -0.896973163076801      -0.892811615470187     
 -0.889643208917924      -0.887326635012526      -0.885682488048333     
 -0.884548000492873      -0.982511262401621      -0.981907716380826     
 -0.980356514785785      -0.978021890008425      -0.974818729720657     
 -0.970616660736381      -0.965381614345902      -0.959270924707979     
 -0.952652262786366      -0.946044174163572      -0.939960345204759     
 -0.934760150176010      -0.930598602569395      -0.927430196017131     
 -0.925113622111732      -0.923469475147541      -0.922334987592081     
  -1.01169966585229       -1.01109611983150       -1.00954491823646     
  -1.00721029345909       -1.00400713317133      -0.999805064187052     
 -0.994570017796572      -0.988459328158650      -0.981840666237035     
 -0.975232577614244      -0.969148748655430      -0.963948553626680     
 -0.959787006020065      -0.956618599467802      -0.954302025562404     
 -0.952657878598211      -0.951523391042753       -1.03351847205169     
  -1.03291492603090       -1.03136372443586       -1.02902909965850     
  -1.02582593937073       -1.02162387038645       -1.01638882399597     
  -1.01027813435805       -1.00365947243644      -0.997051383813644     
 -0.990967554854829      -0.985767359826079      -0.981605812219466     
 -0.978437405667202      -0.976120831761805      -0.974476684797613     
 -0.973342197242152       -1.04943169942078       -1.04882815339999     
  -1.04727695180494       -1.04494232702759       -1.04173916673982     
  -1.03753709775554       -1.03230205136506       -1.02619136172714     
  -1.01957269980553       -1.01296461118273       -1.00688078222392     
  -1.00168058719517      -0.997519039588554      -0.994350633036292     
 -0.992034059130893      -0.990389912166701      -0.989255424611240     
  -1.06083056469452       -1.06022701867372       -1.05867581707868     
  -1.05634119230132       -1.05313803201356       -1.04893596302928     
  -1.04370091663880       -1.03759022700088       -1.03097156507927     
  -1.02436347645647       -1.01827964749766       -1.01307945246891     
  -1.00891790486229       -1.00574949831003       -1.00343292440463     
  -1.00178877744044       -1.00065428988498       -1.06889069767967     
  -1.06828715165887       -1.06673595006383       -1.06440132528647     
  -1.06119816499870       -1.05699609601443       -1.05176104962395     
  -1.04565035998602       -1.03903169806441       -1.03242360944162     
  -1.02633978048280       -1.02113958545406       -1.01697803784744     
  -1.01380963129518       -1.01149305738978       -1.00984891042559     
  -1.00871442287013     
  6.127486936345632E-002  6.292834912121538E-002  6.717803406525408E-002
  7.357399175252687E-002  8.234939663334979E-002  9.386142018551741E-002
  0.108203397332822       0.124944294089873       0.143076835990200     
  0.161180411192101       0.177847720206611       0.192094218270029     
  0.203495229114946       0.212175422369504       0.218521927736046     
  0.223026246595597       0.226134298249904       6.421694420134556E-002
  6.587042395910483E-002  7.012010890314375E-002  7.651606659041679E-002
  8.529147147123937E-002  9.680349502340732E-002  0.111145472170711     
  0.127886368927763       0.146018910828089       0.164122486029990     
  0.180789795044501       0.195036293107919       0.206437303952836     
  0.215117497207393       0.221464002573935       0.225968321433487     
  0.229076373087794       6.837770864086073E-002  7.003118839862001E-002
  7.428087334265861E-002  8.067683102993155E-002  8.945223591075396E-002
  0.100964259462922       0.115306236610227       0.132047133367277     
  0.150179675267605       0.168283250469505       0.184950559484016     
  0.199197057547434       0.210598068392351       0.219278261646908     
  0.225624767013451       0.230129085873002       0.233237137527309     
  7.418628598300706E-002  7.583976574076615E-002  8.008945068480453E-002
  8.648540837207749E-002  9.526081325290056E-002  0.106772836805068     
  0.121114813952372       0.137855710709423       0.155988252609751     
  0.174091827811651       0.190759136826162       0.205005634889580     
  0.216406645734496       0.225086838989054       0.231433344355596     
  0.235937663215148       0.239045714869455       8.215049213572627E-002
  8.380397189348542E-002  8.805365683752368E-002  9.444961452479721E-002
  0.103225019405620       0.114737042957787       0.129079020105092     
  0.145819916862143       0.163952458762470       0.182056033964370     
  0.198723342978881       0.212969841042299       0.224370851887216     
  0.233051045141774       0.239397550508316       0.243901869367867     
  0.247009921022174       9.280471676311564E-002  9.445819652087457E-002
  9.870788146491291E-002  0.105103839152186       0.113879244033009     
  0.125391267585177       0.139733244732481       0.156474141489532     
  0.174606683389859       0.192710258591759       0.209377567606270     
  0.223624065669689       0.235025076514605       0.243705269769163     
  0.250051775135705       0.254556093995256       0.257664145649563     
  0.106597559157788       0.108251038915547       0.112500723859586     
  0.118896681546859       0.127672086427682       0.139184109979849     
  0.153526087127154       0.170266983884204       0.188399525784531     
  0.206503100986432       0.223170410000943       0.237416908064360     
  0.248817918909277       0.257498112163836       0.263844617530377     
  0.268348936389929       0.271456988044235       0.123714658436934     
  0.125368138194694       0.129617823138732       0.136013780826005     
  0.144789185706829       0.156301209258996       0.170643186406300     
  0.187384083163351       0.205516625063678       0.223620200265579     
  0.240287509280090       0.254534007343508       0.265935018188424     
  0.274615211442982       0.280961716809524       0.285466035669075     
  0.288574087323383       0.143877007305288       0.145530487063047     
  0.149780172007086       0.156176129694358       0.164951534575181     
  0.176463558127349       0.190805535274654       0.207546432031704     
  0.225678973932031       0.243782549133932       0.260449858148443     
  0.274696356211861       0.286097367056777       0.294777560311336     
  0.301124065677877       0.305628384537429       0.308736436191736     
  0.166216552587596       0.167870032345355       0.172119717289394     
  0.178515674976667       0.187291079857490       0.198803103409658     
  0.213145080556962       0.229885977314013       0.248018519214341     
  0.266122094416241       0.282789403430752       0.297035901494169     
  0.308436912339086       0.317117105593644       0.323463610960186     
  0.327967929819737       0.331075981474045       0.189350738900732     
  0.191004218658492       0.195253903602531       0.201649861289803     
  0.210425266170625       0.221937289722794       0.236279266870098     
  0.253020163627149       0.271152705527476       0.289256280729377     
  0.305923589743888       0.320170087807305       0.331571098652222     
  0.340251291906780       0.346597797273322       0.351102116132873     
  0.354210167787181       0.211690284183041       0.213343763940800     
  0.217593448884839       0.223989406572112       0.232764811452935     
  0.244276835005102       0.258618812152407       0.275359708909457     
  0.293492250809785       0.311595826011686       0.328263135026196     
  0.342509633089613       0.353910643934531       0.362590837189089     
  0.368937342555631       0.373441661415181       0.376549713069488     
  0.231852633051394       0.233506112809152       0.237755797753192     
  0.244151755440465       0.252927160321288       0.264439183873455     
  0.278781161020760       0.295522057777811       0.313654599678138     
  0.331758174880038       0.348425483894549       0.362671981957967     
  0.374072992802884       0.382753186057442       0.389099691423984     
  0.393604010283535       0.396712061937842       0.248969732330541     
  0.250623212088301       0.254872897032339       0.261268854719611     
  0.270044259600435       0.281556283152601       0.295898260299907     
  0.312639157056957       0.330771698957284       0.348875274159185     
  0.365542583173696       0.379789081237114       0.391190092082031     
  0.399870285336588       0.406216790703130       0.410721109562682     
  0.413829161216989       0.262762574725213       0.264416054482972     
  0.268665739427012       0.275061697114285       0.283837101995107     
  0.295349125547275       0.309691102694579       0.326431999451631     
  0.344564541351957       0.362668116553858       0.379335425568368     
  0.393581923631786       0.404982934476703       0.413663127731261     
  0.420009633097802       0.424513951957354       0.427622003611661     
  0.273416799352602       0.275070279110362       0.279319964054401     
  0.285715921741673       0.294491326622496       0.306003350174664     
  0.320345327321969       0.337086224079019       0.355218765979346     
  0.373322341181247       0.389989650195758       0.404236148259175     
  0.415637159104092       0.424317352358650       0.430663857725191     
  0.435168176584743       0.438276228239051       0.281381005505322     
  0.283034485263082       0.287284170207120       0.293680127894393     
  0.302455532775216       0.313967556327383       0.328309533474687     
  0.345050430231739       0.363182972132066       0.381286547333967     
  0.397953856348476       0.412200354411895       0.423601365256811     
  0.432281558511369       0.438628063877911       0.443132382737464     
  0.446240434391770       0.287189582847468       0.288843062605226     
  0.293092747549266       0.299488705236539       0.308264110117362     
  0.319776133669530       0.334118110816834       0.350859007573885     
  0.368991549474212       0.387095124676113       0.403762433690623     
  0.418008931754041       0.429409942598957       0.438090135853516     
  0.444436641220058       0.448940960079609       0.452049011733916     
  0.291350347286983       0.293003827044742       0.297253511988781     
  0.303649469676053       0.312424874556877       0.323936898109044     
  0.338278875256349       0.355019772013400       0.373152313913727     
  0.391255889115628       0.407923198130139       0.422169696193555     
  0.433570707038472       0.442250900293030       0.448597405659572     
  0.453101724519124       0.456209776173430       0.294292422124873     
  0.295945901882632       0.300195586826671       0.306591544513943     
  0.315366949394767       0.326878972946933       0.341220950094238     
  0.357961846851289       0.376094388751617       0.394197963953516     
  0.410865272968027       0.425111771031446       0.436512781876363     
  0.445192975130919       0.451539480497462       0.456043799357014     
  0.459151851011321     
  0.000000000000000E+000 -2.059343134687265E-004 -5.967154644315922E-004
 -1.288783171780619E-003 -2.918895425121374E-003 -5.573396522451829E-003
 -9.167771110016921E-003 -1.357217217812317E-002 -1.838427778900438E-002
 -2.320014315178548E-002 -2.763890288787426E-002 -3.143970394449276E-002
 -3.447539076661003E-002 -3.679168976136481E-002 -3.848528426515805E-002
 -3.968682183911389E-002 -4.051708164825068E-002  0.000000000000000E+000
 -2.059343134687265E-004 -5.967154644315922E-004 -1.288783171780619E-003
 -2.918895425121374E-003 -5.573396522451829E-003 -9.167771110016921E-003
 -1.357217217812317E-002 -1.838427778900438E-002 -2.320014315178548E-002
 -2.763890288787426E-002 -3.143970394449276E-002 -3.447539076661003E-002
 -3.679168976136481E-002 -3.848528426515805E-002 -3.968682183911389E-002
 -4.051708164825068E-002  0.000000000000000E+000 -2.059343134687265E-004
 -5.967154644315922E-004 -1.288783171780619E-003 -2.918895425121374E-003
 -5.573396522451829E-003 -9.167771110016921E-003 -1.357217217812317E-002
 -1.838427778900438E-002 -2.320014315178548E-002 -2.763890288787426E-002
 -3.143970394449276E-002 -3.447539076661003E-002 -3.679168976136481E-002
 -3.848528426515805E-002 -3.968682183911389E-002 -4.051708164825068E-002
  0.000000000000000E+000 -2.059343134687265E-004 -5.967154644315922E-004
 -1.288783171780619E-003 -2.918895425121374E-003 -5.573396522451829E-003
 -9.167771110016921E-003 -1.357217217812317E-002 -1.838427778900438E-002
 -2.320014315178548E-002 -2.763890288787426E-002 -3.143970394449276E-002
 -3.447539076661003E-002 -3.679168976136481E-002 -3.848528426515805E-002
 -3.968682183911389E-002 -4.051708164825068E-002  0.000000000000000E+000
 -2.059343134687265E-004 -5.967154644315922E-004 -1.288783171780619E-003
 -2.918895425121374E-003 -5.573396522451829E-003 -9.167771110016921E-003
 -1.357217217812317E-002 -1.838427778900438E-002 -2.320014315178548E-002
 -2.763890288787426E-002 -3.143970394449276E-002 -3.447539076661003E-002
 -3.679168976136481E-002 -3.848528426515805E-002 -3.968682183911389E-002
 -4.051708164825068E-002  0.000000000000000E+000 -2.059343134687265E-004
 -5.967154644315922E-004 -1.288783171780619E-003 -2.918895425121374E-003
 -5.573396522451829E-003 -9.167771110016921E-003 -1.357217217812317E-002
 -1.838427778900438E-002 -2.320014315178548E-002 -2.763890288787426E-002
 -3.143970394449276E-002 -3.447539076661003E-002 -3.679168976136481E-002
 -3.848528426515805E-002 -3.968682183911389E-002 -4.051708164825068E-002
  0.000000000000000E+000 -2.059343134687265E-004 -5.967154644315922E-004
 -1.288783171780619E-003 -2.918895425121374E-003 -5.573396522451829E-003
 -9.167771110016921E-003 -1.357217217812317E-002 -1.838427778900438E-002
 -2.320014315178548E-002 -2.763890288787426E-002 -3.143970394449276E-002
 -3.447539076661003E-002 -3.679168976136481E-002 -3.848528426515805E-002
 -3.968682183911389E-002 -4.051708164825068E-002  0.000000000000000E+000
 -2.059343134687265E-004 -5.967154644315922E-004 -1.288783171780619E-003
 -2.918895425121374E-003 -5.573396522451829E-003 -9.167771110016921E-003
 -1.357217217812317E-002 -1.838427778900438E-002 -2.320014315178548E-002
 -2.763890288787426E-002 -3.143970394449276E-002 -3.447539076661003E-002
 -3.679168976136481E-002 -3.848528426515805E-002 -3.968682183911389E-002
 -4.051708164825068E-002  0.000000000000000E+000 -2.059343134687265E-004
 -5.967154644315922E-004 -1.288783171780619E-003 -2.918895425121374E-003
 -5.573396522451829E-003 -9.167771110016921E-003 -1.357217217812317E-002
 -1.838427778900438E-002 -2.320014315178548E-002 -2.763890288787426E-002
 -3.143970394449276E-002 -3.447539076661003E-002 -3.679168976136481E-002
 -3.848528426515805E-002 -3.968682183911389E-002 -4.051708164825068E-002
  0.000000000000000E+000 -2.059343134687265E-004 -5.967154644315922E-004
 -1.288783171780619E-003 -2.918895425121374E-003 -5.573396522451829E-003
 -9.167771110016921E-003 -1.357217217812317E-002 -1.838427778900438E-002
 -2.320014315178548E-002 -2.763890288787426E-002 -3.143970394449276E-002
 -3.447539076661003E-002 -3.679168976136481E-002 -3.848528426515805E-002
 -3.968682183911389E-002 -4.051708164825068E-002  0.000000000000000E+000
 -2.059343134687265E-004 -5.967154644315922E-004 -1.288783171780619E-003
 -2.918895425121374E-003 -5.573396522451829E-003 -9.167771110016921E-003
 -1.357217217812317E-002 -1.838427778900438E-002 -2.320014315178548E-002
 -2.763890288787426E-002 -3.143970394449276E-002 -3.447539076661003E-002
 -3.679168976136481E-002 -3.848528426515805E-002 -3.968682183911389E-002
 -4.051708164825068E-002  0.000000000000000E+000 -2.059343134687265E-004
 -5.967154644315922E-004 -1.288783171780619E-003 -2.918895425121374E-003
 -5.573396522451829E-003 -9.167771110016921E-003 -1.357217217812317E-002
 -1.838427778900438E-002 -2.320014315178548E-002 -2.763890288787426E-002
 -3.143970394449276E-002 -3.447539076661003E-002 -3.679168976136481E-002
 -3.848528426515805E-002 -3.968682183911389E-002 -4.051708164825068E-002
  0.000000000000000E+000 -2.059343134687265E-004 -5.967154644315922E-004
 -1.288783171780619E-003 -2.918895425121374E-003 -5.573396522451829E-003
 -9.167771110016921E-003 -1.357217217812317E-002 -1.838427778900438E-002
 -2.320014315178548E-002 -2.763890288787426E-002 -3.143970394449276E-002
 -3.447539076661003E-002 -3.679168976136481E-002 -3.848528426515805E-002
 -3.968682183911389E-002 -4.051708164825068E-002  0.000000000000000E+000
 -2.059343134687265E-004 -5.967154644315922E-004 -1.288783171780619E-003
 -2.918895425121374E-003 -5.573396522451829E-003 -9.167771110016921E-003
 -1.357217217812317E-002 -1.838427778900438E-002 -2.320014315178548E-002
 -2.763890288787426E-002 -3.143970394449276E-002 -3.447539076661003E-002
 -3.679168976136481E-002 -3.848528426515805E-002 -3.968682183911389E-002
 -4.051708164825068E-002  0.000000000000000E+000 -2.059343134687265E-004
 -5.967154644315922E-004 -1.288783171780619E-003 -2.918895425121374E-003
 -5.573396522451829E-003 -9.167771110016921E-003 -1.357217217812317E-002
 -1.838427778900438E-002 -2.320014315178548E-002 -2.763890288787426E-002
 -3.143970394449276E-002 -3.447539076661003E-002 -3.679168976136481E-002
 -3.848528426515805E-002 -3.968682183911389E-002 -4.051708164825068E-002
  0.000000000000000E+000 -2.059343134687265E-004 -5.967154644315922E-004
 -1.288783171780619E-003 -2.918895425121374E-003 -5.573396522451829E-003
 -9.167771110016921E-003 -1.357217217812317E-002 -1.838427778900438E-002
 -2.320014315178548E-002 -2.763890288787426E-002 -3.143970394449276E-002
 -3.447539076661003E-002 -3.679168976136481E-002 -3.848528426515805E-002
 -3.968682183911389E-002 -4.051708164825068E-002  0.000000000000000E+000
 -2.059343134687265E-004 -5.967154644315922E-004 -1.288783171780619E-003
 -2.918895425121374E-003 -5.573396522451829E-003 -9.167771110016921E-003
 -1.357217217812317E-002 -1.838427778900438E-002 -2.320014315178548E-002
 -2.763890288787426E-002 -3.143970394449276E-002 -3.447539076661003E-002
 -3.679168976136481E-002 -3.848528426515805E-002 -3.968682183911389E-002
 -4.051708164825068E-002  0.000000000000000E+000 -2.059343134687265E-004
 -5.967154644315922E-004 -1.288783171780619E-003 -2.918895425121374E-003
 -5.573396522451829E-003 -9.167771110016921E-003 -1.357217217812317E-002
 -1.838427778900438E-002 -2.320014315178548E-002 -2.763890288787426E-002
 -3.143970394449276E-002 -3.447539076661003E-002 -3.679168976136481E-002
 -3.848528426515805E-002 -3.968682183911389E-002 -4.051708164825068E-002
  0.000000000000000E+000 -2.059343134687265E-004 -5.967154644315922E-004
 -1.288783171780619E-003 -2.918895425121374E-003 -5.573396522451829E-003
 -9.167771110016921E-003 -1.357217217812317E-002 -1.838427778900438E-002
 -2.320014315178548E-002 -2.763890288787426E-002 -3.143970394449276E-002
 -3.447539076661003E-002 -3.679168976136481E-002 -3.848528426515805E-002
 -3.968682183911389E-002 -4.051708164825068E-002  0.000000000000000E+000
 -2.059343134687265E-004 -5.967154644315922E-004 -1.288783171780619E-003
 -2.918895425121374E-003 -5.573396522451829E-003 -9.167771110016921E-003
 -1.357217217812317E-002 -1.838427778900438E-002 -2.320014315178548E-002
 -2.763890288787426E-002 -3.143970394449276E-002 -3.447539076661003E-002
 -3.679168976136481E-002 -3.848528426515805E-002 -3.968682183911389E-002
 -4.051708164825068E-002
 -6.822134685539494E-002 -0.133642834568220      -0.142909295654470     
 -7.245040623670906E-002  8.208359524223448E-003  7.592135220847455E-002
  0.132776452423506       0.170761125249477       0.197470005275783     
  0.215639231305762       0.227024924276155       0.232227875761788     
  0.234606192164676       0.234559587258448       0.233809108108882     
  0.233440912694808      -7.635642945446332E-002 -0.152097710816322     
 -0.164310451365114      -7.665181864217202E-002  3.690995126394994E-002
  0.140722784445762       0.230347517599137       0.292989795782949     
  0.337639233858912       0.368480592756361       0.388523996464808     
  0.399525734589647       0.406444881909249       0.410306761551377     
  0.412640617715419       0.413792729052360      -7.104389491051133E-002
 -0.141286908313023      -0.145684824962071      -4.256732155668454E-002
  9.508913505737437E-002  0.228448918390089       0.347638259369706     
  0.434991346013322       0.498674491494974       0.543579527122674     
  0.573857087167685       0.592337938233290       0.604746090428574     
  0.612095969078976       0.616031760818401       0.617561147034648     
 -5.619769290165209E-002 -0.110500031087616      -9.748700619507332E-002
  2.842112443878584E-002  0.193143831015847       0.356681859631464     
  0.506609719469625       0.621198817971061       0.706940451602755     
  0.768611126361863       0.811043711370073       0.837749955475223     
  0.855165710209778       0.864991314527064       0.869879218708106     
  0.871672921134296      -3.162531948118910E-002 -5.952234727235755E-002
 -1.878277220957399E-002  0.140651691982357       0.341723588594725     
  0.542351257758908       0.728386956666303       0.874844357164388     
  0.986657156909284        1.06799811833179        1.12406428729050     
   1.15921955690621        1.18132848149450        1.19342448797480     
   1.19934181473575        1.20155898505941       4.150320078252904E-003
  1.467787815319624E-002  9.519311586149659E-002  0.301506800864454     
  0.552076987262833       0.801398410483621        1.03303820398094     
   1.21853166511195        1.36157242375644        1.46590410555395     
   1.53744083186948        1.58198017644269        1.60941947361566     
   1.62433936996404        1.63171457722016        1.63459217615517     
  5.283507938630150E-002  0.115628137500900       0.249798385226551     
  0.518508966611651       0.834329404149637        1.14698887577100     
   1.43682508000727        1.67105006422996        1.85226976613646     
   1.98426920858094        2.07432052470887        2.13023448011979     
   2.16438397891447        2.18302565083104        2.19235468558164     
   2.19611810339791       0.115728327153086       0.246007849702568     
  0.448969671258077       0.796832280596777        1.19500066642960     
   1.58716850452953        1.94945826366310        2.24373939216601     
   2.47148314620997        2.63689446488796        2.74922358600778     
   2.81886856894945        2.86115488616451        2.88426884620069     
   2.89587984689457        2.90066916917167       0.193496521970860     
  0.407152574571742       0.694395037253033        1.13805847983986     
   1.63538738213567        2.12292290078611        2.57163362566909     
   2.93709004295333        3.21952055563866        3.42387246926229     
   3.56195500278776        3.64732310786138        3.69877029764312     
   3.72676408712934        3.74076831028471        3.74663686395859     
  0.286416108626258       0.599503622284751       0.986053972183177     
   1.54068330781493        2.15193095220972        2.74833692781391     
   3.29495538426084        3.74045151071040        4.08387166206992     
   4.33130955530279        4.49766386407152        4.60011532203165     
   4.66133289067364        4.69436816406842        4.71075311004195     
   4.71772002955898       0.393624232077700       0.820963461345926     
   1.31963747792667        1.99653915206480        2.73147712584343     
   3.44456466861711        4.09467607337168        4.62382295261502     
   5.03053115017511        5.32274192075342        5.51883600882194     
   5.63967107975284        5.71168283328023        5.75042917858309     
   5.76956733616744        5.77785324997450       0.506110314880895     
   1.05248295276106        1.66556487837942        2.46382180963305     
   3.31867664413616        4.14207477077484        4.88744974118661     
   5.49181838360764        5.95483524184540        6.28739329724190     
   6.51145342394044        6.65087539237209        6.73486711513919     
   6.78065597541989        6.80353923076193        6.81367465351491     
  0.599316005206492        1.24325814970887        1.94837597914711     
   2.84216167250171        3.78806197099718        4.69101927718655     
   5.50104489877806        6.15329650897450        6.65107002427023     
   7.00932905785179        7.25292353009088        7.40702006857262     