 Title = "Wing and Wake"
 VARIABLES = "X" "Y" "Z" "GAM" "skew"
 Zone I=   17 J=   20 K=1  T="Blade 01"
 DATAPACKING=BLOCK
 VARLOCATION=([4]=CELLCENTERED,[5]=CELLCENTERED)
 -0.430513849156735      -0.429910303135939      -0.428359101540895     
 -0.426024476763538      -0.422821316475769      -0.418619247491491     
 -0.413384201101015      -0.407273511463085      -0.400654849541479     
 -0.394046760918681      -0.387962931959866      -0.382762736931117     
 -0.378601189324503      -0.375432782772239      -0.373116208866844     
 -0.371472061902651      -0.370337574347186      -0.438573982141880     
 -0.437970436121086      -0.436419234526040      -0.434084609748685     
 -0.430881449460915      -0.426679380476638      -0.421444334086163     
 -0.415333644448235      -0.408714982526624      -0.402106893903829     
 -0.396023064945018      -0.390822869916271      -0.386661322309651     
 -0.383492915757390      -0.381176341851990      -0.379532194887799     
 -0.378397707332339      -0.449972847415622      -0.449369301394823     
 -0.447818099799783      -0.445483475022424      -0.442280314734654     
 -0.438078245750375      -0.432843199359900      -0.426732509721977     
 -0.420113847800364      -0.413505759177569      -0.407421930218753     
 -0.402221735190007      -0.398060187583393      -0.394891781031129     
 -0.392575207125726      -0.390931060161534      -0.389796572606077     
 -0.465886074784712      -0.465282528763915      -0.463731327168872     
 -0.461396702391512      -0.458193542103744      -0.453991473119471     
 -0.448756426728991      -0.442645737091066      -0.436027075169452     
 -0.429418986546659      -0.423335157587843      -0.418134962559097     
 -0.413973414952477      -0.410805008400219      -0.408488434494819     
 -0.406844287530624      -0.405709799975167      -0.487704880984110     
 -0.487101334963315      -0.485550133368275      -0.483215508590916     
 -0.480012348303140      -0.475810279318867      -0.470575232928389     
 -0.464464543290465      -0.457845881368854      -0.451237792746058     
 -0.445153963787247      -0.439953768758494      -0.435792221151881     
 -0.432623814599616      -0.430307240694218      -0.428663093730024     
 -0.427528606174566      -0.516893284434782      -0.516289738413986     
 -0.514738536818946      -0.512403912041584      -0.509200751753816     
 -0.504998682769539      -0.499763636379057      -0.493652946741132     
 -0.487034284819526      -0.480426196196732      -0.474342367237917     
 -0.469142172209167      -0.464980624602553      -0.461812218050284     
 -0.459495644144884      -0.457851497180697      -0.456717009625239     
 -0.554680271533992      -0.554076725513195      -0.552525523918158     
 -0.550190899140789      -0.546987738853020      -0.542785669868742     
 -0.537550623478265      -0.531439933840346      -0.524821271918732     
 -0.518213183295939      -0.512129354337126      -0.506929159308369     
 -0.502767611701763      -0.499599205149492      -0.497282631244097     
 -0.495638484279906      -0.494503996724449      -0.601574420769448     
 -0.600970874748650      -0.599419673153607      -0.597085048376259     
 -0.593881888088490      -0.589679819104217      -0.584444772713737     
 -0.578334083075812      -0.571715421154193      -0.565107332531405     
 -0.559023503572588      -0.553823308543842      -0.549661760937218     
 -0.546493354384962      -0.544176780479562      -0.542532633515366     
 -0.541398145959909      -0.656811361407037      -0.656207815386247     
 -0.654656613791210      -0.652321989013847      -0.649118828726079     
 -0.644916759741800      -0.639681713351328      -0.633571023713406     
 -0.626952361791787      -0.620344273168992      -0.614260444210177     
 -0.609060249181426      -0.604898701574818      -0.601730295022552     
 -0.599413721117150      -0.597769574152958      -0.596635086597498     
 -0.718012967662674      -0.717409421641878      -0.715858220046839     
 -0.713523595269477      -0.710320434981713      -0.706118365997438     
 -0.700883319606957      -0.694772629969037      -0.688153968047422     
 -0.681545879424632      -0.675462050465817      -0.670261855437071     
 -0.666100307830450      -0.662931901278183      -0.660615327372788     
 -0.658971180408594      -0.657836692853136      -0.781391579173735     
 -0.780788033152941      -0.779236831557897      -0.776902206780538     
 -0.773699046492773      -0.769496977508498      -0.764261931118017     
 -0.758151241480094      -0.751532579558470      -0.744924490935684     
 -0.738840661976870      -0.733640466948117      -0.729478919341499     
 -0.726310512789248      -0.723993938883839      -0.722349791919647     
 -0.721215304364191      -0.842593185429374      -0.841989639408576     
 -0.840438437813531      -0.838103813036174      -0.834900652748400     
 -0.830698583764128      -0.825463537373648      -0.819352847735726     
 -0.812734185814113      -0.806126097191318      -0.800042268232511     
 -0.794842073203748      -0.790680525597142      -0.787512119044878     
 -0.785195545139480      -0.783551398175287      -0.782416910619821     
 -0.897830126066962      -0.897226580046169      -0.895675378451124     
 -0.893340753673768      -0.890137593385994      -0.885935524401719     
 -0.880700478011233      -0.874589788373316      -0.867971126451709     
 -0.861363037828902      -0.855279208870101      -0.850079013841351     
 -0.845917466234723      -0.842749059682471      -0.840432485777075     
 -0.838788338812876      -0.837653851257420      -0.944724275302417     
 -0.944120729281628      -0.942569527686590      -0.940234902909232     
 -0.937031742621458      -0.932829673637183      -0.927594627246704     
 -0.921483937608783      -0.914865275687164      -0.908257187064381     
 -0.902173358105563      -0.896973163076814      -0.892811615470199     
 -0.889643208917935      -0.887326635012536      -0.885682488048343     
 -0.884548000492886      -0.982511262401628      -0.981907716380840     
 -0.980356514785797      -0.978021890008426      -0.974818729720665     
 -0.970616660736393      -0.965381614345903      -0.959270924707995     
 -0.952652262786375      -0.946044174163585      -0.939960345204769     
 -0.934760150176021      -0.930598602569409      -0.927430196017143     
 -0.925113622111736      -0.923469475147554      -0.922334987592092     
  -1.01169966585229       -1.01109611983151       -1.00954491823647     
  -1.00721029345910       -1.00400713317135      -0.999805064187068     
 -0.994570017796575      -0.988459328158665      -0.981840666237035     
 -0.975232577614262      -0.969148748655450      -0.963948553626687     
 -0.959787006020079      -0.956618599467807      -0.954302025562416     
 -0.952657878598216      -0.951523391042762       -1.03351847205170     
  -1.03291492603091       -1.03136372443587       -1.02902909965851     
  -1.02582593937073       -1.02162387038646       -1.01638882399598     
  -1.01027813435807       -1.00365947243645      -0.997051383813658     
 -0.990967554854827      -0.985767359826086      -0.981605812219472     
 -0.978437405667215      -0.976120831761801      -0.974476684797617     
 -0.973342197242155       -1.04943169942080       -1.04882815339999     
  -1.04727695180496       -1.04494232702760       -1.04173916673982     
  -1.03753709775555       -1.03230205136508       -1.02619136172715     
  -1.01957269980553       -1.01296461118274       -1.00688078222393     
  -1.00168058719517      -0.997519039588565      -0.994350633036301     
 -0.992034059130901      -0.990389912166714      -0.989255424611249     
  -1.06083056469453       -1.06022701867373       -1.05867581707869     
  -1.05634119230134       -1.05313803201356       -1.04893596302930     
  -1.04370091663882       -1.03759022700088       -1.03097156507928     
  -1.02436347645647       -1.01827964749767       -1.01307945246892     
  -1.00891790486231       -1.00574949831003       -1.00343292440465     
  -1.00178877744045       -1.00065428988499       -1.06889069767968     
  -1.06828715165889       -1.06673595006384       -1.06440132528648     
  -1.06119816499872       -1.05699609601443       -1.05176104962395     
  -1.04565035998604       -1.03903169806442       -1.03242360944163     
  -1.02633978048281       -1.02113958545406       -1.01697803784746     
  -1.01380963129519       -1.01149305738979       -1.00984891042560     
  -1.00871442287014     
  6.127486936346218E-002  6.292834912122136E-002  6.717803406526182E-002
  7.357399175253415E-002  8.234939663335621E-002  9.386142018552343E-002
  0.108203397332829       0.124944294089876       0.143076835990207     
  0.161180411192104       0.177847720206614       0.192094218270034     
  0.203495229114948       0.212175422369512       0.218521927736056     
  0.223026246595606       0.226134298249906       6.421694420135257E-002
  6.587042395911236E-002  7.012010890315036E-002  7.651606659042366E-002
  8.529147147124548E-002  9.680349502341416E-002  0.111145472170718     
  0.127886368927770       0.146018910828096       0.164122486029998     
  0.180789795044510       0.195036293107926       0.206437303952843     
  0.215117497207401       0.221464002573943       0.225968321433496     
  0.229076373087803       6.837770864086821E-002  7.003118839862645E-002
  7.428087334266488E-002  8.067683102993868E-002  8.945223591076205E-002
  0.100964259462929       0.115306236610232       0.132047133367285     
  0.150179675267612       0.168283250469514       0.184950559484025     
  0.199197057547442       0.210598068392359       0.219278261646917     
  0.225624767013454       0.230129085873002       0.233237137527317     
  7.418628598301449E-002  7.583976574077310E-002  8.008945068481092E-002
  8.648540837208579E-002  9.526081325290776E-002  0.106772836805075     
  0.121114813952380       0.137855710709432       0.155988252609760     
  0.174091827811660       0.190759136826168       0.205005634889589     
  0.216406645734502       0.225086838989062       0.231433344355607     
  0.235937663215158       0.239045714869465       8.215049213573303E-002
  8.380397189349262E-002  8.805365683753026E-002  9.444961452480592E-002
  0.103225019405629       0.114737042957795       0.129079020105101     
  0.145819916862152       0.163952458762476       0.182056033964378     
  0.198723342978890       0.212969841042308       0.224370851887227     
  0.233051045141782       0.239397550508325       0.243901869367872     
  0.247009921022181       9.280471676312271E-002  9.445819652088377E-002
  9.870788146492221E-002  0.105103839152195       0.113879244033017     
  0.125391267585186       0.139733244732490       0.156474141489539     
  0.174606683389868       0.192710258591769       0.209377567606280     
  0.223624065669697       0.235025076514615       0.243705269769170     
  0.250051775135711       0.254556093995267       0.257664145649575     
  0.106597559157796       0.108251038915558       0.112500723859595     
  0.118896681546867       0.127672086427689       0.139184109979850     
  0.153526087127162       0.170266983884213       0.188399525784541     
  0.206503100986441       0.223170410000954       0.237416908064361     
  0.248817918909289       0.257498112163842       0.263844617530386     
  0.268348936389940       0.271456988044249       0.123714658436940     
  0.125368138194702       0.129617823138740       0.136013780826017     
  0.144789185706840       0.156301209259004       0.170643186406310     
  0.187384083163362       0.205516625063686       0.223620200265588     
  0.240287509280100       0.254534007343518       0.265935018188426     
  0.274615211442993       0.280961716809537       0.285466035669083     
  0.288574087323389       0.143877007305290       0.145530487063060     
  0.149780172007095       0.156176129694366       0.164951534575192     
  0.176463558127361       0.190805535274665       0.207546432031717     
  0.225678973932041       0.243782549133942       0.260449858148453     
  0.274696356211863       0.286097367056791       0.294777560311344     
  0.301124065677880       0.305628384537440       0.308736436191740     
  0.166216552587600       0.167870032345369       0.172119717289404     
  0.178515674976670       0.187291079857504       0.198803103409668     
  0.213145080556967       0.229885977314025       0.248018519214355     
  0.266122094416256       0.282789403430761       0.297035901494184     
  0.308436912339100       0.317117105593653       0.323463610960194     
  0.327967929819750       0.331075981474057       0.189350738900744     
  0.191004218658504       0.195253903602546       0.201649861289810     
  0.210425266170640       0.221937289722808       0.236279266870112     
  0.253020163627162       0.271152705527478       0.289256280729391     
  0.305923589743901       0.320170087807309       0.331571098652229     
  0.340251291906794       0.346597797273339       0.351102116132886     
  0.354210167787194       0.211690284183054       0.213343763940817     
  0.217593448884853       0.223989406572122       0.232764811452947     
  0.244276835005113       0.258618812152419       0.275359708909469     
  0.293492250809799       0.311595826011703       0.328263135026211     
  0.342509633089614       0.353910643934548       0.362590837189104     
  0.368937342555648       0.373441661415196       0.376549713069506     
  0.231852633051411       0.233506112809162       0.237755797753207     
  0.244151755440480       0.252927160321307       0.264439183873472     
  0.278781161020777       0.295522057777828       0.313654599678153     
  0.331758174880039       0.348425483894565       0.362671981957983     
  0.374072992802884       0.382753186057457       0.389099691423996     
  0.393604010283548       0.396712061937855       0.248969732330551     
  0.250623212088315       0.254872897032354       0.261268854719632     
  0.270044259600448       0.281556283152616       0.295898260299925     
  0.312639157056967       0.330771698957296       0.348875274159201     
  0.365542583173711       0.379789081237133       0.391190092082046     
  0.399870285336607       0.406216790703148       0.410721109562698     
  0.413829161217005       0.262762574725230       0.264416054482990     
  0.268665739427027       0.275061697114287       0.283837101995113     
  0.295349125547292       0.309691102694581       0.326431999451649     
  0.344564541351976       0.362668116553874       0.379335425568387     
  0.393581923631805       0.404982934476720       0.413663127731278     
  0.420009633097819       0.424513951957366       0.427622003611680     
  0.273416799352613       0.275070279110386       0.279319964054418     
  0.285715921741691       0.294491326622519       0.306003350174681     
  0.320345327321987       0.337086224079038       0.355218765979347     
  0.373322341181265       0.389989650195777       0.404236148259182     
  0.415637159104112       0.424317352358658       0.430663857725213     
  0.435168176584762       0.438276228239073       0.281381005505330     
  0.283034485263099       0.287284170207137       0.293680127894413     
  0.302455532775227       0.313967556327398       0.328309533474706     
  0.345050430231761       0.363182972132085       0.381286547333986     
  0.397953856348480       0.412200354411913       0.423601365256829     
  0.432281558511394       0.438628063877917       0.443132382737470     
  0.446240434391789       0.287189582847484       0.288843062605244     
  0.293092747549287       0.299488705236549       0.308264110117362     
  0.319776133669552       0.334118110816856       0.350859007573899     
  0.368991549474224       0.387095124676129       0.403762433690639     
  0.418008931754051       0.429409942598971       0.438090135853537     
  0.444436641220074       0.448940960079624       0.452049011733930     
  0.291350347287003       0.293003827044748       0.297253511988799     
  0.303649469676071       0.312424874556884       0.323936898109065     
  0.338278875256365       0.355019772013403       0.373152313913748     
  0.391255889115645       0.407923198130153       0.422169696193570     
  0.433570707038493       0.442250900293032       0.448597405659594     
  0.453101724519149       0.456209776173450       0.294292422124882     
  0.295945901882645       0.300195586826687       0.306591544513948     
  0.315366949394786       0.326878972946951       0.341220950094261     
  0.357961846851311       0.376094388751628       0.394197963953538     
  0.410865272968031       0.425111771031446       0.436512781876382     
  0.445192975130931       0.451539480497477       0.456043799357032     
  0.459151851011339     
  0.000000000000000E+000 -2.059343134687265E-004 -5.967154644315922E-004
 -1.288783171780619E-003 -2.918895425121374E-003 -5.573396522451829E-003
 -9.167771110016921E-003 -1.357217217812317E-002 -1.838427778900438E-002
 -2.320014315178548E-002 -2.763890288787426E-002 -3.143970394449276E-002
 -3.447539076661003E-002 -3.679168976136481E-002 -3.848528426515805E-002
 -3.968682183911389E-002 -4.051708164825068E-002  0.000000000000000E+000
 -2.059343134687265E-004 -5.967154644315922E-004 -1.288783171780619E-003
 -2.918895425121374E-003 -5.573396522451829E-003 -9.167771110016921E-003
 -1.357217217812317E-002 -1.838427778900438E-002 -2.320014315178548E-002
 -2.763890288787426E-002 -3.143970394449276E-002 -3.447539076661003E-002
 -3.679168976136481E-002 -3.848528426515805E-002 -3.968682183911389E-002
 -4.051708164825068E-002  0.000000000000000E+000 -2.059343134687265E-004
 -5.967154644315922E-004 -1.288783171780619E-003 -2.918895425121374E-003
 -5.573396522451829E-003 -9.167771110016921E-003 -1.357217217812317E-002
 -1.838427778900438E-002 -2.320014315178548E-002 -2.763890288787426E-002
 -3.143970394449276E-002 -3.447539076661003E-002 -3.679168976136481E-002
 -3.848528426515805E-002 -3.968682183911389E-002 -4.051708164825068E-002
  0.000000000000000E+000 -2.059343134687265E-004 -5.967154644315922E-004
 -1.288783171780619E-003 -2.918895425121374E-003 -5.573396522451829E-003
 -9.167771110016921E-003 -1.357217217812317E-002 -1.838427778900438E-002
 -2.320014315178548E-002 -2.763890288787426E-002 -3.143970394449276E-002
 -3.447539076661003E-002 -3.679168976136481E-002 -3.848528426515805E-002
 -3.968682183911389E-002 -4.051708164825068E-002  0.000000000000000E+000
 -2.059343134687265E-004 -5.967154644315922E-004 -1.288783171780619E-003
 -2.918895425121374E-003 -5.573396522451829E-003 -9.167771110016921E-003
 -1.357217217812317E-002 -1.838427778900438E-002 -2.320014315178548E-002
 -2.763890288787426E-002 -3.143970394449276E-002 -3.447539076661003E-002
 -3.679168976136481E-002 -3.848528426515805E-002 -3.968682183911389E-002
 -4.051708164825068E-002  0.000000000000000E+000 -2.059343134687265E-004
 -5.967154644315922E-004 -1.288783171780619E-003 -2.918895425121374E-003
 -5.573396522451829E-003 -9.167771110016921E-003 -1.357217217812317E-002
 -1.838427778900438E-002 -2.320014315178548E-002 -2.763890288787426E-002
 -3.143970394449276E-002 -3.447539076661003E-002 -3.679168976136481E-002
 -3.848528426515805E-002 -3.968682183911389E-002 -4.051708164825068E-002
  0.000000000000000E+000 -2.059343134687265E-004 -5.967154644315922E-004
 -1.288783171780619E-003 -2.918895425121374E-003 -5.573396522451829E-003
 -9.167771110016921E-003 -1.357217217812317E-002 -1.838427778900438E-002
 -2.320014315178548E-002 -2.763890288787426E-002 -3.143970394449276E-002
 -3.447539076661003E-002 -3.679168976136481E-002 -3.848528426515805E-002
 -3.968682183911389E-002 -4.051708164825068E-002  0.000000000000000E+000
 -2.059343134687265E-004 -5.967154644315922E-004 -1.288783171780619E-003
 -2.918895425121374E-003 -5.573396522451829E-003 -9.167771110016921E-003
 -1.357217217812317E-002 -1.838427778900438E-002 -2.320014315178548E-002
 -2.763890288787426E-002 -3.143970394449276E-002 -3.447539076661003E-002
 -3.679168976136481E-002 -3.848528426515805E-002 -3.968682183911389E-002
 -4.051708164825068E-002  0.000000000000000E+000 -2.059343134687265E-004
 -5.967154644315922E-004 -1.288783171780619E-003 -2.918895425121374E-003
 -5.573396522451829E-003 -9.167771110016921E-003 -1.357217217812317E-002
 -1.838427778900438E-002 -2.320014315178548E-002 -2.763890288787426E-002
 -3.143970394449276E-002 -3.447539076661003E-002 -3.679168976136481E-002
 -3.848528426515805E-002 -3.968682183911389E-002 -4.051708164825068E-002
  0.000000000000000E+000 -2.059343134687265E-004 -5.967154644315922E-004
 -1.288783171780619E-003 -2.918895425121374E-003 -5.573396522451829E-003
 -9.167771110016921E-003 -1.357217217812317E-002 -1.838427778900438E-002
 -2.320014315178548E-002 -2.763890288787426E-002 -3.143970394449276E-002
 -3.447539076661003E-002 -3.679168976136481E-002 -3.848528426515805E-002
 -3.968682183911389E-002 -4.051708164825068E-002  0.000000000000000E+000
 -2.059343134687265E-004 -5.967154644315922E-004 -1.288783171780619E-003
 -2.918895425121374E-003 -5.573396522451829E-003 -9.167771110016921E-003
 -1.357217217812317E-002 -1.838427778900438E-002 -2.320014315178548E-002
 -2.763890288787426E-002 -3.143970394449276E-002 -3.447539076661003E-002
 -3.679168976136481E-002 -3.848528426515805E-002 -3.968682183911389E-002
 -4.051708164825068E-002  0.000000000000000E+000 -2.059343134687265E-004
 -5.967154644315922E-004 -1.288783171780619E-003 -2.918895425121374E-003
 -5.573396522451829E-003 -9.167771110016921E-003 -1.357217217812317E-002
 -1.838427778900438E-002 -2.320014315178548E-002 -2.763890288787426E-002
 -3.143970394449276E-002 -3.447539076661003E-002 -3.679168976136481E-002
 -3.848528426515805E-002 -3.968682183911389E-002 -4.051708164825068E-002
  0.000000000000000E+000 -2.059343134687265E-004 -5.967154644315922E-004
 -1.288783171780619E-003 -2.918895425121374E-003 -5.573396522451829E-003
 -9.167771110016921E-003 -1.357217217812317E-002 -1.838427778900438E-002
 -2.320014315178548E-002 -2.763890288787426E-002 -3.143970394449276E-002
 -3.447539076661003E-002 -3.679168976136481E-002 -3.848528426515805E-002
 -3.968682183911389E-002 -4.051708164825068E-002  0.000000000000000E+000
 -2.059343134687265E-004 -5.967154644315922E-004 -1.288783171780619E-003
 -2.918895425121374E-003 -5.573396522451829E-003 -9.167771110016921E-003
 -1.357217217812317E-002 -1.838427778900438E-002 -2.320014315178548E-002
 -2.763890288787426E-002 -3.143970394449276E-002 -3.447539076661003E-002
 -3.679168976136481E-002 -3.848528426515805E-002 -3.968682183911389E-002
 -4.051708164825068E-002  0.000000000000000E+000 -2.059343134687265E-004
 -5.967154644315922E-004 -1.288783171780619E-003 -2.918895425121374E-003
 -5.573396522451829E-003 -9.167771110016921E-003 -1.357217217812317E-002
 -1.838427778900438E-002 -2.320014315178548E-002 -2.763890288787426E-002
 -3.143970394449276E-002 -3.447539076661003E-002 -3.679168976136481E-002
 -3.848528426515805E-002 -3.968682183911389E-002 -4.051708164825068E-002
  0.000000000000000E+000 -2.059343134687265E-004 -5.967154644315922E-004
 -1.288783171780619E-003 -2.918895425121374E-003 -5.573396522451829E-003
 -9.167771110016921E-003 -1.357217217812317E-002 -1.838427778900438E-002
 -2.320014315178548E-002 -2.763890288787426E-002 -3.143970394449276E-002
 -3.447539076661003E-002 -3.679168976136481E-002 -3.848528426515805E-002
 -3.968682183911389E-002 -4.051708164825068E-002  0.000000000000000E+000
 -2.059343134687265E-004 -5.967154644315922E-004 -1.288783171780619E-003
 -2.918895425121374E-003 -5.573396522451829E-003 -9.167771110016921E-003
 -1.357217217812317E-002 -1.838427778900438E-002 -2.320014315178548E-002
 -2.763890288787426E-002 -3.143970394449276E-002 -3.447539076661003E-002
 -3.679168976136481E-002 -3.848528426515805E-002 -3.968682183911389E-002
 -4.051708164825068E-002  0.000000000000000E+000 -2.059343134687265E-004
 -5.967154644315922E-004 -1.288783171780619E-003 -2.918895425121374E-003
 -5.573396522451829E-003 -9.167771110016921E-003 -1.357217217812317E-002
 -1.838427778900438E-002 -2.320014315178548E-002 -2.763890288787426E-002
 -3.143970394449276E-002 -3.447539076661003E-002 -3.679168976136481E-002
 -3.848528426515805E-002 -3.968682183911389E-002 -4.051708164825068E-002
  0.000000000000000E+000 -2.059343134687265E-004 -5.967154644315922E-004
 -1.288783171780619E-003 -2.918895425121374E-003 -5.573396522451829E-003
 -9.167771110016921E-003 -1.357217217812317E-002 -1.838427778900438E-002
 -2.320014315178548E-002 -2.763890288787426E-002 -3.143970394449276E-002
 -3.447539076661003E-002 -3.679168976136481E-002 -3.848528426515805E-002
 -3.968682183911389E-002 -4.051708164825068E-002  0.000000000000000E+000
 -2.059343134687265E-004 -5.967154644315922E-004 -1.288783171780619E-003
 -2.918895425121374E-003 -5.573396522451829E-003 -9.167771110016921E-003
 -1.357217217812317E-002 -1.838427778900438E-002 -2.320014315178548E-002
 -2.763890288787426E-002 -3.143970394449276E-002 -3.447539076661003E-002
 -3.679168976136481E-002 -3.848528426515805E-002 -3.968682183911389E-002
 -4.051708164825068E-002
 -0.165974513853840      -0.324814782187698      -0.405641562764067     
 -0.394469497574803      -0.367817385558201      -0.351040472078868     
 -0.341960959470417      -0.347996882850138      -0.360461854794259     
 -0.375687130187731      -0.391225560014119      -0.406222060539026     
 -0.417798248507953      -0.426832155541185      -0.433458318270207     
 -0.437805782915621      -0.206720211093460      -0.416112526311758     
 -0.541244332405180      -0.552214543229333      -0.528785393277010     
 -0.508908634926434      -0.497176475536705      -0.505852644991359     
 -0.524723877583739      -0.548610188633639      -0.573974657046497     
 -0.599301099652894      -0.620905246832737      -0.639195660835179     
 -0.652894352830785      -0.660684723161150      -0.224534269725032     
 -0.455573068113687      -0.601788926269563      -0.628602705200025     
 -0.613315319504097      -0.594976505765820      -0.582466946791688     
 -0.592541793748640      -0.615792448539957      -0.646481500440500     
 -0.680134966744877      -0.714050962084168      -0.742915118301332     
 -0.765779506314853      -0.781209180506730      -0.789068077901458     
 -0.227423684606246      -0.462892861422354      -0.613118013920167     
 -0.641246911536988      -0.625836421911122      -0.605570697479446     
 -0.589939540301224      -0.598421473003258      -0.622671916695957     
 -0.656704828254786      -0.694756175376246      -0.732403536134183     
 -0.763020016377828      -0.785849341379932      -0.800433323613117     
 -0.807495141468951      -0.214920560660963      -0.437807315982966     
 -0.574873563670519      -0.586210422900062      -0.554037296986429     
 -0.518636559794283      -0.489732778047639      -0.488222258899298     
 -0.505752538830580      -0.535624781703252      -0.570654548454939     
 -0.605345159991625      -0.632839489586061      -0.652963330724766     
 -0.665570765766392      -0.671496914702000      -0.183150835603825     
 -0.372481538364857      -0.475443577820944      -0.447133444051491     
 -0.374743576009104      -0.301957517289312      -0.239988460778972     
 -0.211655363988650      -0.208071899129432      -0.221588935142554     
 -0.243941459934207      -0.269091484981942      -0.289697606151086     
 -0.305259482489455      -0.315074012968379      -0.319602774838206     
 -0.126055498577181      -0.254424969195066      -0.296287556275831     
 -0.199115768115792      -5.592832756682042E-002  8.473173697838654E-002
  0.208562159870468       0.289013282424724       0.334644431751762     
  0.353530766518524       0.354929940583213       0.346045869770596     
  0.336053797361391       0.326967607452280       0.320810262244735     
  0.317967132656923      -3.633704079803990E-002 -6.859221374564851E-002
 -1.528186565239155E-002  0.186852786397856       0.438404816466253     
  0.684568953618819       0.906149308824495        1.07045858810701     
   1.18410604135248        1.25477731671305        1.29305258464275     
   1.30854105034142        1.31386562694861        1.31376120857066     
   1.31243278666715        1.31170431738097       9.303487261517053E-002
  0.199419063088152       0.388337705356974       0.737080713835164     
   1.13968926907644        1.53377515594777        1.89341871426221     
   2.17745467661625        2.38892839344755        2.53436764782153     
   2.62598139914149        2.67682108878084        2.70432532981426     
   2.71712727528884        2.72262570791343        2.72482220523669     
  0.264381702313473       0.554131794449636       0.920207223111117     
   1.45684718180442        2.05187824025032        2.63438012524437     
   3.17036203452652        3.60870863337421        3.94793660002435     
   4.19286541227189        4.35721793709739        4.45770229741823     
   4.51716838035838        4.54894778042291        4.56459773897998     
   4.57115240788273       0.463632778348018       0.966089903976839     
   1.53545293229806        2.28423111438240        3.09458633836618     
   3.88683858660720        4.61876648042826        5.22960078954516     
   5.71373332902238        6.07432867365711        6.32610562731614     
   6.48859952592698        6.58945881495469        6.64658806571547     
   6.67610080204521        6.68868687960852       0.651763394933422     
   1.35437035715097        2.11354178862158        3.05833858214938     
   4.06540271513578        5.04705417625269        5.95444046724126     
   6.71978304924935        7.33563831949998        7.80451193820801     
   8.14134455095286        8.36670637580331        8.51120223331493     
   8.59600334722104        8.64106919647960        8.66055828169345     
  0.785064001232496        1.62844604821664        2.52012180631132     
   3.60086337772583        4.74117423533682        5.84688446313161     
   6.86566264261985        7.72757489437683        8.42776262941484     
   8.97044789744810        9.37002049242681        9.64525667162985     