 Title = "Wing and Wake"
 VARIABLES = "X" "Y" "Z" "GAM" "skew"
 Zone I=   17 J=   20 K=1  T="Blade 01"
 DATAPACKING=BLOCK
 VARLOCATION=([4]=CELLCENTERED,[5]=CELLCENTERED)
  0.430513849156736       0.429910303135939       0.428359101540895     
  0.426024476763538       0.422821316475770       0.418619247491491     
  0.413384201101015       0.407273511463085       0.400654849541479     
  0.394046760918681       0.387962931959866       0.382762736931117     
  0.378601189324503       0.375432782772239       0.373116208866844     
  0.371472061902651       0.370337574347186       0.438573982141880     
  0.437970436121087       0.436419234526040       0.434084609748686     
  0.430881449460916       0.426679380476639       0.421444334086163     
  0.415333644448235       0.408714982526624       0.402106893903830     
  0.396023064945019       0.390822869916271       0.386661322309651     
  0.383492915757390       0.381176341851990       0.379532194887799     
  0.378397707332339       0.449972847415622       0.449369301394823     
  0.447818099799784       0.445483475022425       0.442280314734655     
  0.438078245750376       0.432843199359901       0.426732509721978     
  0.420113847800364       0.413505759177570       0.407421930218753     
  0.402221735190007       0.398060187583394       0.394891781031130     
  0.392575207125726       0.390931060161534       0.389796572606077     
  0.465886074784713       0.465282528763916       0.463731327168873     
  0.461396702391513       0.458193542103745       0.453991473119472     
  0.448756426728992       0.442645737091067       0.436027075169453     
  0.429418986546660       0.423335157587844       0.418134962559097     
  0.413973414952477       0.410805008400218       0.408488434494819     
  0.406844287530624       0.405709799975168       0.487704880984110     
  0.487101334963315       0.485550133368276       0.483215508590917     
  0.480012348303140       0.475810279318868       0.470575232928390     
  0.464464543290466       0.457845881368855       0.451237792746058     
  0.445153963787248       0.439953768758494       0.435792221151881     
  0.432623814599617       0.430307240694219       0.428663093730024     
  0.427528606174566       0.516893284434783       0.516289738413987     
  0.514738536818947       0.512403912041585       0.509200751753817     
  0.504998682769541       0.499763636379058       0.493652946741132     
  0.487034284819527       0.480426196196732       0.474342367237918     
  0.469142172209168       0.464980624602553       0.461812218050284     
  0.459495644144883       0.457851497180697       0.456717009625239     
  0.554680271533993       0.554076725513197       0.552525523918158     
  0.550190899140790       0.546987738853020       0.542785669868742     
  0.537550623478265       0.531439933840346       0.524821271918732     
  0.518213183295939       0.512129354337126       0.506929159308369     
  0.502767611701764       0.499599205149492       0.497282631244097     
  0.495638484279907       0.494503996724449       0.601574420769448     
  0.600970874748649       0.599419673153608       0.597085048376260     
  0.593881888088492       0.589679819104218       0.584444772713737     
  0.578334083075813       0.571715421154193       0.565107332531406     
  0.559023503572589       0.553823308543843       0.549661760937218     
  0.546493354384963       0.544176780479562       0.542532633515367     
  0.541398145959909       0.656811361407037       0.656207815386247     
  0.654656613791210       0.652321989013847       0.649118828726081     
  0.644916759741800       0.639681713351328       0.633571023713406     
  0.626952361791787       0.620344273168992       0.614260444210177     
  0.609060249181426       0.604898701574820       0.601730295022552     
  0.599413721117150       0.597769574152958       0.596635086597498     
  0.718012967662674       0.717409421641879       0.715858220046840     
  0.713523595269477       0.710320434981713       0.706118365997439     
  0.700883319606957       0.694772629969038       0.688153968047422     
  0.681545879424634       0.675462050465817       0.670261855437071     
  0.666100307830451       0.662931901278183       0.660615327372788     
  0.658971180408594       0.657836692853136       0.781391579173735     
  0.780788033152942       0.779236831557898       0.776902206780540     
  0.773699046492773       0.769496977508499       0.764261931118019     
  0.758151241480094       0.751532579558470       0.744924490935685     
  0.738840661976871       0.733640466948117       0.729478919341499     
  0.726310512789248       0.723993938883839       0.722349791919647     
  0.721215304364192       0.842593185429374       0.841989639408577     
  0.840438437813532       0.838103813036174       0.834900652748401     
  0.830698583764128       0.825463537373650       0.819352847735727     
  0.812734185814115       0.806126097191318       0.800042268232512     
  0.794842073203748       0.790680525597144       0.787512119044878     
  0.785195545139482       0.783551398175289       0.782416910619822     
  0.897830126066964       0.897226580046170       0.895675378451126     
  0.893340753673771       0.890137593385995       0.885935524401720     
  0.880700478011235       0.874589788373317       0.867971126451710     
  0.861363037828902       0.855279208870101       0.850079013841353     
  0.845917466234723       0.842749059682472       0.840432485777076     
  0.838788338812876       0.837653851257421       0.944724275302417     
  0.944120729281628       0.942569527686592       0.940234902909234     
  0.937031742621458       0.932829673637184       0.927594627246705     
  0.921483937608785       0.914865275687164       0.908257187064381     
  0.902173358105565       0.896973163076815       0.892811615470200     
  0.889643208917937       0.887326635012537       0.885682488048344     
  0.884548000492887       0.982511262401629       0.981907716380842     
  0.980356514785798       0.978021890008426       0.974818729720665     
  0.970616660736394       0.965381614345903       0.959270924707996     
  0.952652262786375       0.946044174163587       0.939960345204771     
  0.934760150176023       0.930598602569411       0.927430196017146     
  0.925113622111737       0.923469475147557       0.922334987592094     
   1.01169966585229        1.01109611983151        1.00954491823647     
   1.00721029345911        1.00400713317135       0.999805064187069     
  0.994570017796576       0.988459328158668       0.981840666237035     
  0.975232577614264       0.969148748655450       0.963948553626687     
  0.959787006020080       0.956618599467807       0.954302025562417     
  0.952657878598215       0.951523391042763        1.03351847205170     
   1.03291492603092        1.03136372443587        1.02902909965851     
   1.02582593937073        1.02162387038646        1.01638882399598     
   1.01027813435807        1.00365947243645       0.997051383813661     
  0.990967554854827       0.985767359826085       0.981605812219472     
  0.978437405667216       0.976120831761801       0.974476684797617     
  0.973342197242155        1.04943169942080        1.04882815340000     
   1.04727695180496        1.04494232702760        1.04173916673982     
   1.03753709775556        1.03230205136508        1.02619136172715     
   1.01957269980553        1.01296461118274        1.00688078222392     
   1.00168058719517       0.997519039588565       0.994350633036302     
  0.992034059130902       0.990389912166714       0.989255424611249     
   1.06083056469453        1.06022701867373        1.05867581707869     
   1.05634119230134        1.05313803201356        1.04893596302930     
   1.04370091663882        1.03759022700088        1.03097156507928     
   1.02436347645648        1.01827964749767        1.01307945246892     
   1.00891790486231        1.00574949831003        1.00343292440465     
   1.00178877744045        1.00065428988500        1.06889069767968     
   1.06828715165889        1.06673595006385        1.06440132528648     
   1.06119816499872        1.05699609601443        1.05176104962395     
   1.04565035998604        1.03903169806442        1.03242360944163     
   1.02633978048281        1.02113958545406        1.01697803784746     
   1.01380963129519        1.01149305738979        1.00984891042560     
   1.00871442287014     
 -6.127486936346316E-002 -6.292834912122187E-002 -6.717803406526308E-002
 -7.357399175253496E-002 -8.234939663335705E-002 -9.386142018552406E-002
 -0.108203397332829      -0.124944294089876      -0.143076835990208     
 -0.161180411192104      -0.177847720206614      -0.192094218270034     
 -0.203495229114948      -0.212175422369513      -0.218521927736057     
 -0.223026246595607      -0.226134298249906      -6.421694420135352E-002
 -6.587042395911315E-002 -7.012010890315092E-002 -7.651606659042455E-002
 -8.529147147124577E-002 -9.680349502341533E-002 -0.111145472170719     
 -0.127886368927770      -0.146018910828097      -0.164122486029999     
 -0.180789795044510      -0.195036293107927      -0.206437303952845     
 -0.215117497207402      -0.221464002573945      -0.225968321433497     
 -0.229076373087804      -6.837770864086917E-002 -7.003118839862645E-002
 -7.428087334266573E-002 -8.067683102993947E-002 -8.945223591076337E-002
 -0.100964259462930      -0.115306236610233      -0.132047133367286     
 -0.150179675267612      -0.168283250469515      -0.184950559484026     
 -0.199197057547443      -0.210598068392360      -0.219278261646918     
 -0.225624767013454      -0.230129085873002      -0.233237137527318     
 -7.418628598301506E-002 -7.583976574077413E-002 -8.008945068481209E-002
 -8.648540837208665E-002 -9.526081325290826E-002 -0.106772836805075     
 -0.121114813952380      -0.137855710709433      -0.155988252609761     
 -0.174091827811661      -0.190759136826169      -0.205005634889590     
 -0.216406645734502      -0.225086838989062      -0.231433344355608     
 -0.235937663215159      -0.239045714869466      -8.215049213573387E-002
 -8.380397189349337E-002 -8.805365683753104E-002 -9.444961452480712E-002
 -0.103225019405630      -0.114737042957797      -0.129079020105102     
 -0.145819916862153      -0.163952458762478      -0.182056033964379     
 -0.198723342978891      -0.212969841042309      -0.224370851887228     
 -0.233051045141783      -0.239397550508327      -0.243901869367872     
 -0.247009921022182      -9.280471676312375E-002 -9.445819652088472E-002
 -9.870788146492314E-002 -0.105103839152196      -0.113879244033018     
 -0.125391267585187      -0.139733244732491      -0.156474141489540     
 -0.174606683389869      -0.192710258591770      -0.209377567606282     
 -0.223624065669699      -0.235025076514617      -0.243705269769171     
 -0.250051775135712      -0.254556093995267      -0.257664145649575     
 -0.106597559157797      -0.108251038915560      -0.112500723859596     
 -0.118896681546868      -0.127672086427689      -0.139184109979850     
 -0.153526087127162      -0.170266983884214      -0.188399525784541     
 -0.206503100986442      -0.223170410000955      -0.237416908064361     
 -0.248817918909290      -0.257498112163844      -0.263844617530386     
 -0.268348936389941      -0.271456988044249      -0.123714658436940     
 -0.125368138194703      -0.129617823138741      -0.136013780826018     
 -0.144789185706841      -0.156301209259005      -0.170643186406311     
 -0.187384083163363      -0.205516625063687      -0.223620200265590     
 -0.240287509280101      -0.254534007343519      -0.265935018188425     
 -0.274615211442995      -0.280961716809537      -0.285466035669085     
 -0.288574087323389      -0.143877007305290      -0.145530487063061     
 -0.149780172007096      -0.156176129694368      -0.164951534575193     
 -0.176463558127361      -0.190805535274666      -0.207546432031717     
 -0.225678973932041      -0.243782549133944      -0.260449858148454     
 -0.274696356211863      -0.286097367056792      -0.294777560311344     
 -0.301124065677880      -0.305628384537440      -0.308736436191740     
 -0.166216552587600      -0.167870032345370      -0.172119717289405     
 -0.178515674976670      -0.187291079857505      -0.198803103409669     
 -0.213145080556967      -0.229885977314027      -0.248018519214357     
 -0.266122094416258      -0.282789403430761      -0.297035901494185     
 -0.308436912339101      -0.317117105593653      -0.323463610960194     
 -0.327967929819752      -0.331075981474058      -0.189350738900746     
 -0.191004218658507      -0.195253903602548      -0.201649861289812     
 -0.210425266170642      -0.221937289722811      -0.236279266870114     
 -0.253020163627162      -0.271152705527478      -0.289256280729393     
 -0.305923589743904      -0.320170087807309      -0.331571098652229     
 -0.340251291906796      -0.346597797273340      -0.351102116132888     
 -0.354210167787195      -0.211690284183056      -0.213343763940818     
 -0.217593448884855      -0.223989406572122      -0.232764811452948     
 -0.244276835005113      -0.258618812152421      -0.275359708909471     
 -0.293492250809801      -0.311595826011703      -0.328263135026211     
 -0.342509633089614      -0.353910643934549      -0.362590837189106     
 -0.368937342555651      -0.373441661415198      -0.376549713069509     
 -0.231852633051412      -0.233506112809164      -0.237755797753210     
 -0.244151755440481      -0.252927160321309      -0.264439183873475     
 -0.278781161020779      -0.295522057777829      -0.313654599678156     
 -0.331758174880039      -0.348425483894567      -0.362671981957985     
 -0.374072992802884      -0.382753186057459      -0.389099691423998     
 -0.393604010283548      -0.396712061937857      -0.248969732330551     
 -0.250623212088316      -0.254872897032355      -0.261268854719633     
 -0.270044259600450      -0.281556283152618      -0.295898260299927     
 -0.312639157056969      -0.330771698957296      -0.348875274159203     
 -0.365542583173713      -0.379789081237135      -0.391190092082048     
 -0.399870285336610      -0.406216790703150      -0.410721109562701     
 -0.413829161217007      -0.262762574725232      -0.264416054482992     
 -0.268665739427029      -0.275061697114287      -0.283837101995113     
 -0.295349125547294      -0.309691102694581      -0.326431999451653     
 -0.344564541351976      -0.362668116553877      -0.379335425568389     
 -0.393581923631808      -0.404982934476723      -0.413663127731281     
 -0.420009633097822      -0.424513951957369      -0.427622003611682     
 -0.273416799352615      -0.275070279110387      -0.279319964054420     
 -0.285715921741693      -0.294491326622521      -0.306003350174681     
 -0.320345327321989      -0.337086224079041      -0.355218765979347     
 -0.373322341181268      -0.389989650195779      -0.404236148259182     
 -0.415637159104113      -0.424317352358658      -0.430663857725216     
 -0.435168176584763      -0.438276228239075      -0.281381005505330     
 -0.283034485263099      -0.287284170207139      -0.293680127894416     
 -0.302455532775229      -0.313967556327398      -0.328309533474708     
 -0.345050430231765      -0.363182972132087      -0.381286547333988     
 -0.397953856348480      -0.412200354411914      -0.423601365256829     
 -0.432281558511396      -0.438628063877917      -0.443132382737470     
 -0.446240434391791      -0.287189582847486      -0.288843062605247     
 -0.293092747549289      -0.299488705236549      -0.308264110117362     
 -0.319776133669554      -0.334118110816858      -0.350859007573899     
 -0.368991549474224      -0.387095124676131      -0.403762433690640     
 -0.418008931754051      -0.429409942598971      -0.438090135853539     
 -0.444436641220077      -0.448940960079626      -0.452049011733930     
 -0.291350347287005      -0.293003827044748      -0.297253511988802     
 -0.303649469676073      -0.312424874556884      -0.323936898109066     
 -0.338278875256367      -0.355019772013403      -0.373152313913750     
 -0.391255889115647      -0.407923198130154      -0.422169696193570     
 -0.433570707038495      -0.442250900293032      -0.448597405659597     
 -0.453101724519150      -0.456209776173451      -0.294292422124882     
 -0.295945901882645      -0.300195586826689      -0.306591544513948     
 -0.315366949394789      -0.326878972946953      -0.341220950094265     
 -0.357961846851314      -0.376094388751628      -0.394197963953541     
 -0.410865272968031      -0.425111771031446      -0.436512781876385     
 -0.445192975130931      -0.451539480497477      -0.456043799357035     
 -0.459151851011340     
  0.000000000000000E+000 -2.059343134687265E-004 -5.967154644315922E-004
 -1.288783171780619E-003 -2.918895425121374E-003 -5.573396522451829E-003
 -9.167771110016921E-003 -1.357217217812317E-002 -1.838427778900438E-002
 -2.320014315178548E-002 -2.763890288787426E-002 -3.143970394449276E-002
 -3.447539076661003E-002 -3.679168976136481E-002 -3.848528426515805E-002
 -3.968682183911389E-002 -4.051708164825068E-002  0.000000000000000E+000
 -2.059343134687265E-004 -5.967154644315922E-004 -1.288783171780619E-003
 -2.918895425121374E-003 -5.573396522451829E-003 -9.167771110016921E-003
 -1.357217217812317E-002 -1.838427778900438E-002 -2.320014315178548E-002
 -2.763890288787426E-002 -3.143970394449276E-002 -3.447539076661003E-002
 -3.679168976136481E-002 -3.848528426515805E-002 -3.968682183911389E-002
 -4.051708164825068E-002  0.000000000000000E+000 -2.059343134687265E-004
 -5.967154644315922E-004 -1.288783171780619E-003 -2.918895425121374E-003
 -5.573396522451829E-003 -9.167771110016921E-003 -1.357217217812317E-002
 -1.838427778900438E-002 -2.320014315178548E-002 -2.763890288787426E-002
 -3.143970394449276E-002 -3.447539076661003E-002 -3.679168976136481E-002
 -3.848528426515805E-002 -3.968682183911389E-002 -4.051708164825068E-002
  0.000000000000000E+000 -2.059343134687265E-004 -5.967154644315922E-004
 -1.288783171780619E-003 -2.918895425121374E-003 -5.573396522451829E-003
 -9.167771110016921E-003 -1.357217217812317E-002 -1.838427778900438E-002
 -2.320014315178548E-002 -2.763890288787426E-002 -3.143970394449276E-002
 -3.447539076661003E-002 -3.679168976136481E-002 -3.848528426515805E-002
 -3.968682183911389E-002 -4.051708164825068E-002  0.000000000000000E+000
 -2.059343134687265E-004 -5.967154644315922E-004 -1.288783171780619E-003
 -2.918895425121374E-003 -5.573396522451829E-003 -9.167771110016921E-003
 -1.357217217812317E-002 -1.838427778900438E-002 -2.320014315178548E-002
 -2.763890288787426E-002 -3.143970394449276E-002 -3.447539076661003E-002
 -3.679168976136481E-002 -3.848528426515805E-002 -3.968682183911389E-002
 -4.051708164825068E-002  0.000000000000000E+000 -2.059343134687265E-004
 -5.967154644315922E-004 -1.288783171780619E-003 -2.918895425121374E-003
 -5.573396522451829E-003 -9.167771110016921E-003 -1.357217217812317E-002
 -1.838427778900438E-002 -2.320014315178548E-002 -2.763890288787426E-002
 -3.143970394449276E-002 -3.447539076661003E-002 -3.679168976136481E-002
 -3.848528426515805E-002 -3.968682183911389E-002 -4.051708164825068E-002
  0.000000000000000E+000 -2.059343134687265E-004 -5.967154644315922E-004
 -1.288783171780619E-003 -2.918895425121374E-003 -5.573396522451829E-003
 -9.167771110016921E-003 -1.357217217812317E-002 -1.838427778900438E-002
 -2.320014315178548E-002 -2.763890288787426E-002 -3.143970394449276E-002
 -3.447539076661003E-002 -3.679168976136481E-002 -3.848528426515805E-002
 -3.968682183911389E-002 -4.051708164825068E-002  0.000000000000000E+000
 -2.059343134687265E-004 -5.967154644315922E-004 -1.288783171780619E-003
 -2.918895425121374E-003 -5.573396522451829E-003 -9.167771110016921E-003
 -1.357217217812317E-002 -1.838427778900438E-002 -2.320014315178548E-002
 -2.763890288787426E-002 -3.143970394449276E-002 -3.447539076661003E-002
 -3.679168976136481E-002 -3.848528426515805E-002 -3.968682183911389E-002
 -4.051708164825068E-002  0.000000000000000E+000 -2.059343134687265E-004
 -5.967154644315922E-004 -1.288783171780619E-003 -2.918895425121374E-003
 -5.573396522451829E-003 -9.167771110016921E-003 -1.357217217812317E-002
 -1.838427778900438E-002 -2.320014315178548E-002 -2.763890288787426E-002
 -3.143970394449276E-002 -3.447539076661003E-002 -3.679168976136481E-002
 -3.848528426515805E-002 -3.968682183911389E-002 -4.051708164825068E-002
  0.000000000000000E+000 -2.059343134687265E-004 -5.967154644315922E-004
 -1.288783171780619E-003 -2.918895425121374E-003 -5.573396522451829E-003
 -9.167771110016921E-003 -1.357217217812317E-002 -1.838427778900438E-002
 -2.320014315178548E-002 -2.763890288787426E-002 -3.143970394449276E-002
 -3.447539076661003E-002 -3.679168976136481E-002 -3.848528426515805E-002
 -3.968682183911389E-002 -4.051708164825068E-002  0.000000000000000E+000
 -2.059343134687265E-004 -5.967154644315922E-004 -1.288783171780619E-003
 -2.918895425121374E-003 -5.573396522451829E-003 -9.167771110016921E-003
 -1.357217217812317E-002 -1.838427778900438E-002 -2.320014315178548E-002
 -2.763890288787426E-002 -3.143970394449276E-002 -3.447539076661003E-002
 -3.679168976136481E-002 -3.848528426515805E-002 -3.968682183911389E-002
 -4.051708164825068E-002  0.000000000000000E+000 -2.059343134687265E-004
 -5.967154644315922E-004 -1.288783171780619E-003 -2.918895425121374E-003
 -5.573396522451829E-003 -9.167771110016921E-003 -1.357217217812317E-002
 -1.838427778900438E-002 -2.320014315178548E-002 -2.763890288787426E-002
 -3.143970394449276E-002 -3.447539076661003E-002 -3.679168976136481E-002
 -3.848528426515805E-002 -3.968682183911389E-002 -4.051708164825068E-002
  0.000000000000000E+000 -2.059343134687265E-004 -5.967154644315922E-004
 -1.288783171780619E-003 -2.918895425121374E-003 -5.573396522451829E-003
 -9.167771110016921E-003 -1.357217217812317E-002 -1.838427778900438E-002
 -2.320014315178548E-002 -2.763890288787426E-002 -3.143970394449276E-002
 -3.447539076661003E-002 -3.679168976136481E-002 -3.848528426515805E-002
 -3.968682183911389E-002 -4.051708164825068E-002  0.000000000000000E+000
 -2.059343134687265E-004 -5.967154644315922E-004 -1.288783171780619E-003
 -2.918895425121374E-003 -5.573396522451829E-003 -9.167771110016921E-003
 -1.357217217812317E-002 -1.838427778900438E-002 -2.320014315178548E-002
 -2.763890288787426E-002 -3.143970394449276E-002 -3.447539076661003E-002
 -3.679168976136481E-002 -3.848528426515805E-002 -3.968682183911389E-002
 -4.051708164825068E-002  0.000000000000000E+000 -2.059343134687265E-004
 -5.967154644315922E-004 -1.288783171780619E-003 -2.918895425121374E-003
 -5.573396522451829E-003 -9.167771110016921E-003 -1.357217217812317E-002
 -1.838427778900438E-002 -2.320014315178548E-002 -2.763890288787426E-002
 -3.143970394449276E-002 -3.447539076661003E-002 -3.679168976136481E-002
 -3.848528426515805E-002 -3.968682183911389E-002 -4.051708164825068E-002
  0.000000000000000E+000 -2.059343134687265E-004 -5.967154644315922E-004
 -1.288783171780619E-003 -2.918895425121374E-003 -5.573396522451829E-003
 -9.167771110016921E-003 -1.357217217812317E-002 -1.838427778900438E-002
 -2.320014315178548E-002 -2.763890288787426E-002 -3.143970394449276E-002
 -3.447539076661003E-002 -3.679168976136481E-002 -3.848528426515805E-002
 -3.968682183911389E-002 -4.051708164825068E-002  0.000000000000000E+000
 -2.059343134687265E-004 -5.967154644315922E-004 -1.288783171780619E-003
 -2.918895425121374E-003 -5.573396522451829E-003 -9.167771110016921E-003
 -1.357217217812317E-002 -1.838427778900438E-002 -2.320014315178548E-002
 -2.763890288787426E-002 -3.143970394449276E-002 -3.447539076661003E-002
 -3.679168976136481E-002 -3.848528426515805E-002 -3.968682183911389E-002
 -4.051708164825068E-002  0.000000000000000E+000 -2.059343134687265E-004
 -5.967154644315922E-004 -1.288783171780619E-003 -2.918895425121374E-003
 -5.573396522451829E-003 -9.167771110016921E-003 -1.357217217812317E-002
 -1.838427778900438E-002 -2.320014315178548E-002 -2.763890288787426E-002
 -3.143970394449276E-002 -3.447539076661003E-002 -3.679168976136481E-002
 -3.848528426515805E-002 -3.968682183911389E-002 -4.051708164825068E-002
  0.000000000000000E+000 -2.059343134687265E-004 -5.967154644315922E-004
 -1.288783171780619E-003 -2.918895425121374E-003 -5.573396522451829E-003
 -9.167771110016921E-003 -1.357217217812317E-002 -1.838427778900438E-002
 -2.320014315178548E-002 -2.763890288787426E-002 -3.143970394449276E-002
 -3.447539076661003E-002 -3.679168976136481E-002 -3.848528426515805E-002
 -3.968682183911389E-002 -4.051708164825068E-002  0.000000000000000E+000
 -2.059343134687265E-004 -5.967154644315922E-004 -1.288783171780619E-003
 -2.918895425121374E-003 -5.573396522451829E-003 -9.167771110016921E-003
 -1.357217217812317E-002 -1.838427778900438E-002 -2.320014315178548E-002
 -2.763890288787426E-002 -3.143970394449276E-002 -3.447539076661003E-002
 -3.679168976136481E-002 -3.848528426515805E-002 -3.968682183911389E-002
 -4.051708164825068E-002
 -0.160350045007178      -0.313774758415971      -0.390170235875324     
 -0.374850752372643      -0.344299283178970      -0.323901856939670     
 -0.311544976608734      -0.314802981004715      -0.325062464946414     
 -0.338672322140621      -0.353125916694739      -0.367465770759998     
 -0.378683553316040      -0.387542529985981      -0.394062484374973     
 -0.398314452934565      -0.199001794371756      -0.400421721544385     
 -0.518466862430980      -0.522645734702039      -0.492773173405037     
 -0.466911416667332      -0.449777959380483      -0.453860848323632     
 -0.469050437511630      -0.490168164011042      -0.513548984710657     
 -0.537473767517983      -0.558026132985611      -0.575468768144323     
 -0.588512482050650      -0.595937833287192      -0.215096113863465     
 -0.436177320713811      -0.573229280734495      -0.590998681179638     
 -0.566904885519432      -0.540261944564232      -0.520210057468098     
 -0.523820936876088      -0.541825641634575      -0.568466711694446     
 -0.599078167165837      -0.630699324471497      -0.657793051385997     
 -0.679339394467496      -0.693911821286415      -0.701379713152454     
 -0.216314730825143      -0.439952245093548      -0.579114553277262     
 -0.596127272176889      -0.569633540250431      -0.538688845464566     
 -0.513211314554636      -0.513145360740554      -0.530368258293959     
 -0.558893258698936      -0.592757528767333      -0.627291404264856     
 -0.655652963625896      -0.676958491983739      -0.690642439764914     
 -0.697332536538437      -0.202020601630412      -0.411099959723316     
 -0.535153998337723      -0.533288196360758      -0.487734272955989     
 -0.439194066456282      -0.397967344716212      -0.385604922978240     
 -0.394131883957844      -0.416944994883759      -0.446701125248653     
 -0.477635130419850      -0.502573770469666      -0.521074327789958     
 -0.532768454286213      -0.538338151747038      -0.168139905731899     
 -0.341361571196963      -0.429089146274564      -0.385255287560669     
 -0.296978612316817      -0.208390239594485      -0.131408701356586     
 -8.971311617861091E-002 -7.500225283724846E-002 -7.986243639993425E-002
 -9.589637948722970E-002 -0.116710382703751      -0.134491067393246     
 -0.148323389522917      -0.157189397089326      -0.161358978877313     
 -0.108290657396923      -0.217576369337128      -0.241386325124040     
 -0.125820415085915       3.627074132473762E-002  0.195861717874727     
  0.337808177484955       0.434487266711147       0.493656536539364     
  0.523017990160166       0.531954362060982       0.528130508587448     
  0.521352650683788       0.514189964830292       0.509071899125931     
  0.506621546141651      -1.468868404725770E-002 -2.369680148724436E-002
  5.154636416773403E-002  0.275936930315955       0.550348779030644     
  0.819444101585230        1.06303236782879        1.24713989833056     
   1.37736750808440        1.46089556528166        1.50841208831959     
   1.53007252018610        1.53927832142859        1.54146529392292     
   1.54136191334682        1.54111128090328       0.120036176186233     
  0.255370812308882       0.471463805144433       0.847571648376122     
   1.27815132668341        1.70021312290859        2.08667730749561     
   2.39489451132430        2.62672230005592        2.78806548179578     
   2.89120994939731        2.94980644713049        2.98219414761824     
   2.99785389818331        3.00486446665263        3.00768513601935     
  0.297227482591316       0.622124360313090        1.02100060151332     
   1.59038323274160        2.21863637461303        2.83415064538164     
   3.40161568959838        3.86828138435459        4.23136368485759     
   4.49500231872100        4.67299685937097        4.78270171817765     
   4.84796039432106        4.88308006829924        4.90046747785114     
   4.90778561512372       0.499762283163866        1.04083551896350     
   1.64611602196822        2.43055241646097        3.27689001755459     
   4.10468649274181        4.87029639738056        5.51124102728015     
   6.02057850018095        6.40080648982321        6.66676771907951     
   6.83871451712796        6.94537429663680        7.00572426806174     
   7.03684942123469        7.05019253783997       0.686666631713804     
   1.42658294509150        2.22045826877086        3.19969437915860     
   4.24146907689224        5.25732730335090        6.19699808667463     
   6.99102425945864        7.63067417966656        8.11783140342179     
   8.46759471589076        8.70128887708637        8.85064066325347     
   8.93793847051884        8.98415471801487        9.00423522572116     
  0.815869982553171        1.69219521873934        2.61455391412498     
   3.72579463093319        4.89684354299220        6.03278770064745     
   7.07998317081546        7.96696746132906        8.68774929240196     
   9.24603425258415        9.65638671242520        9.93829139492847     