 Title = "Wing and Wake"
 VARIABLES = "X" "Y" "Z" "GAM" "skew"
 Zone I=   17 J=   20 K=1  T="Blade 01"
 DATAPACKING=BLOCK
 VARLOCATION=([4]=CELLCENTERED,[5]=CELLCENTERED)
 -0.430513849156732      -0.429910303135935      -0.428359101540892     
 -0.426024476763534      -0.422821316475765      -0.418619247491489     
 -0.413384201101012      -0.407273511463085      -0.400654849541476     
 -0.394046760918681      -0.387962931959866      -0.382762736931117     
 -0.378601189324503      -0.375432782772238      -0.373116208866841     
 -0.371472061902649      -0.370337574347186      -0.438573982141877     
 -0.437970436121082      -0.436419234526039      -0.434084609748683     
 -0.430881449460913      -0.426679380476636      -0.421444334086158     
 -0.415333644448234      -0.408714982526621      -0.402106893903827     
 -0.396023064945015      -0.390822869916267      -0.386661322309651     
 -0.383492915757387      -0.381176341851988      -0.379532194887797     
 -0.378397707332338      -0.449972847415618      -0.449369301394822     
 -0.447818099799780      -0.445483475022421      -0.442280314734652     
 -0.438078245750375      -0.432843199359898      -0.426732509721974     
 -0.420113847800361      -0.413505759177567      -0.407421930218753     
 -0.402221735190006      -0.398060187583391      -0.394891781031127     
 -0.392575207125726      -0.390931060161534      -0.389796572606076     
 -0.465886074784707      -0.465282528763912      -0.463731327168868     
 -0.461396702391508      -0.458193542103742      -0.453991473119467     
 -0.448756426728987      -0.442645737091063      -0.436027075169450     
 -0.429418986546656      -0.423335157587842      -0.418134962559094     
 -0.413973414952476      -0.410805008400216      -0.408488434494816     
 -0.406844287530622      -0.405709799975165      -0.487704880984108     
 -0.487101334963313      -0.485550133368271      -0.483215508590912     
 -0.480012348303139      -0.475810279318864      -0.470575232928387     
 -0.464464543290462      -0.457845881368852      -0.451237792746056     
 -0.445153963787245      -0.439953768758493      -0.435792221151878     
 -0.432623814599614      -0.430307240694217      -0.428663093730024     
 -0.427528606174565      -0.516893284434778      -0.516289738413983     
 -0.514738536818941      -0.512403912041581      -0.509200751753813     
 -0.504998682769536      -0.499763636379056      -0.493652946741133     
 -0.487034284819522      -0.480426196196730      -0.474342367237914     
 -0.469142172209164      -0.464980624602552      -0.461812218050283     
 -0.459495644144884      -0.457851497180696      -0.456717009625237     
 -0.554680271533988      -0.554076725513192      -0.552525523918152     
 -0.550190899140787      -0.546987738853019      -0.542785669868742     
 -0.537550623478264      -0.531439933840344      -0.524821271918730     
 -0.518213183295936      -0.512129354337123      -0.506929159308369     
 -0.502767611701760      -0.499599205149493      -0.497282631244097     
 -0.495638484279905      -0.494503996724446      -0.601574420769447     
 -0.600970874748651      -0.599419673153607      -0.597085048376256     
 -0.593881888088486      -0.589679819104211      -0.584444772713732     
 -0.578334083075805      -0.571715421154191      -0.565107332531398     
 -0.559023503572587      -0.553823308543839      -0.549661760937218     
 -0.546493354384959      -0.544176780479559      -0.542532633515365     
 -0.541398145959909      -0.656811361407037      -0.656207815386245     
 -0.654656613791205      -0.652321989013845      -0.649118828726075     
 -0.644916759741799      -0.639681713351323      -0.633571023713401     
 -0.626952361791786      -0.620344273168991      -0.614260444210174     
 -0.609060249181426      -0.604898701574815      -0.601730295022550     
 -0.599413721117150      -0.597769574152958      -0.596635086597498     
 -0.718012967662674      -0.717409421641877      -0.715858220046835     
 -0.713523595269477      -0.710320434981712      -0.706118365997434     
 -0.700883319606957      -0.694772629969032      -0.688153968047419     
 -0.681545879424626      -0.675462050465815      -0.670261855437067     
 -0.666100307830447      -0.662931901278182      -0.660615327372787     
 -0.658971180408591      -0.657836692853135      -0.781391579173729     
 -0.780788033152939      -0.779236831557894      -0.776902206780534     
 -0.773699046492768      -0.769496977508492      -0.764261931118013     
 -0.758151241480090      -0.751532579558470      -0.744924490935678     
 -0.738840661976865      -0.733640466948117      -0.729478919341499     
 -0.726310512789243      -0.723993938883839      -0.722349791919647     
 -0.721215304364188      -0.842593185429369      -0.841989639408571     
 -0.840438437813528      -0.838103813036171      -0.834900652748399     
 -0.830698583764127      -0.825463537373645      -0.819352847735723     
 -0.812734185814107      -0.806126097191316      -0.800042268232503     
 -0.794842073203748      -0.790680525597138      -0.787512119044875     
 -0.785195545139476      -0.783551398175284      -0.782416910619820     
 -0.897830126066957      -0.897226580046165      -0.895675378451119     
 -0.893340753673761      -0.890137593385991      -0.885935524401714     
 -0.880700478011232      -0.874589788373313      -0.867971126451704     
 -0.861363037828902      -0.855279208870096      -0.850079013841346     
 -0.845917466234723      -0.842749059682466      -0.840432485777068     
 -0.838788338812875      -0.837653851257412      -0.944724275302415     
 -0.944120729281626      -0.942569527686584      -0.940234902909222     
 -0.937031742621453      -0.932829673637178      -0.927594627246700     
 -0.921483937608777      -0.914865275687163      -0.908257187064373     
 -0.902173358105556      -0.896973163076810      -0.892811615470193     
 -0.889643208917928      -0.887326635012531      -0.885682488048337     
 -0.884548000492881      -0.982511262401625      -0.981907716380832     
 -0.980356514785788      -0.978021890008426      -0.974818729720665     
 -0.970616660736388      -0.965381614345903      -0.959270924707987     
 -0.952652262786373      -0.946044174163576      -0.939960345204764     
 -0.934760150176015      -0.930598602569402      -0.927430196017137     
 -0.925113622111735      -0.923469475147548      -0.922334987592086     
  -1.01169966585229       -1.01109611983150       -1.00954491823646     
  -1.00721029345910       -1.00400713317134      -0.999805064187061     
 -0.994570017796573      -0.988459328158659      -0.981840666237035     
 -0.975232577614255      -0.969148748655441      -0.963948553626687     
 -0.959787006020074      -0.956618599467807      -0.954302025562411     
 -0.952657878598217      -0.951523391042760       -1.03351847205170     
  -1.03291492603091       -1.03136372443587       -1.02902909965850     
  -1.02582593937073       -1.02162387038646       -1.01638882399598     
  -1.01027813435806       -1.00365947243644      -0.997051383813652     
 -0.990967554854827      -0.985767359826083      -0.981605812219469     
 -0.978437405667209      -0.976120831761801      -0.974476684797617     
 -0.973342197242153       -1.04943169942079       -1.04882815339999     
  -1.04727695180495       -1.04494232702760       -1.04173916673982     
  -1.03753709775555       -1.03230205136507       -1.02619136172715     
  -1.01957269980553       -1.01296461118274       -1.00688078222392     
  -1.00168058719517      -0.997519039588561      -0.994350633036299     
 -0.992034059130901      -0.990389912166712      -0.989255424611245     
  -1.06083056469453       -1.06022701867373       -1.05867581707868     
  -1.05634119230133       -1.05313803201356       -1.04893596302929     
  -1.04370091663881       -1.03759022700088       -1.03097156507927     
  -1.02436347645647       -1.01827964749766       -1.01307945246892     
  -1.00891790486230       -1.00574949831003       -1.00343292440464     
  -1.00178877744045       -1.00065428988499       -1.06889069767968     
  -1.06828715165889       -1.06673595006384       -1.06440132528648     
  -1.06119816499871       -1.05699609601443       -1.05176104962395     
  -1.04565035998603       -1.03903169806442       -1.03242360944163     
  -1.02633978048281       -1.02113958545406       -1.01697803784745     
  -1.01380963129519       -1.01149305738979       -1.00984891042559     
  -1.00871442287013     
  6.127486936345898E-002  6.292834912121768E-002  6.717803406525875E-002
  7.357399175253058E-002  8.234939663335340E-002  9.386142018552096E-002
  0.108203397332826       0.124944294089876       0.143076835990204     
  0.161180411192104       0.177847720206614       0.192094218270034     
  0.203495229114948       0.212175422369508       0.218521927736051     
  0.223026246595601       0.226134298249906       6.421694420134859E-002
  6.587042395910869E-002  7.012010890314709E-002  7.651606659042071E-002
  8.529147147124386E-002  9.680349502341033E-002  0.111145472170714     
  0.127886368927767       0.146018910828092       0.164122486029994     
  0.180789795044505       0.195036293107922       0.206437303952840     
  0.215117497207397       0.221464002573939       0.225968321433492     
  0.229076373087798       6.837770864086480E-002  7.003118839862457E-002
  7.428087334266119E-002  8.067683102993550E-002  8.945223591075774E-002
  0.100964259462925       0.115306236610229       0.132047133367281     
  0.150179675267608       0.168283250469510       0.184950559484021     
  0.199197057547439       0.210598068392355       0.219278261646912     
  0.225624767013454       0.230129085873002       0.233237137527313     
  7.418628598301057E-002  7.583976574076932E-002  8.008945068480781E-002
  8.648540837208211E-002  9.526081325290466E-002  0.106772836805071     
  0.121114813952376       0.137855710709427       0.155988252609756     
  0.174091827811656       0.190759136826164       0.205005634889584     
  0.216406645734500       0.225086838989059       0.231433344355601     
  0.235937663215153       0.239045714869460       8.215049213573002E-002
  8.380397189348947E-002  8.805365683752799E-002  9.444961452480131E-002
  0.103225019405625       0.114737042957791       0.129079020105096     
  0.145819916862147       0.163952458762473       0.182056033964374     
  0.198723342978886       0.212969841042304       0.224370851887222     
  0.233051045141777       0.239397550508321       0.243901869367871     
  0.247009921022177       9.280471676311935E-002  9.445819652087913E-002
  9.870788146491780E-002  0.105103839152191       0.113879244033013     
  0.125391267585181       0.139733244732486       0.156474141489536     
  0.174606683389863       0.192710258591764       0.209377567606275     
  0.223624065669693       0.235025076514611       0.243705269769167     
  0.250051775135708       0.254556093995262       0.257664145649570     
  0.106597559157793       0.108251038915553       0.112500723859590     
  0.118896681546863       0.127672086427688       0.139184109979850     
  0.153526087127159       0.170266983884209       0.188399525784537     
  0.206503100986437       0.223170410000949       0.237416908064361     
  0.248817918909284       0.257498112163839       0.263844617530384     
  0.268348936389935       0.271456988044243       0.123714658436938     
  0.125368138194698       0.129617823138736       0.136013780826012     
  0.144789185706834       0.156301209259001       0.170643186406305     
  0.187384083163357       0.205516625063682       0.223620200265582     
  0.240287509280096       0.254534007343513       0.265935018188426     
  0.274615211442987       0.280961716809531       0.285466035669079     
  0.288574087323388       0.143877007305290       0.145530487063054     
  0.149780172007093       0.156176129694361       0.164951534575187     
  0.176463558127357       0.190805535274659       0.207546432031712     
  0.225678973932039       0.243782549133937       0.260449858148447     
  0.274696356211862       0.286097367056785       0.294777560311340     
  0.301124065677880       0.305628384537434       0.308736436191740     
  0.166216552587600       0.167870032345362       0.172119717289399     
  0.178515674976670       0.187291079857498       0.198803103409663     
  0.213145080556967       0.229885977314019       0.248018519214348     
  0.266122094416247       0.282789403430757       0.297035901494178     
  0.308436912339092       0.317117105593651       0.323463610960192     
  0.327967929819743       0.331075981474052       0.189350738900738     
  0.191004218658499       0.195253903602539       0.201649861289807     
  0.210425266170632       0.221937289722802       0.236279266870106     
  0.253020163627158       0.271152705527478       0.289256280729383     
  0.305923589743894       0.320170087807309       0.331571098652228     
  0.340251291906786       0.346597797273331       0.351102116132881     
  0.354210167787186       0.211690284183047       0.213343763940809     
  0.217593448884848       0.223989406572117       0.232764811452942     
  0.244276835005111       0.258618812152413       0.275359708909463     
  0.293492250809792       0.311595826011696       0.328263135026203     
  0.342509633089614       0.353910643934539       0.362590837189097     
  0.368937342555639       0.373441661415190       0.376549713069498     
  0.231852633051404       0.233506112809158       0.237755797753199     
  0.244151755440472       0.252927160321298       0.264439183873463     
  0.278781161020767       0.295522057777821       0.313654599678147     
  0.331758174880039       0.348425483894558       0.362671981957976     
  0.374072992802884       0.382753186057447       0.389099691423990     
  0.393604010283544       0.396712061937846       0.248969732330548     
  0.250623212088311       0.254872897032347       0.261268854719621     
  0.270044259600440       0.281556283152609       0.295898260299916     
  0.312639157056960       0.330771698957293       0.348875274159193     
  0.365542583173702       0.379789081237124       0.391190092082039     
  0.399870285336597       0.406216790703139       0.410721109562690     
  0.413829161216999       0.262762574725220       0.264416054482981     
  0.268665739427019       0.275061697114287       0.283837101995113     
  0.295349125547285       0.309691102694581       0.326431999451640     
  0.344564541351969       0.362668116553865       0.379335425568376     
  0.393581923631793       0.404982934476712       0.413663127731270     
  0.420009633097810       0.424513951957360       0.427622003611670     
  0.273416799352608       0.275070279110375       0.279319964054409     
  0.285715921741684       0.294491326622507       0.306003350174672     
  0.320345327321977       0.337086224079030       0.355218765979347     
  0.373322341181256       0.389989650195767       0.404236148259182     
  0.415637159104103       0.424317352358658       0.430663857725202     
  0.435168176584753       0.438276228239062       0.281381005505330     
  0.283034485263093       0.287284170207130       0.293680127894402     
  0.302455532775221       0.313967556327395       0.328309533474696     
  0.345050430231749       0.363182972132075       0.381286547333979     
  0.397953856348480       0.412200354411904       0.423601365256822     
  0.432281558511381       0.438628063877917       0.443132382737470     
  0.446240434391778       0.287189582847478       0.288843062605235     
  0.293092747549278       0.299488705236549       0.308264110117362     
  0.319776133669541       0.334118110816845       0.350859007573894     
  0.368991549474221       0.387095124676122       0.403762433690631     
  0.418008931754051       0.429409942598967       0.438090135853529     
  0.444436641220067       0.448940960079620       0.452049011733922     
  0.291350347286993       0.293003827044748       0.297253511988789     
  0.303649469676064       0.312424874556882       0.323936898109055     
  0.338278875256358       0.355019772013403       0.373152313913739     
  0.391255889115636       0.407923198130145       0.422169696193566     
  0.433570707038481       0.442250900293032       0.448597405659582     
  0.453101724519138       0.456209776173444       0.294292422124880     
  0.295945901882642       0.300195586826680       0.306591544513948     
  0.315366949394779       0.326878972946942       0.341220950094249     
  0.357961846851299       0.376094388751624       0.394197963953527     
  0.410865272968031       0.425111771031446       0.436512781876372     
  0.445192975130928       0.451539480497469       0.456043799357022     
  0.459151851011331     
  0.000000000000000E+000 -2.059343134687265E-004 -5.967154644315922E-004
 -1.288783171780619E-003 -2.918895425121374E-003 -5.573396522451829E-003
 -9.167771110016921E-003 -1.357217217812317E-002 -1.838427778900438E-002
 -2.320014315178548E-002 -2.763890288787426E-002 -3.143970394449276E-002
 -3.447539076661003E-002 -3.679168976136481E-002 -3.848528426515805E-002
 -3.968682183911389E-002 -4.051708164825068E-002  0.000000000000000E+000
 -2.059343134687265E-004 -5.967154644315922E-004 -1.288783171780619E-003
 -2.918895425121374E-003 -5.573396522451829E-003 -9.167771110016921E-003
 -1.357217217812317E-002 -1.838427778900438E-002 -2.320014315178548E-002
 -2.763890288787426E-002 -3.143970394449276E-002 -3.447539076661003E-002
 -3.679168976136481E-002 -3.848528426515805E-002 -3.968682183911389E-002
 -4.051708164825068E-002  0.000000000000000E+000 -2.059343134687265E-004
 -5.967154644315922E-004 -1.288783171780619E-003 -2.918895425121374E-003
 -5.573396522451829E-003 -9.167771110016921E-003 -1.357217217812317E-002
 -1.838427778900438E-002 -2.320014315178548E-002 -2.763890288787426E-002
 -3.143970394449276E-002 -3.447539076661003E-002 -3.679168976136481E-002
 -3.848528426515805E-002 -3.968682183911389E-002 -4.051708164825068E-002
  0.000000000000000E+000 -2.059343134687265E-004 -5.967154644315922E-004
 -1.288783171780619E-003 -2.918895425121374E-003 -5.573396522451829E-003
 -9.167771110016921E-003 -1.357217217812317E-002 -1.838427778900438E-002
 -2.320014315178548E-002 -2.763890288787426E-002 -3.143970394449276E-002
 -3.447539076661003E-002 -3.679168976136481E-002 -3.848528426515805E-002
 -3.968682183911389E-002 -4.051708164825068E-002  0.000000000000000E+000
 -2.059343134687265E-004 -5.967154644315922E-004 -1.288783171780619E-003
 -2.918895425121374E-003 -5.573396522451829E-003 -9.167771110016921E-003
 -1.357217217812317E-002 -1.838427778900438E-002 -2.320014315178548E-002
 -2.763890288787426E-002 -3.143970394449276E-002 -3.447539076661003E-002
 -3.679168976136481E-002 -3.848528426515805E-002 -3.968682183911389E-002
 -4.051708164825068E-002  0.000000000000000E+000 -2.059343134687265E-004
 -5.967154644315922E-004 -1.288783171780619E-003 -2.918895425121374E-003
 -5.573396522451829E-003 -9.167771110016921E-003 -1.357217217812317E-002
 -1.838427778900438E-002 -2.320014315178548E-002 -2.763890288787426E-002
 -3.143970394449276E-002 -3.447539076661003E-002 -3.679168976136481E-002
 -3.848528426515805E-002 -3.968682183911389E-002 -4.051708164825068E-002
  0.000000000000000E+000 -2.059343134687265E-004 -5.967154644315922E-004
 -1.288783171780619E-003 -2.918895425121374E-003 -5.573396522451829E-003
 -9.167771110016921E-003 -1.357217217812317E-002 -1.838427778900438E-002
 -2.320014315178548E-002 -2.763890288787426E-002 -3.143970394449276E-002
 -3.447539076661003E-002 -3.679168976136481E-002 -3.848528426515805E-002
 -3.968682183911389E-002 -4.051708164825068E-002  0.000000000000000E+000
 -2.059343134687265E-004 -5.967154644315922E-004 -1.288783171780619E-003
 -2.918895425121374E-003 -5.573396522451829E-003 -9.167771110016921E-003
 -1.357217217812317E-002 -1.838427778900438E-002 -2.320014315178548E-002
 -2.763890288787426E-002 -3.143970394449276E-002 -3.447539076661003E-002
 -3.679168976136481E-002 -3.848528426515805E-002 -3.968682183911389E-002
 -4.051708164825068E-002  0.000000000000000E+000 -2.059343134687265E-004
 -5.967154644315922E-004 -1.288783171780619E-003 -2.918895425121374E-003
 -5.573396522451829E-003 -9.167771110016921E-003 -1.357217217812317E-002
 -1.838427778900438E-002 -2.320014315178548E-002 -2.763890288787426E-002
 -3.143970394449276E-002 -3.447539076661003E-002 -3.679168976136481E-002
 -3.848528426515805E-002 -3.968682183911389E-002 -4.051708164825068E-002
  0.000000000000000E+000 -2.059343134687265E-004 -5.967154644315922E-004
 -1.288783171780619E-003 -2.918895425121374E-003 -5.573396522451829E-003
 -9.167771110016921E-003 -1.357217217812317E-002 -1.838427778900438E-002
 -2.320014315178548E-002 -2.763890288787426E-002 -3.143970394449276E-002
 -3.447539076661003E-002 -3.679168976136481E-002 -3.848528426515805E-002
 -3.968682183911389E-002 -4.051708164825068E-002  0.000000000000000E+000
 -2.059343134687265E-004 -5.967154644315922E-004 -1.288783171780619E-003
 -2.918895425121374E-003 -5.573396522451829E-003 -9.167771110016921E-003
 -1.357217217812317E-002 -1.838427778900438E-002 -2.320014315178548E-002
 -2.763890288787426E-002 -3.143970394449276E-002 -3.447539076661003E-002
 -3.679168976136481E-002 -3.848528426515805E-002 -3.968682183911389E-002
 -4.051708164825068E-002  0.000000000000000E+000 -2.059343134687265E-004
 -5.967154644315922E-004 -1.288783171780619E-003 -2.918895425121374E-003
 -5.573396522451829E-003 -9.167771110016921E-003 -1.357217217812317E-002
 -1.838427778900438E-002 -2.320014315178548E-002 -2.763890288787426E-002
 -3.143970394449276E-002 -3.447539076661003E-002 -3.679168976136481E-002
 -3.848528426515805E-002 -3.968682183911389E-002 -4.051708164825068E-002
  0.000000000000000E+000 -2.059343134687265E-004 -5.967154644315922E-004
 -1.288783171780619E-003 -2.918895425121374E-003 -5.573396522451829E-003
 -9.167771110016921E-003 -1.357217217812317E-002 -1.838427778900438E-002
 -2.320014315178548E-002 -2.763890288787426E-002 -3.143970394449276E-002
 -3.447539076661003E-002 -3.679168976136481E-002 -3.848528426515805E-002
 -3.968682183911389E-002 -4.051708164825068E-002  0.000000000000000E+000
 -2.059343134687265E-004 -5.967154644315922E-004 -1.288783171780619E-003
 -2.918895425121374E-003 -5.573396522451829E-003 -9.167771110016921E-003
 -1.357217217812317E-002 -1.838427778900438E-002 -2.320014315178548E-002
 -2.763890288787426E-002 -3.143970394449276E-002 -3.447539076661003E-002
 -3.679168976136481E-002 -3.848528426515805E-002 -3.968682183911389E-002
 -4.051708164825068E-002  0.000000000000000E+000 -2.059343134687265E-004
 -5.967154644315922E-004 -1.288783171780619E-003 -2.918895425121374E-003
 -5.573396522451829E-003 -9.167771110016921E-003 -1.357217217812317E-002
 -1.838427778900438E-002 -2.320014315178548E-002 -2.763890288787426E-002
 -3.143970394449276E-002 -3.447539076661003E-002 -3.679168976136481E-002
 -3.848528426515805E-002 -3.968682183911389E-002 -4.051708164825068E-002
  0.000000000000000E+000 -2.059343134687265E-004 -5.967154644315922E-004
 -1.288783171780619E-003 -2.918895425121374E-003 -5.573396522451829E-003
 -9.167771110016921E-003 -1.357217217812317E-002 -1.838427778900438E-002
 -2.320014315178548E-002 -2.763890288787426E-002 -3.143970394449276E-002
 -3.447539076661003E-002 -3.679168976136481E-002 -3.848528426515805E-002
 -3.968682183911389E-002 -4.051708164825068E-002  0.000000000000000E+000
 -2.059343134687265E-004 -5.967154644315922E-004 -1.288783171780619E-003
 -2.918895425121374E-003 -5.573396522451829E-003 -9.167771110016921E-003
 -1.357217217812317E-002 -1.838427778900438E-002 -2.320014315178548E-002
 -2.763890288787426E-002 -3.143970394449276E-002 -3.447539076661003E-002
 -3.679168976136481E-002 -3.848528426515805E-002 -3.968682183911389E-002
 -4.051708164825068E-002  0.000000000000000E+000 -2.059343134687265E-004
 -5.967154644315922E-004 -1.288783171780619E-003 -2.918895425121374E-003
 -5.573396522451829E-003 -9.167771110016921E-003 -1.357217217812317E-002
 -1.838427778900438E-002 -2.320014315178548E-002 -2.763890288787426E-002
 -3.143970394449276E-002 -3.447539076661003E-002 -3.679168976136481E-002
 -3.848528426515805E-002 -3.968682183911389E-002 -4.051708164825068E-002
  0.000000000000000E+000 -2.059343134687265E-004 -5.967154644315922E-004
 -1.288783171780619E-003 -2.918895425121374E-003 -5.573396522451829E-003
 -9.167771110016921E-003 -1.357217217812317E-002 -1.838427778900438E-002
 -2.320014315178548E-002 -2.763890288787426E-002 -3.143970394449276E-002
 -3.447539076661003E-002 -3.679168976136481E-002 -3.848528426515805E-002
 -3.968682183911389E-002 -4.051708164825068E-002  0.000000000000000E+000
 -2.059343134687265E-004 -5.967154644315922E-004 -1.288783171780619E-003
 -2.918895425121374E-003 -5.573396522451829E-003 -9.167771110016921E-003
 -1.357217217812317E-002 -1.838427778900438E-002 -2.320014315178548E-002
 -2.763890288787426E-002 -3.143970394449276E-002 -3.447539076661003E-002
 -3.679168976136481E-002 -3.848528426515805E-002 -3.968682183911389E-002
 -4.051708164825068E-002
 -0.150937221752614      -0.295415348881384      -0.365103614637300     
 -0.344435489406000      -0.309063077626197      -0.284010437888345     
 -0.267008183646966      -0.265506461713327      -0.270964845333225     
 -0.279968665109320      -0.290350595795768      -0.301435966596188     
 -0.310314176729653      -0.317637423764777      -0.323182492527313     
 -0.326825443517345      -0.186600300385293      -0.375370951626520     
 -0.482918810313587      -0.478206000487066      -0.440308199757734     
 -0.406836671371587      -0.382220237361270      -0.378707941493229     
 -0.386245101883813      -0.399973422840379      -0.416703891932850     
 -0.435099453626195      -0.451344418829524      -0.465589118344227     
 -0.476437075164382      -0.482654952095361      -0.200805234364500     
 -0.406992162909400      -0.531126627901090      -0.537377764699525     
 -0.502561148913770      -0.465684192919865      -0.435608912415707     
 -0.429098843593469      -0.436899190016545      -0.453615607303763     
 -0.475168919352817      -0.499127449625097      -0.520227442694868     
 -0.537500439493636      -0.549394456675884      -0.555538044523789     
 -0.201037646076013      -0.408598057529770      -0.533520709777048     
 -0.537451134549480      -0.498416897903057      -0.455259998861843     
 -0.417704052299377      -0.405393883169785      -0.410213299158094     
 -0.426608214941356      -0.449383579569354      -0.474647962735812     
 -0.495998142404844      -0.512551288395606      -0.523405802040028     
 -0.528753226396000      -0.187110765838218      -0.380424748571017     
 -0.490378940132593      -0.475372378166304      -0.416981155709706     
 -0.355677474075728      -0.301580291689344      -0.275958048996397     
 -0.270882373748178      -0.280311842747193      -0.297891610794064     
 -0.318820564647072      -0.336372851991174      -0.349981872361573     
 -0.358819931565899      -0.363055259692572      -0.156013328388820     
 -0.316398568519332      -0.392653140989544      -0.338152189471753     
 -0.239388800035216      -0.140189712755355      -5.218698655241211E-002
  1.306722794923559E-003  2.855995254545870E-002  3.634568641405451E-002
  3.195065562517359E-002  2.073432620401556E-002  1.005222146450935E-002
  9.264862466800117E-004 -5.199458840363771E-003 -8.093726482259632E-003
 -0.103280380706909      -0.207322146818825      -0.226663264487022     
 -0.107303735382389       5.834381267371225E-002  0.221656670745969     
  0.368020413311950       0.470464590889064       0.536953120438115     
  0.574701187472346       0.592047074348380       0.595590021543348     
  0.594507140900608       0.591229903124506       0.588404150936831     
  0.587030951185750      -2.396994444831279E-002 -4.301336690529897E-002
  2.255174855092835E-002  0.236781512896303       0.500547250349516     
  0.759026737547737       0.992964201336979        1.16958574270500     
   1.29527603034728        1.37723850472001        1.42543616597500     
   1.44896997709015        1.46027361593902        1.46417028492652     
   1.46516988294810        1.46547355327652       8.690730950663199E-002
  0.186755516358985       0.369708447663289       0.712664900046734     
   1.10933831248924        1.49738317005176        1.85118675694312     
   2.13001461097927        2.33732602149350        2.47985859463628     
   2.56977863279753        2.61988444877823        2.64724271649247     
   2.66014344994132        2.66577161008006        2.66804222433950     
  0.234417574895246       0.492262174730566       0.829143219390127     
   1.33746939320919        1.90399969040617        2.45790927979347     
   2.96585338244354        3.37757764838645        3.69258541177166     
   3.91659540731757        4.06395913261994        4.15160413365553     
   4.20208752019141        4.22813590832970        4.24055982434911     
   4.24571496309472       0.418906189210632       0.873747604061559     
   1.39956603412439        2.10619922218895        2.87427288809031     
   3.62418899114087        4.31450793122925        4.88551244386536     
   5.33291397016568        5.66120799187837        5.88616122633642     
   6.02784121174144        6.11372281179068        6.16104567902312     
   6.18493266639961        6.19507036751026       0.616249492892685     
   1.28077247416326        2.00462936307818        2.91459136162596     
   3.88578834413211        4.83037609927287        5.70007901160983     
   6.42818201477869        7.00883334313953        7.44631190468941     
   7.75701157569049        7.96222485311984        8.09234436858540     
   8.16777048194344        8.20746297392989        8.22465520091084     
  0.772378938103685        1.60159908445830        2.47913847627640     
   3.54454597918912        4.66716413286665        5.75232244366757     
   6.74784630903109        7.58468388166727        8.25967054108410     
   8.77909227860765        9.15907513782900        9.41933365453345     