 Title = "Wing and Wake"
 VARIABLES = "X" "Y" "Z" "GAM" "skew"
 Zone I=   11 J=   26 K=1  T="Blade"
 DATAPACKING=BLOCK
 VARLOCATION=([4]=CELLCENTERED,[5]=CELLCENTERED)
 -0.236897897351115      -0.218892288125002      -0.200886678898889     
 -0.182881069672777      -0.164875460446664      -0.146869851220552     
 -0.128864241994438      -0.110858632768326      -9.285302354221317E-002
 -7.484741431610101E-002 -5.684180508998826E-002 -0.238018165003520     
 -0.220012555777408      -0.202006946551295      -0.184001337325182     
 -0.165995728099070      -0.147990118872957      -0.129984509646844     
 -0.111978900420732      -9.397329119461875E-002 -7.596768196850659E-002
 -5.796207274239364E-002 -0.241361300670642      -0.223355691444530     
 -0.205350082218417      -0.187344472992304      -0.169338863766192     
 -0.151333254540079      -0.133327645313966      -0.115322036087854     
 -9.731642686174120E-002 -7.931081763562846E-002 -6.130520840951593E-002
 -0.246874581105919      -0.228868971879806      -0.210863362653693     
 -0.192857753427580      -0.174852144201468      -0.156846534975355     
 -0.138840925749243      -0.120835316523131      -0.102829707297018     
 -8.482409807090500E-002 -6.681848884479241E-002 -0.254471058583410     
 -0.236465449357298      -0.218459840131185      -0.200454230905072     
 -0.182448621678960      -0.164443012452847      -0.146437403226735     
 -0.128431794000622      -0.110426184774509      -9.242057554839686E-002
 -7.441496632228409E-002 -0.264030932115382      -0.246025322889270     
 -0.228019713663157      -0.210014104437044      -0.192008495210932     
 -0.174002885984819      -0.155997276758706      -0.137991667532594     
 -0.119986058306481      -0.101980449080368      -8.397483985425534E-002
 -0.275403436785442      -0.257397827559330      -0.239392218333218     
 -0.221386609107105      -0.203380999880992      -0.185375390654879     
 -0.167369781428767      -0.149364172202654      -0.131358562976541     
 -0.113352953750429      -9.534734452431622E-002 -0.288409221401340     
 -0.270403612175228      -0.252398002949115      -0.234392393723002     
 -0.216386784496890      -0.198381175270778      -0.180375566044664     
 -0.162369956818552      -0.144364347592439      -0.126358738366326     
 -0.108353129140214      -0.302843176970403      -0.284837567744291     
 -0.266831958518178      -0.248826349292066      -0.230820740065953     
 -0.212815130839840      -0.194809521613728      -0.176803912387615     
 -0.158798303161503      -0.140792693935390      -0.122787084709277     
 -0.318477671390880      -0.300472062164768      -0.282466452938655     
 -0.264460843712543      -0.246455234486430      -0.228449625260317     
 -0.210444016034205      -0.192438406808092      -0.174432797581979     
 -0.156427188355867      -0.138421579129754      -0.335066139346167     
 -0.317060530120055      -0.299054920893942      -0.281049311667829     
 -0.263043702441716      -0.245038093215604      -0.227032483989491     
 -0.209026874763379      -0.191021265537266      -0.173015656311153     
 -0.155010047085040      -0.352346970787137      -0.334341361561023     
 -0.316335752334910      -0.298330143108799      -0.280324533882685     
 -0.262318924656574      -0.244313315430459      -0.226307706204348     
 -0.208302096978236      -0.190296487752122      -0.172290878526011     
 -0.370047636678897      -0.352042027452785      -0.334036418226671     
 -0.316030809000560      -0.298025199774447      -0.280019590548334     
 -0.262013981322221      -0.244008372096109      -0.226002762869996     
 -0.207997153643884      -0.189991544417771      -0.387888986946470     
 -0.369883377720358      -0.351877768494245      -0.333872159268132     
 -0.315866550042020      -0.297860940815908      -0.279855331589794     
 -0.261849722363683      -0.243844113137569      -0.225838503911456     
 -0.207832894685344      -0.405589652838232      -0.387584043612119     
 -0.369578434386007      -0.351572825159894      -0.333567215933782     
 -0.315561606707669      -0.297555997481555      -0.279550388255444     
 -0.261544779029331      -0.243539169803219      -0.225533560577105     
 -0.422870484279201      -0.404864875053088      -0.386859265826976     
 -0.368853656600863      -0.350848047374751      -0.332842438148638     
 -0.314836828922526      -0.296831219696412      -0.278825610470300     
 -0.260820001244187      -0.242814392018075      -0.439458952234486     
 -0.421453343008374      -0.403447733782262      -0.385442124556150     
 -0.367436515330037      -0.349430906103924      -0.331425296877811     
 -0.313419687651699      -0.295414078425586      -0.277408469199474     
 -0.259402859973362      -0.455093446654965      -0.437087837428851     
 -0.419082228202738      -0.401076618976627      -0.383071009750513     
 -0.365065400524401      -0.347059791298288      -0.329054182072176     
 -0.311048572846063      -0.293042963619950      -0.275037354393838     
 -0.469527402224027      -0.451521792997915      -0.433516183771800     
 -0.415510574545689      -0.397504965319578      -0.379499356093464     
 -0.361493746867350      -0.343488137641239      -0.325482528415127     
 -0.307476919189013      -0.289471309962901      -0.482533186839926     
 -0.464527577613812      -0.446521968387699      -0.428516359161588     
 -0.410510749935474      -0.392505140709362      -0.374499531483249     
 -0.356493922257136      -0.338488313031024      -0.320482703804912     
 -0.302477094578800      -0.493905691509984      -0.475900082283873     
 -0.457894473057761      -0.439888863831648      -0.421883254605535     
 -0.403877645379421      -0.385872036153311      -0.367866426927197     
 -0.349860817701085      -0.331855208474971      -0.313849599248859     
 -0.503465565041957      -0.485459955815846      -0.467454346589731     
 -0.449448737363619      -0.431443128137508      -0.413437518911394     
 -0.395431909685281      -0.377426300459169      -0.359420691233055     
 -0.341415082006944      -0.323409472780830      -0.511062042519452     
 -0.493056433293336      -0.475050824067224      -0.457045214841111     
 -0.439039605614998      -0.421033996388886      -0.403028387162772     
 -0.385022777936661      -0.367017168710548      -0.349011559484435     
 -0.331005950258322      -0.516575322954727      -0.498569713728614     
 -0.480564104502500      -0.462558495276387      -0.444552886050275     
 -0.426547276824161      -0.408541667598050      -0.390536058371937     
 -0.372530449145824      -0.354524839919711      -0.336519230693598     
 -0.519918458621848      -0.501912849395735      -0.483907240169622     
 -0.465901630943509      -0.447896021717396      -0.429890412491285     
 -0.411884803265171      -0.393879194039059      -0.375873584812948     
 -0.357867975586835      -0.339862366360721      -0.521038726274252     
 -0.503033117048142      -0.485027507822027      -0.467021898595915     
 -0.449016289369801      -0.431010680143691      -0.413005070917577     
 -0.394999461691464      -0.376993852465353      -0.358988243239239     
 -0.340982634013127     
  0.125584602610123       0.131212339517766       0.136840076425409     
  0.142467813333052       0.148095550240695       0.153723287148339     
  0.159351024055981       0.164978760963625       0.170606497871268     
  0.176234234778911       0.181861971686555       0.129168832276309     
  0.134796569183952       0.140424306091595       0.146052042999238     
  0.151679779906882       0.157307516814525       0.162935253722168     
  0.168562990629812       0.174190727537455       0.179818464445098     
  0.185446201352741       0.139864995831916       0.145492732739560     
  0.151120469647203       0.156748206554846       0.162375943462490     
  0.168003680370133       0.173631417277776       0.179259154185420     
  0.184886891093062       0.190514628000705       0.196142364908349     
  0.157504408388097       0.163132145295740       0.168759882203383     
  0.174387619111026       0.180015356018669       0.185643092926312     
  0.191270829833956       0.196898566741599       0.202526303649242     
  0.208154040556885       0.213781777464528       0.181808885871562     
  0.187436622779205       0.193064359686849       0.198692096594492     
  0.204319833502135       0.209947570409778       0.215575307317421     
  0.221203044225065       0.226830781132707       0.232458518040351     
  0.238086254947994       0.212395132153608       0.218022869061252     
  0.223650605968895       0.229278342876538       0.234906079784181     
  0.240533816691825       0.246161553599467       0.251789290507111     
  0.257417027414754       0.263044764322397       0.268672501230041     
  0.248780783859031       0.254408520766674       0.260036257674316     
  0.265663994581960       0.271291731489603       0.276919468397246     
  0.282547205304889       0.288174942212533       0.293802679120176     
  0.299430416027819       0.305058152935461       0.290392017524697     
  0.296019754432341       0.301647491339985       0.307275228247627     
  0.312902965155271       0.318530702062914       0.324158438970557     
  0.329786175878200       0.335413912785843       0.341041649693487     
  0.346669386601130       0.336572599138357       0.342200336046001     
  0.347828072953644       0.353455809861287       0.359083546768930     
  0.364711283676573       0.370339020584216       0.375966757491860     
  0.381594494399502       0.387222231307147       0.392849968214790     
  0.386594233341020       0.392221970248662       0.397849707156306     
  0.403477444063948       0.409105180971592       0.414732917879236     
  0.420360654786879       0.425988391694522       0.431616128602165     
  0.437243865509808       0.442871602417451       0.439668049079833     
  0.445295785987477       0.450923522895119       0.456551259802762     
  0.462178996710405       0.467806733618048       0.473434470525692     
  0.479062207433335       0.484689944340979       0.490317681248621     
  0.495945418156264       0.494957040575834       0.500584777483476     
  0.506212514391121       0.511840251298763       0.517467988206407     
  0.523095725114050       0.528723462021691       0.534351198929336     
  0.539978935836979       0.545606672744623       0.551234409652265     
  0.551589267405090       0.557217004312733       0.562844741220376     
  0.568472478128020       0.574100215035662       0.579727951943305     
  0.585355688850949       0.590983425758592       0.596611162666235     
  0.602238899573878       0.607866636481521       0.608671605520051     
  0.614299342427693       0.619927079335336       0.625554816242979     
  0.631182553150623       0.636810290058267       0.642438026965908     
  0.648065763873552       0.653693500781195       0.659321237688839     
  0.664948974596482       0.665303832349305       0.670931569256950     
  0.676559306164592       0.682187043072237       0.687814779979879     
  0.693442516887522       0.699070253795166       0.704697990702807     
  0.710325727610452       0.715953464518096       0.721581201425739     
  0.720592823845305       0.726220560752950       0.731848297660593     
  0.737476034568238       0.743103771475881       0.748731508383524     
  0.754359245291167       0.759986982198810       0.765614719106451     
  0.771242456014096       0.776870192921741       0.773666639584121     
  0.779294376491762       0.784922113399407       0.790549850307050     
  0.796177587214694       0.801805324122335       0.807433061029978     
  0.813060797937623       0.818688534845265       0.824316271752910     
  0.829944008660553       0.823688273786781       0.829316010694425     
  0.834943747602067       0.840571484509713       0.846199221417355     
  0.851826958324998       0.857454695232642       0.863082432140285     
  0.868710169047928       0.874337905955571       0.879965642863213     
  0.869868855400442       0.875496592308085       0.881124329215728     
  0.886752066123372       0.892379803031014       0.898007539938656     
  0.903635276846300       0.909263013753945       0.914890750661588     
  0.920518487569230       0.926146224476873       0.911480089066109     
  0.917107825973752       0.922735562881394       0.928363299789039     
  0.933991036696682       0.939618773604324       0.945246510511969     
  0.950874247419612       0.956501984327257       0.962129721234897     
  0.967757458142540       0.947865740771530       0.953493477679175     
  0.959121214586815       0.964748951494462       0.970376688402103     
  0.976004425309747       0.981632162217393       0.987259899125032     
  0.992887636032677       0.998515372940320        1.00414310984796     
  0.978451987053578       0.984079723961222       0.989707460868865     
  0.995335197776507        1.00096293468415        1.00659067159179     
   1.01221840849944        1.01784614540708        1.02347388231472     
   1.02910161922237        1.03472935613001        1.00275646453704     
   1.00838420144469        1.01401193835233        1.01963967525997     
   1.02526741216762        1.03089514907526        1.03652288598290     
   1.04215062289054        1.04777835979819        1.05340609670583     
   1.05903383361347        1.02039587709322        1.02602361400087     
   1.03165135090851        1.03727908781615        1.04290682472380     
   1.04853456163144        1.05416229853908        1.05979003544673     
   1.06541777235437        1.07104550926201        1.07667324616966     
   1.03109204064883        1.03671977755647        1.04234751446411     
   1.04797525137176        1.05360298827941        1.05923072518705     
   1.06485846209469        1.07048619900233        1.07611393590998     
   1.08174167281762        1.08736940972526        1.03467627031502     
   1.04030400722266        1.04593174413030        1.05155948103795     
   1.05718721794559        1.06281495485323        1.06844269176088     
   1.07407042866852        1.07969816557616        1.08532590248381     
   1.09095363939145     
  2.651247573289247E-002  2.386122815960322E-002  2.120998058631397E-002
  1.855873301302472E-002  1.590748543973548E-002  1.325623786644623E-002
  1.060499029315698E-002  7.953742719867740E-003  5.302495146578492E-003
  2.651247573289244E-003  0.000000000000000E+000  2.651247573289247E-002
  2.386122815960322E-002  2.120998058631397E-002  1.855873301302472E-002
  1.590748543973548E-002  1.325623786644623E-002  1.060499029315698E-002
  7.953742719867740E-003  5.302495146578492E-003  2.651247573289244E-003
  0.000000000000000E+000  2.651247573289247E-002  2.386122815960322E-002
  2.120998058631397E-002  1.855873301302472E-002  1.590748543973548E-002
  1.325623786644623E-002  1.060499029315698E-002  7.953742719867740E-003
  5.302495146578492E-003  2.651247573289244E-003  0.000000000000000E+000
  2.651247573289247E-002  2.386122815960322E-002  2.120998058631397E-002
  1.855873301302472E-002  1.590748543973548E-002  1.325623786644623E-002
  1.060499029315698E-002  7.953742719867740E-003  5.302495146578492E-003
  2.651247573289244E-003  0.000000000000000E+000  2.651247573289247E-002
  2.386122815960322E-002  2.120998058631397E-002  1.855873301302472E-002
  1.590748543973548E-002  1.325623786644623E-002  1.060499029315698E-002
  7.953742719867740E-003  5.302495146578492E-003  2.651247573289244E-003
  0.000000000000000E+000  2.651247573289247E-002  2.386122815960322E-002
  2.120998058631397E-002  1.855873301302472E-002  1.590748543973548E-002
  1.325623786644623E-002  1.060499029315698E-002  7.953742719867740E-003
  5.302495146578492E-003  2.651247573289244E-003  0.000000000000000E+000
  2.651247573289247E-002  2.386122815960322E-002  2.120998058631397E-002
  1.855873301302472E-002  1.590748543973548E-002  1.325623786644623E-002
  1.060499029315698E-002  7.953742719867740E-003  5.302495146578492E-003
  2.651247573289244E-003  0.000000000000000E+000  2.651247573289247E-002
  2.386122815960322E-002  2.120998058631397E-002  1.855873301302472E-002
  1.590748543973548E-002  1.325623786644623E-002  1.060499029315698E-002
  7.953742719867740E-003  5.302495146578492E-003  2.651247573289244E-003
  0.000000000000000E+000  2.651247573289247E-002  2.386122815960322E-002
  2.120998058631397E-002  1.855873301302472E-002  1.590748543973548E-002
  1.325623786644623E-002  1.060499029315698E-002  7.953742719867740E-003
  5.302495146578492E-003  2.651247573289244E-003  0.000000000000000E+000
  2.651247573289247E-002  2.386122815960322E-002  2.120998058631397E-002
  1.855873301302472E-002  1.590748543973548E-002  1.325623786644623E-002
  1.060499029315698E-002  7.953742719867740E-003  5.302495146578492E-003
  2.651247573289244E-003  0.000000000000000E+000  2.651247573289247E-002
  2.386122815960322E-002  2.120998058631397E-002  1.855873301302472E-002
  1.590748543973548E-002  1.325623786644623E-002  1.060499029315698E-002
  7.953742719867740E-003  5.302495146578492E-003  2.651247573289244E-003
  0.000000000000000E+000  2.651247573289247E-002  2.386122815960322E-002
  2.120998058631397E-002  1.855873301302472E-002  1.590748543973548E-002
  1.325623786644623E-002  1.060499029315698E-002  7.953742719867740E-003
  5.302495146578492E-003  2.651247573289244E-003  0.000000000000000E+000
  2.651247573289247E-002  2.386122815960322E-002  2.120998058631397E-002
  1.855873301302472E-002  1.590748543973548E-002  1.325623786644623E-002
  1.060499029315698E-002  7.953742719867740E-003  5.302495146578492E-003
  2.651247573289244E-003  0.000000000000000E+000  2.651247573289247E-002
  2.386122815960322E-002  2.120998058631397E-002  1.855873301302472E-002
  1.590748543973548E-002  1.325623786644623E-002  1.060499029315698E-002
  7.953742719867740E-003  5.302495146578492E-003  2.651247573289244E-003
  0.000000000000000E+000  2.651247573289247E-002  2.386122815960322E-002
  2.120998058631397E-002  1.855873301302472E-002  1.590748543973548E-002
  1.325623786644623E-002  1.060499029315698E-002  7.953742719867740E-003
  5.302495146578492E-003  2.651247573289244E-003  0.000000000000000E+000
  2.651247573289247E-002  2.386122815960322E-002  2.120998058631397E-002
  1.855873301302472E-002  1.590748543973548E-002  1.325623786644623E-002
  1.060499029315698E-002  7.953742719867740E-003  5.302495146578492E-003
  2.651247573289244E-003  0.000000000000000E+000  2.651247573289247E-002
  2.386122815960322E-002  2.120998058631397E-002  1.855873301302472E-002
  1.590748543973548E-002  1.325623786644623E-002  1.060499029315698E-002
  7.953742719867740E-003  5.302495146578492E-003  2.651247573289244E-003
  0.000000000000000E+000  2.651247573289247E-002  2.386122815960322E-002
  2.120998058631397E-002  1.855873301302472E-002  1.590748543973548E-002
  1.325623786644623E-002  1.060499029315698E-002  7.953742719867740E-003
  5.302495146578492E-003  2.651247573289244E-003  0.000000000000000E+000
  2.651247573289247E-002  2.386122815960322E-002  2.120998058631397E-002
  1.855873301302472E-002  1.590748543973548E-002  1.325623786644623E-002
  1.060499029315698E-002  7.953742719867740E-003  5.302495146578492E-003
  2.651247573289244E-003  0.000000000000000E+000  2.651247573289247E-002
  2.386122815960322E-002  2.120998058631397E-002  1.855873301302472E-002
  1.590748543973548E-002  1.325623786644623E-002  1.060499029315698E-002
  7.953742719867740E-003  5.302495146578492E-003  2.651247573289244E-003
  0.000000000000000E+000  2.651247573289247E-002  2.386122815960322E-002
  2.120998058631397E-002  1.855873301302472E-002  1.590748543973548E-002
  1.325623786644623E-002  1.060499029315698E-002  7.953742719867740E-003
  5.302495146578492E-003  2.651247573289244E-003  0.000000000000000E+000
  2.651247573289247E-002  2.386122815960322E-002  2.120998058631397E-002
  1.855873301302472E-002  1.590748543973548E-002  1.325623786644623E-002
  1.060499029315698E-002  7.953742719867740E-003  5.302495146578492E-003
  2.651247573289244E-003  0.000000000000000E+000  2.651247573289247E-002
  2.386122815960322E-002  2.120998058631397E-002  1.855873301302472E-002
  1.590748543973548E-002  1.325623786644623E-002  1.060499029315698E-002
  7.953742719867740E-003  5.302495146578492E-003  2.651247573289244E-003
  0.000000000000000E+000  2.651247573289247E-002  2.386122815960322E-002
  2.120998058631397E-002  1.855873301302472E-002  1.590748543973548E-002
  1.325623786644623E-002  1.060499029315698E-002  7.953742719867740E-003
  5.302495146578492E-003  2.651247573289244E-003  0.000000000000000E+000
  2.651247573289247E-002  2.386122815960322E-002  2.120998058631397E-002
  1.855873301302472E-002  1.590748543973548E-002  1.325623786644623E-002
  1.060499029315698E-002  7.953742719867740E-003  5.302495146578492E-003
  2.651247573289244E-003  0.000000000000000E+000  2.651247573289247E-002
  2.386122815960322E-002  2.120998058631397E-002  1.855873301302472E-002
  1.590748543973548E-002  1.325623786644623E-002  1.060499029315698E-002
  7.953742719867740E-003  5.302495146578492E-003  2.651247573289244E-003
  0.000000000000000E+000
  5.460090421918223E-002  0.103497390410053       0.153644180730605     
  0.199583420804172       0.237820881322371       0.267943094444752     
  0.290357392193446       0.305452130630223       0.313608835334530     
  0.315090995821691       9.109660109344382E-002  0.172374317760828     
  0.256380902087183       0.334627684266404       0.400335650810581     
  0.452058796635440       0.490441429114828       0.516213887048701     
  0.530210691207200       0.533782455440409       0.120869844777496     
  0.225828985575638       0.336282029587073       0.444493928852719     
  0.538703624257020       0.613165161096207       0.668094106091469     
  0.704425939367875       0.723315196887516       0.725744513684481     
  0.138861334079905       0.251301132843950       0.369847792637318     
  0.492315980088570       0.606775722534453       0.701928642387215     
  0.773718089808906       0.819341452020844       0.839720041086566     
  0.836624172706094       0.152606459902053       0.261125011634534     
  0.369406551350251       0.478369173145686       0.581962515252540     
  0.677217816950702       0.756256463355995       0.805211976539459     
  0.824759908074641       0.819053200382987       0.174472128133984     
  0.281789279050320       0.376063074446099       0.464189597021222     
  0.546974394813990       0.623110502794270       0.686434268527251     
  0.726421582762041       0.744562438509199       0.743356861913964     
  0.209893639388568       0.327639555103327       0.423310855065519     
  0.506601832460952       0.579704749455638       0.642416122361198     
  0.693323245864495       0.730498692281731       0.752246517710109     
  0.757207786662317       0.261703570926441       0.399158682258114     
  0.505018952074769       0.593278135355717       0.668201543972925     
  0.731089226985962       0.781960642156275       0.820219308880715     
  0.844853618454904       0.854286582023577       0.328470118767427     
  0.493506838228477       0.616005476641405       0.715170199510007     
  0.797504270292668       0.865690993356097       0.920821399601923     
  0.963154354636461       0.992260848837445        1.00657876497344     
  0.406493441168287       0.605372710026978       0.749661557762132     
  0.864328660240456       0.958302190010389        1.03566772140768     
   1.09845164097718        1.14752681534531        1.18276445628846     
   1.20242221550663       0.493688762737559       0.731491865880459     
  0.901746894720536        1.03564567981237        1.14461401190276     
   1.23407138656829        1.30685326543458        1.36431793565275     
   1.40654948618322        1.43160944590274       0.589400790504819     
  0.870550736880091        1.07014998016439        1.22605533039717     
   1.35230481595083        1.45566651790657        1.53975858676133     
   1.60640471971939        1.65591380219712        1.68620081937194     
  0.692759569064338        1.02090041285055        1.25239544437312     
   1.43222359054659        1.57718760961342        1.69547275938899     
   1.79151998944940        1.86764997170562        1.92443153708691     
   1.95968907823691       0.802388570253137        1.18027671874495     
   1.44542444802432        1.65035604220554        1.81480261892429     
   1.94846125601967        2.05665857007112        2.14225515521424     
   2.20611313443430        2.24602088285933       0.916934647927101     
   1.34655871553276        1.64647498692086        1.87711410384048     
   2.06128377707125        2.21028503775890        2.33040564914805     
   2.42510757462529        2.49560435872577        2.53972706117768     
   1.03692396236654        1.52029937805583        1.85590037384700     
   2.11249322689156        2.31617077413764        2.47997639379330     
   2.61127905128496        2.71425857078797        2.79059222448963     
   2.83829682210425        1.17052530243623        1.71220319301004     
   2.08522508001681        2.36802338241337        2.59063948753020     
   2.76824109107430        2.90950669683822        3.01950097457095     
   3.10052839770482        3.15099123888990        1.35038569645540     
   1.96215881359278        2.37589219050077        2.68543361600302     
   2.92683980972613        3.11799336532691        3.26905333094955     
   3.38606486467662        3.47202172333717        3.52568424835329     
   1.59550221172477        2.29418030815033        2.75341661260702     
   3.09006208699488        3.34884214685489        3.55138976280218     
   3.70997564156941        3.83200157156576        3.92133765434321     
   3.97723690584499        1.76452683243012        2.52001393973991     
   3.00541079817737        3.35301430974322        3.61426628279565     
   3.81482964971237        3.96929821463987        4.08636626684799     
   4.17071399403373        4.22252900653703        1.80541341719522     
   2.55830123384863        3.02986713005327        3.36002789645063     
   3.60349989387896        3.78748480622270        3.92720040127162     
   4.03145795159023        4.10492310202738        4.14845975204558     
   1.70325951330604        2.38442081336746        2.79687565549390     
   3.07870706640506        3.28315315861424        3.43593966459461     
   3.55085953408631        3.63548803829663        3.69350838137273     
   3.72556650762893        1.47693767149363        2.02226376291562     
   2.34010166229178        2.55407425210165        2.70834615094585     
   2.82329219626938        2.90957543222192        2.97299197610191     
   3.01647161330691        3.04083736152872        1.13041211995383     
   1.49915305565551        1.71122117506128        1.85434186924994     
   1.95790089994394        2.03530667873411        2.09363328514354     
   2.13688511902970        2.16765561527508        2.18968440001831     
  0.687370368603152       0.893879012029634        1.01378110197065     
   1.09516503696475        1.15426279394109        1.19854097684906     
   1.23196034563000        1.25674295051071        1.27410193679233     
   1.28437237010242     
  0.000000000000000E+000  0.000000000000000E+000  0.000000000000000E+000
  0.000000000000000E+000  0.000000000000000E+000  0.000000000000000E+000
  0.000000000000000E+000  0.000000000000000E+000  0.000000000000000E+000
  0.000000000000000E+000  0.000000000000000E+000  0.000000000000000E+000
  0.000000000000000E+000  0.000000000000000E+000  0.000000000000000E+000
  0.000000000000000E+000  0.000000000000000E+000  0.000000000000000E+000
  0.000000000000000E+000  0.000000000000000E+000  0.000000000000000E+000
  0.000000000000000E+000  0.000000000000000E+000  0.000000000000000E+000
  0.000000000000000E+000  0.000000000000000E+000  0.000000000000000E+000
  0.000000000000000E+000  0.000000000000000E+000  0.000000000000000E+000
  0.000000000000000E+000  0.000000000000000E+000  0.000000000000000E+000
  0.000000000000000E+000  0.000000000000000E+000  0.000000000000000E+000
  0.000000000000000E+000  0.000000000000000E+000  0.000000000000000E+000
  0.000000000000000E+000  0.000000000000000E+000  0.000000000000000E+000
  0.000000000000000E+000  0.000000000000000E+000  0.000000000000000E+000
  0.000000000000000E+000  0.000000000000000E+000  0.000000000000000E+000
  0.000000000000000E+000  0.000000000000000E+000  0.000000000000000E+000
  0.000000000000000E+000  0.000000000000000E+000  0.000000000000000E+000
  0.000000000000000E+000  0.000000000000000E+000  0.000000000000000E+000
  0.000000000000000E+000  0.000000000000000E+000  0.000000000000000E+000
  0.000000000000000E+000  0.000000000000000E+000  0.000000000000000E+000
  0.000000000000000E+000  0.000000000000000E+000  0.000000000000000E+000
  0.000000000000000E+000  0.000000000000000E+000  0.000000000000000E+000
  0.000000000000000E+000  0.000000000000000E+000  0.000000000000000E+000
  0.000000000000000E+000  0.000000000000000E+000  0.000000000000000E+000
  0.000000000000000E+000  0.000000000000000E+000  0.000000000000000E+000
  0.000000000000000E+000  0.000000000000000E+000  0.000000000000000E+000
  0.000000000000000E+000  0.000000000000000E+000  0.000000000000000E+000
  0.000000000000000E+000  0.000000000000000E+000  0.000000000000000E+000
  0.000000000000000E+000  0.000000000000000E+000  0.000000000000000E+000
  0.000000000000000E+000  0.000000000000000E+000  0.000000000000000E+000
  0.000000000000000E+000  0.000000000000000E+000  0.000000000000000E+000
  0.000000000000000E+000  0.000000000000000E+000  0.000000000000000E+000
  0.000000000000000E+000  0.000000000000000E+000  0.000000000000000E+000
  0.000000000000000E+000  0.000000000000000E+000  0.000000000000000E+000
  0.000000000000000E+000  0.000000000000000E+000  0.000000000000000E+000
  0.000000000000000E+000  0.000000000000000E+000  0.000000000000000E+000
  0.000000000000000E+000  0.000000000000000E+000  0.000000000000000E+000
  0.000000000000000E+000  0.000000000000000E+000  0.000000000000000E+000