 Title = "Wing and Wake"
 VARIABLES = "X" "Y" "Z" "GAM" "skew"
 Zone I=   11 J=   26 K=1  T="Blade"
 DATAPACKING=BLOCK
 VARLOCATION=([4]=CELLCENTERED,[5]=CELLCENTERED)
  0.266918504557626       0.252434390558735       0.237950276559844     
  0.223466162560953       0.208982048562061       0.194497934563170     
  0.180013820564279       0.165529706565388       0.151045592566496     
  0.136561478567605       0.122077364568714       0.269324468309142     
  0.254840354310251       0.240356240311359       0.225872126312468     
  0.211388012313577       0.196903898314686       0.182419784315795     
  0.167935670316904       0.153451556318012       0.138967442319121     
  0.124483328320230       0.276504416078074       0.262020302079183     
  0.247536188080292       0.233052074081401       0.218567960082510     
  0.204083846083618       0.189599732084727       0.175115618085836     
  0.160631504086945       0.146147390088053       0.131663276089162     
  0.288345115799015       0.273861001800124       0.259376887801233     
  0.244892773802341       0.230408659803450       0.215924545804559     
  0.201440431805668       0.186956317806777       0.172472203807885     
  0.157988089808994       0.143503975810103       0.304659832564073     
  0.290175718565182       0.275691604566291       0.261207490567399     
  0.246723376568508       0.232239262569617       0.217755148570726     
  0.203271034571835       0.188786920572943       0.174302806574052     
  0.159818692575161       0.325191273543925       0.310707159545033     
  0.296223045546142       0.281738931547251       0.267254817548359     
  0.252770703549468       0.238286589550577       0.223802475551686     
  0.209318361552794       0.194834247553903       0.180350133555012     
  0.349615645649428       0.335131531650537       0.320647417651646     
  0.306163303652755       0.291679189653863       0.277195075654972     
  0.262710961656081       0.248226847657190       0.233742733658298     
  0.219258619659407       0.204774505660516       0.377547761942068     
  0.363063647943177       0.348579533944286       0.334095419945394     
  0.319611305946503       0.305127191947612       0.290643077948721     
  0.276158963949830       0.261674849950938       0.247190735952048     
  0.232706621953156       0.408547116262072       0.394063002263181     
  0.379578888264290       0.365094774265399       0.350610660266507     
  0.336126546267616       0.321642432268724       0.307158318269833     
  0.292674204270942       0.278190090272051       0.263705976273160     
  0.442124830273696       0.427640716274805       0.413156602275914     
  0.398672488277023       0.384188374278131       0.369704260279240     
  0.355220146280349       0.340736032281458       0.326251918282566     
  0.311767804283675       0.297283690284784       0.477751363368624     
  0.463267249369732       0.448783135370841       0.434299021371950     
  0.419814907373059       0.405330793374167       0.390846679375276     
  0.376362565376385       0.361878451377494       0.347394337378603     
  0.332910223379711       0.514864863837688       0.500380749838796     
  0.485896635839905       0.471412521841014       0.456928407842123     
  0.442444293843232       0.427960179844340       0.413476065845450     
  0.398991951846558       0.384507837847667       0.370023723848776     
  0.552880029607962       0.538395915609070       0.523911801610179     
  0.509427687611289       0.494943573612397       0.480459459613506     
  0.465975345614614       0.451491231615723       0.437007117616832     
  0.422523003617941       0.408038889619049       0.591197338806088     
  0.576713224807197       0.562229110808305       0.547744996809414     
  0.533260882810523       0.518776768811632       0.504292654812741     
  0.489808540813849       0.475324426814958       0.460840312816067     
  0.446356198817176       0.629212504576362       0.614728390577471     
  0.600244276578579       0.585760162579688       0.571276048580797     
  0.556791934581905       0.542307820583014       0.527823706584122     
  0.513339592585232       0.498855478586341       0.484371364587450     
  0.666326005045425       0.651841891046534       0.637357777047643     
  0.622873663048752       0.608389549049861       0.593905435050970     
  0.579421321052078       0.564937207053188       0.550453093054296     
  0.535968979055405       0.521484865056514       0.701952538140353     
  0.687468424141462       0.672984310142571       0.658500196143680     
  0.644016082144788       0.629531968145897       0.615047854147005     
  0.600563740148115       0.586079626149223       0.571595512150333     
  0.557111398151442       0.735530252151977       0.721046138153086     
  0.706562024154195       0.692077910155304       0.677593796156412     
  0.663109682157521       0.648625568158630       0.634141454159740     
  0.619657340160848       0.605173226161956       0.590689112163065     
  0.766529606471981       0.752045492473090       0.737561378474199     
  0.723077264475307       0.708593150476417       0.694109036477525     
  0.679624922478634       0.665140808479743       0.650656694480852     
  0.636172580481960       0.621688466483069       0.794461722764621     
  0.779977608765730       0.765493494766839       0.751009380767947     
  0.736525266769056       0.722041152770165       0.707557038771274     
  0.693072924772383       0.678588810773492       0.664104696774601     
  0.649620582775708       0.818886094870125       0.804401980871234     
  0.789917866872342       0.775433752873452       0.760949638874560     
  0.746465524875668       0.731981410876779       0.717497296877887     
  0.703013182878996       0.688529068880104       0.674044954881213     
  0.839417535849975       0.824933421851086       0.810449307852194     
  0.795965193853303       0.781481079854411       0.766996965855520     
  0.752512851856629       0.738028737857738       0.723544623858846     
  0.709060509859955       0.694576395861064       0.855732252615035     
  0.841248138616142       0.826764024617252       0.812279910618360     
  0.797795796619470       0.783311682620578       0.768827568621686     
  0.754343454622796       0.739859340623904       0.725375226625014     
  0.710891112626122       0.867572952335975       0.853088838337083     
  0.838604724338194       0.824120610339301       0.809636496340410     
  0.795152382341518       0.780668268342628       0.766184154343737     
  0.751700040344846       0.737215926345954       0.722731812347063     
  0.874752900104907       0.860268786106016       0.845784672107125     
  0.831300558108234       0.816816444109343       0.802332330110451     
  0.787848216111560       0.773364102112668       0.758879988113778     
  0.744395874114887       0.729911760115994       0.877158863856423     
  0.862674749857532       0.848190635858641       0.833706521859750     
  0.819222407860858       0.804738293861967       0.790254179863075     
  0.775770065864184       0.761285951865294       0.746801837866402     
  0.732317723867512     
 -2.542868669127455E-002 -3.751520099326620E-002 -4.960171529525800E-002
 -6.168822959724982E-002 -7.377474389924144E-002 -8.586125820123311E-002
 -9.794777250322473E-002 -0.110034286805217      -0.122120801107208     
 -0.134207315409200      -0.146293829711192      -2.831192104515400E-002
 -4.039843534714539E-002 -5.248494964913714E-002 -6.457146395112887E-002
 -7.665797825312065E-002 -8.874449255511233E-002 -0.100831006857104     
 -0.112917521159096      -0.125004035461087      -0.137090549763079     
 -0.149177064065071      -3.691615377866922E-002 -4.900266808066115E-002
 -6.108918238265285E-002 -7.317569668464453E-002 -8.526221098663626E-002
 -9.734872528862798E-002 -0.109435239590620      -0.121521753892611     
 -0.133608268194603      -0.145694782496595      -0.157781296798587     
 -5.110569100169501E-002 -6.319220530368667E-002 -7.527871960567878E-002
 -8.736523390767020E-002 -9.945174820966192E-002 -0.111538262511654     
 -0.123624776813645      -0.135711291115637      -0.147797805417629     
 -0.159884319719620      -0.171970834021612      -7.065675523580463E-002
 -8.274326953779632E-002 -9.482978383978803E-002 -0.106916298141780     
 -0.119002812443771      -0.131089326745763      -0.143175841047755     
 -0.155262355349747      -0.167348869651738      -0.179435383953730     
 -0.191521898255722      -9.526101451878617E-002 -0.107347528820778     
 -0.119434043122770      -0.131520557424762      -0.143607071726753     
 -0.155693586028745      -0.167780100330737      -0.179866614632728     
 -0.191953128934720      -0.204039643236712      -0.216126157538703     
 -0.124530444983876      -0.136616959285868      -0.148703473587859     
 -0.160789987889851      -0.172876502191843      -0.184963016493834     
 -0.197049530795826      -0.209136045097818      -0.221222559399810     
 -0.233309073701801      -0.245395588003793      -0.158003450227928     
 -0.170089964529920      -0.182176478831912      -0.194262993133903     
 -0.206349507435895      -0.218436021737887      -0.230522536039879     
 -0.242609050341870      -0.254695564643862      -0.266782078945854     
 -0.278868593247846      -0.195152140962441      -0.207238655264433     
 -0.219325169566424      -0.231411683868416      -0.243498198170408     
 -0.255584712472400      -0.267671226774391      -0.279757741076383     
 -0.291844255378374      -0.303930769680367      -0.316017283982358     
 -0.235390660142979      -0.247477174444970      -0.259563688746962     
 -0.271650203048953      -0.283736717350945      -0.295823231652937     
 -0.307909745954928      -0.319996260256921      -0.332082774558912     
 -0.344169288860904      -0.356255803162895      -0.278084422284737     
 -0.290170936586730      -0.302257450888720      -0.314343965190712     
 -0.326430479492704      -0.338516993794696      -0.350603508096688     
 -0.362690022398679      -0.374776536700671      -0.386863051002662     
 -0.398949565304654      -0.322560121254725      -0.334646635556717     
 -0.346733149858708      -0.358819664160699      -0.370906178462691     
 -0.382992692764684      -0.395079207066675      -0.407165721368667     
 -0.419252235670658      -0.431338749972650      -0.443425264274642     
 -0.368116348711690      -0.380202863013681      -0.392289377315673     
 -0.404375891617664      -0.416462405919656      -0.428548920221648     
 -0.440635434523640      -0.452721948825631      -0.464808463127623     
 -0.476894977429614      -0.488981491731607      -0.414034655734664     
 -0.426121170036656      -0.438207684338647      -0.450294198640638     
 -0.462380712942631      -0.474467227244622      -0.486553741546614     
 -0.498640255848605      -0.510726770150597      -0.522813284452589     
 -0.534899798754580      -0.459590883191628      -0.471677397493620     
 -0.483763911795612      -0.495850426097603      -0.507936940399594     
 -0.520023454701586      -0.532109969003578      -0.544196483305569     
 -0.556282997607562      -0.568369511909554      -0.580456026211546     
 -0.504066582161615      -0.516153096463607      -0.528239610765599     
 -0.540326125067591      -0.552412639369582      -0.564499153671574     
 -0.576585667973566      -0.588672182275557      -0.600758696577548     
 -0.612845210879541      -0.624931725181533      -0.546760344303375     
 -0.558846858605366      -0.570933372907358      -0.583019887209350     
 -0.595106401511341      -0.607192915813332      -0.619279430115324     
 -0.631365944417316      -0.643452458719307      -0.655538973021300     
 -0.667625487323292      -0.586998863483911      -0.599085377785903     
 -0.611171892087895      -0.623258406389887      -0.635344920691879     
 -0.647431434993871      -0.659517949295862      -0.671604463597854     
 -0.683690977899846      -0.695777492201838      -0.707864006503828     
 -0.624147554218425      -0.636234068520416      -0.648320582822408     
 -0.660407097124399      -0.672493611426391      -0.684580125728383     
 -0.696666640030375      -0.708753154332367      -0.720839668634359     
 -0.732926182936350      -0.745012697238342      -0.657620559462477     
 -0.669707073764468      -0.681793588066459      -0.693880102368452     
 -0.705966616670444      -0.718053130972435      -0.730139645274427     
 -0.742226159576419      -0.754312673878411      -0.766399188180402     
 -0.778485702482394      -0.686889989927566      -0.698976504229559     
 -0.711063018531549      -0.723149532833541      -0.735236047135533     
 -0.747322561437525      -0.759409075739517      -0.771495590041509     
 -0.783582104343501      -0.795668618645492      -0.807755132947484     
 -0.711494249210548      -0.723580763512541      -0.735667277814532     
 -0.747753792116523      -0.759840306418514      -0.771926820720507     
 -0.784013335022499      -0.796099849324491      -0.808186363626482     
 -0.820272877928473      -0.832359392230466      -0.731045313444658     
 -0.743131827746649      -0.755218342048642      -0.767304856350632     
 -0.779391370652624      -0.791477884954615      -0.803564399256607     
 -0.815650913558599      -0.827737427860592      -0.839823942162584     
 -0.851910456464574      -0.745234850667684      -0.757321364969674     
 -0.769407879271668      -0.781494393573658      -0.793580907875650     
 -0.805667422177642      -0.817753936479634      -0.829840450781626     
 -0.841926965083617      -0.854013479385608      -0.866099993687600     
 -0.753839083401199      -0.765925597703190      -0.778012112005182     
 -0.790098626307175      -0.802185140609167      -0.814271654911157     
 -0.826358169213149      -0.838444683515140      -0.850531197817133     
 -0.862617712119125      -0.874704226421115      -0.756722317755078     
 -0.768808832057070      -0.780895346359063      -0.792981860661053     
 -0.805068374963045      -0.817154889265037      -0.829241403567028     
 -0.841327917869020      -0.853414432171012      -0.865500946473004     
 -0.877587460774996     
  2.651247573289247E-002  2.386122815960322E-002  2.120998058631397E-002
  1.855873301302472E-002  1.590748543973548E-002  1.325623786644623E-002
  1.060499029315698E-002  7.953742719867740E-003  5.302495146578492E-003
  2.651247573289244E-003  0.000000000000000E+000  2.651247573289247E-002
  2.386122815960322E-002  2.120998058631397E-002  1.855873301302472E-002
  1.590748543973548E-002  1.325623786644623E-002  1.060499029315698E-002
  7.953742719867740E-003  5.302495146578492E-003  2.651247573289244E-003
  0.000000000000000E+000  2.651247573289247E-002  2.386122815960322E-002
  2.120998058631397E-002  1.855873301302472E-002  1.590748543973548E-002
  1.325623786644623E-002  1.060499029315698E-002  7.953742719867740E-003
  5.302495146578492E-003  2.651247573289244E-003  0.000000000000000E+000
  2.651247573289247E-002  2.386122815960322E-002  2.120998058631397E-002
  1.855873301302472E-002  1.590748543973548E-002  1.325623786644623E-002
  1.060499029315698E-002  7.953742719867740E-003  5.302495146578492E-003
  2.651247573289244E-003  0.000000000000000E+000  2.651247573289247E-002
  2.386122815960322E-002  2.120998058631397E-002  1.855873301302472E-002
  1.590748543973548E-002  1.325623786644623E-002  1.060499029315698E-002
  7.953742719867740E-003  5.302495146578492E-003  2.651247573289244E-003
  0.000000000000000E+000  2.651247573289247E-002  2.386122815960322E-002
  2.120998058631397E-002  1.855873301302472E-002  1.590748543973548E-002
  1.325623786644623E-002  1.060499029315698E-002  7.953742719867740E-003
  5.302495146578492E-003  2.651247573289244E-003  0.000000000000000E+000
  2.651247573289247E-002  2.386122815960322E-002  2.120998058631397E-002
  1.855873301302472E-002  1.590748543973548E-002  1.325623786644623E-002
  1.060499029315698E-002  7.953742719867740E-003  5.302495146578492E-003
  2.651247573289244E-003  0.000000000000000E+000  2.651247573289247E-002
  2.386122815960322E-002  2.120998058631397E-002  1.855873301302472E-002
  1.590748543973548E-002  1.325623786644623E-002  1.060499029315698E-002
  7.953742719867740E-003  5.302495146578492E-003  2.651247573289244E-003
  0.000000000000000E+000  2.651247573289247E-002  2.386122815960322E-002
  2.120998058631397E-002  1.855873301302472E-002  1.590748543973548E-002
  1.325623786644623E-002  1.060499029315698E-002  7.953742719867740E-003
  5.302495146578492E-003  2.651247573289244E-003  0.000000000000000E+000
  2.651247573289247E-002  2.386122815960322E-002  2.120998058631397E-002
  1.855873301302472E-002  1.590748543973548E-002  1.325623786644623E-002
  1.060499029315698E-002  7.953742719867740E-003  5.302495146578492E-003
  2.651247573289244E-003  0.000000000000000E+000  2.651247573289247E-002
  2.386122815960322E-002  2.120998058631397E-002  1.855873301302472E-002
  1.590748543973548E-002  1.325623786644623E-002  1.060499029315698E-002
  7.953742719867740E-003  5.302495146578492E-003  2.651247573289244E-003
  0.000000000000000E+000  2.651247573289247E-002  2.386122815960322E-002
  2.120998058631397E-002  1.855873301302472E-002  1.590748543973548E-002
  1.325623786644623E-002  1.060499029315698E-002  7.953742719867740E-003
  5.302495146578492E-003  2.651247573289244E-003  0.000000000000000E+000
  2.651247573289247E-002  2.386122815960322E-002  2.120998058631397E-002
  1.855873301302472E-002  1.590748543973548E-002  1.325623786644623E-002
  1.060499029315698E-002  7.953742719867740E-003  5.302495146578492E-003
  2.651247573289244E-003  0.000000000000000E+000  2.651247573289247E-002
  2.386122815960322E-002  2.120998058631397E-002  1.855873301302472E-002
  1.590748543973548E-002  1.325623786644623E-002  1.060499029315698E-002
  7.953742719867740E-003  5.302495146578492E-003  2.651247573289244E-003
  0.000000000000000E+000  2.651247573289247E-002  2.386122815960322E-002
  2.120998058631397E-002  1.855873301302472E-002  1.590748543973548E-002
  1.325623786644623E-002  1.060499029315698E-002  7.953742719867740E-003
  5.302495146578492E-003  2.651247573289244E-003  0.000000000000000E+000
  2.651247573289247E-002  2.386122815960322E-002  2.120998058631397E-002
  1.855873301302472E-002  1.590748543973548E-002  1.325623786644623E-002
  1.060499029315698E-002  7.953742719867740E-003  5.302495146578492E-003
  2.651247573289244E-003  0.000000000000000E+000  2.651247573289247E-002
  2.386122815960322E-002  2.120998058631397E-002  1.855873301302472E-002
  1.590748543973548E-002  1.325623786644623E-002  1.060499029315698E-002
  7.953742719867740E-003  5.302495146578492E-003  2.651247573289244E-003
  0.000000000000000E+000  2.651247573289247E-002  2.386122815960322E-002
  2.120998058631397E-002  1.855873301302472E-002  1.590748543973548E-002
  1.325623786644623E-002  1.060499029315698E-002  7.953742719867740E-003
  5.302495146578492E-003  2.651247573289244E-003  0.000000000000000E+000
  2.651247573289247E-002  2.386122815960322E-002  2.120998058631397E-002
  1.855873301302472E-002  1.590748543973548E-002  1.325623786644623E-002
  1.060499029315698E-002  7.953742719867740E-003  5.302495146578492E-003
  2.651247573289244E-003  0.000000000000000E+000  2.651247573289247E-002
  2.386122815960322E-002  2.120998058631397E-002  1.855873301302472E-002
  1.590748543973548E-002  1.325623786644623E-002  1.060499029315698E-002
  7.953742719867740E-003  5.302495146578492E-003  2.651247573289244E-003
  0.000000000000000E+000  2.651247573289247E-002  2.386122815960322E-002
  2.120998058631397E-002  1.855873301302472E-002  1.590748543973548E-002
  1.325623786644623E-002  1.060499029315698E-002  7.953742719867740E-003
  5.302495146578492E-003  2.651247573289244E-003  0.000000000000000E+000
  2.651247573289247E-002  2.386122815960322E-002  2.120998058631397E-002
  1.855873301302472E-002  1.590748543973548E-002  1.325623786644623E-002
  1.060499029315698E-002  7.953742719867740E-003  5.302495146578492E-003
  2.651247573289244E-003  0.000000000000000E+000  2.651247573289247E-002
  2.386122815960322E-002  2.120998058631397E-002  1.855873301302472E-002
  1.590748543973548E-002  1.325623786644623E-002  1.060499029315698E-002
  7.953742719867740E-003  5.302495146578492E-003  2.651247573289244E-003
  0.000000000000000E+000  2.651247573289247E-002  2.386122815960322E-002
  2.120998058631397E-002  1.855873301302472E-002  1.590748543973548E-002
  1.325623786644623E-002  1.060499029315698E-002  7.953742719867740E-003
  5.302495146578492E-003  2.651247573289244E-003  0.000000000000000E+000
  2.651247573289247E-002  2.386122815960322E-002  2.120998058631397E-002
  1.855873301302472E-002  1.590748543973548E-002  1.325623786644623E-002
  1.060499029315698E-002  7.953742719867740E-003  5.302495146578492E-003
  2.651247573289244E-003  0.000000000000000E+000  2.651247573289247E-002
  2.386122815960322E-002  2.120998058631397E-002  1.855873301302472E-002
  1.590748543973548E-002  1.325623786644623E-002  1.060499029315698E-002
  7.953742719867740E-003  5.302495146578492E-003  2.651247573289244E-003
  0.000000000000000E+000
  0.102428209054675       0.148446642369225       0.184330506305899     
  0.214566832095453       0.240034563763498       0.261454535549855     
  0.279368863466627       0.293953681412480       0.305283103024113     
  0.313698251967670       0.169416579476905       0.249068060904868     
  0.310400584739876       0.361707106049732       0.404835168091206     
  0.440999754036174       0.471172047268112       0.495798697362263     
  0.515287866702135       0.530996158378665       0.223537030582626     
  0.336140765382642       0.422039731060441       0.493084915696439     
  0.552620880270262       0.602458368861882       0.643780128323160     
  0.677535053846693       0.704202884303267       0.724180347742339     
  0.259640079955408       0.396080337777825       0.500815850665355     
  0.587356191907327       0.659921677121714       0.720508778720834     
  0.770295761980792       0.810251610900054       0.841006541639996     
  0.862489357407576       0.279648375791652       0.429396907874285     
  0.545327202845981       0.641643284914045       0.722837304509379     
  0.790810533860806       0.846561745891018       0.890797961318739     
  0.924039427390873       0.945686493981554       0.291642452653114     
  0.447946411127008       0.569212530119769       0.670368264651089     
  0.756173558460574       0.828510199178410       0.888149434870926     
  0.935493631303703       0.970731451007692       0.992890230501852     
  0.308162412975969       0.470785783990959       0.595995273158502     
  0.700208780573311       0.788759247182183       0.863802483818734     
  0.926248274741192       0.976449228264751        1.01423956251888     
   1.03803010842920       0.339151775814752       0.513702400206452     
  0.645867277361539       0.754826128818483       0.847119011112741     
  0.925572233149049       0.991467708747806        1.04519429429196     
   1.08629881293128        1.11265978402508       0.388279180542690     
  0.583243400144470       0.728156008609427       0.846095968512036     
  0.945240817084297        1.02928402379836        1.09996268217444     
   1.15786622512995        1.20253135367903        1.23154231822756     
  0.454620571556989       0.678423091044026       0.842074480296939     
  0.973511081794532        1.08283961833721        1.17476949392805     
   1.25164394359726        1.31442332687730        1.36284227632431     
   1.39443140332427       0.535214115783939       0.794777448408381     
  0.982087557847411        1.13079554512318        1.25323961509728     
   1.35527584121559        1.43993765849860        1.50863883758813     
   1.56137986360148        1.59569602266751       0.627199528008604     
  0.928000106210545        1.14284297553292        1.31180685413610     
   1.44973432446996        1.56376796540600        1.65770383226075     
   1.73342792198738        1.79119599473642        1.82854741677592     
  0.728920867907828        1.07550630512036        1.32102205519057     
   1.51261183774989        1.66786942749477        1.79535746601302     
   1.89969920627145        1.98328367751533        2.04664623278783     
   2.08731657940373       0.839921502042390        1.23640472098567     
   1.51528254199415        1.73140716640178        1.90537504848060     
   2.04730334985297        2.16273917641248        2.25464338312711     
   2.32387434464444        2.36799398270301       0.961054657622210     
   1.41154028592043        1.72616146272469        1.96825591265413     
   2.16175391212294        2.31852949253048        2.44519609733464     
   2.54539300041176        2.62039055557538        2.66786439520319     
   1.09511559874370        1.60407993421263        1.95646808294145     
   2.22528317315141        2.43832523779814        2.60953311803370     
   2.74679721893375        2.85459889659935        2.93474814993840     
   2.98516238091830        1.24654111909085        1.81862082501677     
   2.20986152135327        2.50486389817729        2.73615892965316     
   2.92021643976275        3.06646676693622        3.18040052275400     
   3.26450371828640        3.31707952321135        1.41012889493515     
   2.04615682599420        2.47410698564112        2.79207313611700     
   3.03813732863826        3.23170871122754        3.38396288473260     
   3.50150133998539        3.58755974303893        3.64096874900779     
   1.54831698839545        2.23421826786643        2.68771312402433     
   3.01913591731656        3.27171136141571        3.46762660254768     
   3.61973423171863        3.73571163780844        3.81955304021069     
   3.87083856336093        1.61735494909372        2.31990049692082     
   2.77533756450979        3.10198267433169        3.34661489954750     
   3.53333086175724        3.67606416403124        3.78312889920462     
   3.85900988489041        3.90416461042318        1.60046865601846     
   2.27620949724303        2.70274127622958        3.00174663434904     
   3.22149418703921        3.38654005176496        3.51076399707557     
   3.60222687180327        3.66523561361808        3.70086668449308     
   1.49509221768428        2.09662234650638        2.46234979614418     
   2.71241840882856        2.89327433606557        3.02758022986303     
   3.12761878219823        3.20021184768073        3.24876727824827     
   3.27417268594544        1.29740788199124        1.77678482982506     
   2.05642179717608        2.24454186978733        2.37973978011541     
   2.47987139714120        2.55434194282095        2.60831820648141     
   2.64449864803815        2.66390586374383       0.995590726421846     
   1.31932583287096        1.50531023566980        1.63060921134048     
   1.72094139546300        1.78804825175888        1.83815265485920     
   1.87481047678053        1.90037917864711        1.91835024757683     
  0.606166989097553       0.787376581800801       0.892419274771363     
  0.963568503551579        1.01503457079179        1.05335492921689     
   1.08201207136140        1.10297829011041        1.11736395894253     
   1.12558277732811     
  0.000000000000000E+000  0.000000000000000E+000  0.000000000000000E+000
  0.000000000000000E+000  0.000000000000000E+000  0.000000000000000E+000
  0.000000000000000E+000  0.000000000000000E+000  0.000000000000000E+000
  0.000000000000000E+000  0.000000000000000E+000  0.000000000000000E+000
  0.000000000000000E+000  0.000000000000000E+000  0.000000000000000E+000
  0.000000000000000E+000  0.000000000000000E+000  0.000000000000000E+000
  0.000000000000000E+000  0.000000000000000E+000  0.000000000000000E+000
  0.000000000000000E+000  0.000000000000000E+000  0.000000000000000E+000
  0.000000000000000E+000  0.000000000000000E+000  0.000000000000000E+000
  0.000000000000000E+000  0.000000000000000E+000  0.000000000000000E+000
  0.000000000000000E+000  0.000000000000000E+000  0.000000000000000E+000
  0.000000000000000E+000  0.000000000000000E+000  0.000000000000000E+000
  0.000000000000000E+000  0.000000000000000E+000  0.000000000000000E+000
  0.000000000000000E+000  0.000000000000000E+000  0.000000000000000E+000
  0.000000000000000E+000  0.000000000000000E+000  0.000000000000000E+000
  0.000000000000000E+000  0.000000000000000E+000  0.000000000000000E+000
  0.000000000000000E+000  0.000000000000000E+000  0.000000000000000E+000
  0.000000000000000E+000  0.000000000000000E+000  0.000000000000000E+000
  0.000000000000000E+000  0.000000000000000E+000  0.000000000000000E+000
  0.000000000000000E+000  0.000000000000000E+000  0.000000000000000E+000
  0.000000000000000E+000  0.000000000000000E+000  0.000000000000000E+000
  0.000000000000000E+000  0.000000000000000E+000  0.000000000000000E+000
  0.000000000000000E+000  0.000000000000000E+000  0.000000000000000E+000
  0.000000000000000E+000  0.000000000000000E+000  0.000000000000000E+000
  0.000000000000000E+000  0.000000000000000E+000  0.000000000000000E+000
  0.000000000000000E+000  0.000000000000000E+000  0.000000000000000E+000
  0.000000000000000E+000  0.000000000000000E+000  0.000000000000000E+000
  0.000000000000000E+000  0.000000000000000E+000  0.000000000000000E+000
  0.000000000000000E+000  0.000000000000000E+000  0.000000000000000E+000
  0.000000000000000E+000  0.000000000000000E+000  0.000000000000000E+000
  0.000000000000000E+000  0.000000000000000E+000  0.000000000000000E+000
  0.000000000000000E+000  0.000000000000000E+000  0.000000000000000E+000
  0.000000000000000E+000  0.000000000000000E+000  0.000000000000000E+000
  0.000000000000000E+000  0.000000000000000E+000  0.000000000000000E+000
  0.000000000000000E+000  0.000000000000000E+000  0.000000000000000E+000
  0.000000000000000E+000  0.000000000000000E+000  0.000000000000000E+000
  0.000000000000000E+000  0.000000000000000E+000  0.000000000000000E+000
  0.000000000000000E+000  0.000000000000000E+000  0.000000000000000E+000
  0.000000000000000E+000  0.000000000000000E+000  0.000000000000000E+000