 Title = "Wing and Wake"
 VARIABLES = "X" "Y" "Z" "GAM" "skew"
 Zone I=   11 J=   26 K=1  T="Blade"
 DATAPACKING=BLOCK
 VARLOCATION=([4]=CELLCENTERED,[5]=CELLCENTERED)
 -0.264401279547346      -0.253540175709568      -0.242679071871790     
 -0.231817968034013      -0.220956864196234      -0.210095760358457     
 -0.199234656520679      -0.188373552682901      -0.177512448845123     
 -0.166651345007346      -0.155790241169568      -0.267471674082959     
 -0.256610570245182      -0.245749466407404      -0.234888362569626     
 -0.224027258731848      -0.213166154894070      -0.202305051056292     
 -0.191443947218515      -0.180582843380737      -0.169721739542959     
 -0.158860635705181      -0.276634435733808      -0.265773331896030     
 -0.254912228058252      -0.244051124220474      -0.233190020382697     
 -0.222328916544919      -0.211467812707141      -0.200606708869364     
 -0.189745605031586      -0.178884501193808      -0.168023397356030     
 -0.291745062275090      -0.280883958437312      -0.270022854599535     
 -0.259161750761756      -0.248300646923979      -0.237439543086201     
 -0.226578439248423      -0.215717335410645      -0.204856231572867     
 -0.193995127735090      -0.183134023897312      -0.312565250099598     
 -0.301704146261820      -0.290843042424043      -0.279981938586265     
 -0.269120834748487      -0.258259730910709      -0.247398627072931     
 -0.236537523235153      -0.225676419397375      -0.214815315559598     
 -0.203954211721820      -0.338766652407963      -0.327905548570185     
 -0.317044444732407      -0.306183340894629      -0.295322237056851     
 -0.284461133219074      -0.273600029381295      -0.262738925543518     
 -0.251877821705740      -0.241016717867962      -0.230155614030185     
 -0.369936057433822      -0.359074953596044      -0.348213849758266     
 -0.337352745920489      -0.326491642082711      -0.315630538244933     
 -0.304769434407154      -0.293908330569377      -0.283047226731599     
 -0.272186122893821      -0.261325019056043      -0.405581905040217     
 -0.394720801202440      -0.383859697364662      -0.372998593526884     
 -0.362137489689106      -0.351276385851328      -0.340415282013550     
 -0.329554178175773      -0.318693074337995      -0.307831970500218     
 -0.296970866662440      -0.445142038916600      -0.434280935078822     
 -0.423419831241044      -0.412558727403267      -0.401697623565488     
 -0.390836519727710      -0.379975415889933      -0.369114312052155     
 -0.358253208214377      -0.347392104376600      -0.336531000538822     
 -0.487992572119660      -0.477131468281881      -0.466270364444104     
 -0.455409260606325      -0.444548156768548      -0.433687052930770     
 -0.422825949092993      -0.411964845255215      -0.401103741417437     
 -0.390242637579659      -0.379381533741881      -0.533457726143117     
 -0.522596622305339      -0.511735518467561      -0.500874414629783     
 -0.490013310792006      -0.479152206954228      -0.468291103116450     
 -0.457429999278672      -0.446568895440895      -0.435707791603117     
 -0.424846687765339      -0.580820488348456      -0.569959384510677     
 -0.559098280672900      -0.548237176835121      -0.537376072997343     
 -0.526514969159566      -0.515653865321788      -0.504792761484011     
 -0.493931657646233      -0.483070553808455      -0.472209449970677     
 -0.629333919682553      -0.618472815844776      -0.607611712006998     
 -0.596750608169221      -0.585889504331442      -0.575028400493665     
 -0.564167296655886      -0.553306192818109      -0.542445088980331     
 -0.531583985142554      -0.520722881304776      -0.678232934352755     
 -0.667371830514977      -0.656510726677199      -0.645649622839421     
 -0.634788519001643      -0.623927415163866      -0.613066311326087     
 -0.602205207488310      -0.591344103650532      -0.580482999812754     
 -0.569621895974976      -0.726746365686853      -0.715885261849076     
 -0.705024158011298      -0.694163054173521      -0.683301950335742     
 -0.672440846497964      -0.661579742660185      -0.650718638822408     
 -0.639857534984631      -0.628996431146854      -0.618135327309076     
 -0.774109127892190      -0.763248024054413      -0.752386920216635     
 -0.741525816378858      -0.730664712541080      -0.719803608703302     
 -0.708942504865525      -0.698081401027746      -0.687220297189967     
 -0.676359193352191      -0.665498089514414      -0.819574281915649     
 -0.808713178077871      -0.797852074240093      -0.786990970402316     
 -0.776129866564538      -0.765268762726759      -0.754407658888981     
 -0.743546555051204      -0.732685451213425      -0.721824347375649     
 -0.710963243537871      -0.862424815118708      -0.851563711280930     
 -0.840702607443152      -0.829841503605376      -0.818980399767597     
 -0.808119295929819      -0.797258192092041      -0.786397088254263     
 -0.775535984416486      -0.764674880578707      -0.753813776740930     
 -0.901984948995091      -0.891123845157313      -0.880262741319534     
 -0.869401637481757      -0.858540533643980      -0.847679429806201     
 -0.836818325968423      -0.825957222130646      -0.815096118292869     
 -0.804235014455091      -0.793373910617313      -0.937630796601487     
 -0.926769692763708      -0.915908588925930      -0.905047485088152     
 -0.894186381250375      -0.883325277412597      -0.872464173574820     
 -0.861603069737042      -0.850741965899265      -0.839880862061487     
 -0.829019758223708      -0.968800201627344      -0.957939097789567     
 -0.947077993951789      -0.936216890114012      -0.925355786276234     
 -0.914494682438455      -0.903633578600679      -0.892772474762901     
 -0.881911370925123      -0.871050267087345      -0.860189163249566     
 -0.995001603935709      -0.984140500097934      -0.973279396260154     
 -0.962418292422377      -0.951557188584598      -0.940696084746820     
 -0.929834980909043      -0.918973877071266      -0.908112773233486     
 -0.897251669395709      -0.886390565557932       -1.01582179176022     
  -1.00496068792244      -0.994099584084664      -0.983238480246883     
 -0.972377376409107      -0.961516272571328      -0.950655168733548     
 -0.939794064895773      -0.928932961057995      -0.918071857220219     
 -0.907210753382439       -1.03093241830150       -1.02007131446372     
  -1.00921021062595      -0.998349106788166      -0.987488002950388     
 -0.976626899112610      -0.965765795274833      -0.954904691437057     
 -0.944043587599278      -0.933182483761499      -0.922321379923721     
  -1.04009517995235       -1.02923407611457       -1.01837297227679     
  -1.00751186843902      -0.996650764601238      -0.985789660763459     
 -0.974928556925681      -0.964067453087902      -0.953206349250126     
 -0.942345245412348      -0.931484141574570       -1.04316557448796     
  -1.03230447065019       -1.02144336681241       -1.01058226297463     
 -0.999721159136851      -0.988860055299072      -0.977998951461295     
 -0.967137847623516      -0.956276743785740      -0.945415639947962     
 -0.934554536110185     
 -4.454289568324640E-002 -2.911857042312122E-002 -1.369424516299611E-002
  1.730080097129146E-003  1.715440535725419E-002  3.257873061737917E-002
  4.800305587750434E-002  6.342738113762968E-002  7.885170639775474E-002
  9.427603165787958E-002  0.109700356918005      -4.238086439099534E-002
 -2.695653913087051E-002 -1.153221387074529E-002  3.892111389379739E-003
  1.931643664950498E-002  3.474076190963001E-002  5.016508716975509E-002
  6.558941242988033E-002  8.101373769000533E-002  9.643806295013056E-002
  0.111862388210256      -3.592886703925750E-002 -2.050454177913233E-002
 -5.080216519007125E-003  1.034410874111798E-002  2.576843400124310E-002
  4.119275926136830E-002  5.661708452149324E-002  7.204140978161858E-002
  8.746573504174361E-002  0.102890060301868       0.118314385561994     
 -2.528865548050437E-002 -9.864330220379398E-003  5.559995039746021E-003
  2.098432029987083E-002  3.640864555999592E-002  5.183297082012107E-002
  6.725729608024600E-002  8.268162134037092E-002  9.810594660049635E-002
  0.113530271860621       0.128954597120746      -1.062803220717337E-002
  4.796293052951834E-003  2.022061831307688E-002  3.564494357320194E-002
  5.106926883332705E-002  6.649359409345233E-002  8.191791935357717E-002
  9.734224461370239E-002  0.112766569873827       0.128190895133953     
  0.143615220394078       7.821795993883836E-003  2.324612125400921E-002
  3.867044651413411E-002  5.409477177425930E-002  6.951909703438436E-002
  8.494342229450973E-002  0.100367747554635       0.115792072814760     
  0.131216398074884       0.146640723335010       0.162065048595135     
  2.976986431054431E-002  4.519418957066917E-002  6.061851483079389E-002
  7.604284009091908E-002  9.146716535104457E-002  0.106891490611169     
  0.122315815871294       0.137740141131420       0.153164466391545     
  0.168588791651670       0.184013116911794       5.487003859431173E-002
  7.029436385443708E-002  8.571868911456237E-002  0.101143014374687     
  0.116567339634812       0.131991664894938       0.147415990155063     
  0.162840315415188       0.178264640675313       0.193688965935438     
  0.209113291195563       8.272647410261605E-002  9.815079936274120E-002
  0.113575124622866       0.128999449882991       0.144423775143117     
  0.159848100403242       0.175272425663366       0.190696750923492     
  0.206121076183616       0.221545401443742       0.236969726703867     
  0.112899858206862       0.128324183466987       0.143748508727112     
  0.159172833987237       0.174597159247362       0.190021484507487     
  0.205445809767613       0.220870135027738       0.236294460287863     
  0.251718785547987       0.267143110808113       0.144914338615020     
  0.160338663875146       0.175762989135270       0.191187314395395     
  0.206611639655521       0.222035964915645       0.237460290175771     
  0.252884615435896       0.268308940696021       0.283733265956146     
  0.299157591216271       0.178265027846530       0.193689353106655     
  0.209113678366780       0.224538003626904       0.239962328887030     
  0.255386654147155       0.270810979407280       0.286235304667406     
  0.301659629927530       0.317083955187656       0.332508280447780     
  0.212425965609474       0.227850290869599       0.243274616129725     
  0.258698941389849       0.274123266649974       0.289547591910100     
  0.304971917170225       0.320396242430350       0.335820567690475     
  0.351244892950600       0.366669218210726       0.246858413508577     
  0.262282738768702       0.277707064028827       0.293131389288952     
  0.308555714549078       0.323980039809202       0.339404365069327     
  0.354828690329452       0.370253015589578       0.385677340849703     
  0.401101666109828       0.281019351271521       0.296443676531647     
  0.311868001791772       0.327292327051898       0.342716652312021     
  0.358140977572146       0.373565302832272       0.388989628092396     
  0.404413953352522       0.419838278612647       0.435262603872773     
  0.314370040503031       0.329794365763156       0.345218691023281     
  0.360643016283407       0.376067341543532       0.391491666803656     
  0.406915992063782       0.422340317323907       0.437764642584031     
  0.453188967844157       0.468613293104283       0.346384520911190     
  0.361808846171314       0.377233171431439       0.392657496691565     
  0.408081821951690       0.423506147211814       0.438930472471939     
  0.454354797732065       0.469779122992190       0.485203448252315     
  0.500627773512440       0.376557905015435       0.391982230275560     
  0.407406555535684       0.422830880795811       0.438255206055936     
  0.453679531316061       0.469103856576186       0.484528181836311     
  0.499952507096436       0.515376832356561       0.530801157616685     
  0.404414340523740       0.419838665783864       0.435262991043990     
  0.450687316304115       0.466111641564239       0.481535966824364     
  0.496960292084490       0.512384617344615       0.527808942604740     
  0.543233267864865       0.558657593124990       0.429514514807507     
  0.444938840067632       0.460363165327756       0.475787490587882     
  0.491211815848008       0.506636141108132       0.522060466368258     
  0.537484791628383       0.552909116888509       0.568333442148632     
  0.583757767408758       0.451462583124166       0.466886908384292     
  0.482311233644416       0.497735558904543       0.513159884164668     
  0.528584209424792       0.544008534684918       0.559432859945043     
  0.574857185205168       0.590281510465293       0.605705835725417     
  0.469912411325225       0.485336736585350       0.500761061845476     
  0.516185387105600       0.531609712365724       0.547034037625850     
  0.562458362885974       0.577882688146100       0.593307013406225     
  0.608731338666349       0.624155663926477       0.484573034598555     
  0.499997359858681       0.515421685118807       0.530846010378930     
  0.546270335639055       0.561694660899180       0.577118986159305     
  0.592543311419431       0.607967636679556       0.623391961939683     
  0.638816287199807       0.495213246157308       0.510637571417432     
  0.526061896677559       0.541486221937683       0.556910547197808     
  0.572334872457934       0.587759197718059       0.603183522978185     
  0.618607848238310       0.634032173498434       0.649456498758559     
  0.501665243509047       0.517089568769171       0.532513894029296     
  0.547938219289422       0.563362544549548       0.578786869809672     
  0.594211195069797       0.609635520329920       0.625059845590048     
  0.640484170850173       0.655908496110297       0.503827274801299     
  0.519251600061422       0.534675925321548       0.550100250581673     
  0.565524575841797       0.580948901101922       0.596373226362048     
  0.611797551622173       0.627221876882298       0.642646202142425     
  0.658070527402549     
  2.651247573289247E-002  2.386122815960322E-002  2.120998058631397E-002
  1.855873301302472E-002  1.590748543973548E-002  1.325623786644623E-002
  1.060499029315698E-002  7.953742719867740E-003  5.302495146578492E-003
  2.651247573289244E-003  0.000000000000000E+000  2.651247573289247E-002
  2.386122815960322E-002  2.120998058631397E-002  1.855873301302472E-002
  1.590748543973548E-002  1.325623786644623E-002  1.060499029315698E-002
  7.953742719867740E-003  5.302495146578492E-003  2.651247573289244E-003
  0.000000000000000E+000  2.651247573289247E-002  2.386122815960322E-002
  2.120998058631397E-002  1.855873301302472E-002  1.590748543973548E-002
  1.325623786644623E-002  1.060499029315698E-002  7.953742719867740E-003
  5.302495146578492E-003  2.651247573289244E-003  0.000000000000000E+000
  2.651247573289247E-002  2.386122815960322E-002  2.120998058631397E-002
  1.855873301302472E-002  1.590748543973548E-002  1.325623786644623E-002
  1.060499029315698E-002  7.953742719867740E-003  5.302495146578492E-003
  2.651247573289244E-003  0.000000000000000E+000  2.651247573289247E-002
  2.386122815960322E-002  2.120998058631397E-002  1.855873301302472E-002
  1.590748543973548E-002  1.325623786644623E-002  1.060499029315698E-002
  7.953742719867740E-003  5.302495146578492E-003  2.651247573289244E-003
  0.000000000000000E+000  2.651247573289247E-002  2.386122815960322E-002
  2.120998058631397E-002  1.855873301302472E-002  1.590748543973548E-002
  1.325623786644623E-002  1.060499029315698E-002  7.953742719867740E-003
  5.302495146578492E-003  2.651247573289244E-003  0.000000000000000E+000
  2.651247573289247E-002  2.386122815960322E-002  2.120998058631397E-002
  1.855873301302472E-002  1.590748543973548E-002  1.325623786644623E-002
  1.060499029315698E-002  7.953742719867740E-003  5.302495146578492E-003
  2.651247573289244E-003  0.000000000000000E+000  2.651247573289247E-002
  2.386122815960322E-002  2.120998058631397E-002  1.855873301302472E-002
  1.590748543973548E-002  1.325623786644623E-002  1.060499029315698E-002
  7.953742719867740E-003  5.302495146578492E-003  2.651247573289244E-003
  0.000000000000000E+000  2.651247573289247E-002  2.386122815960322E-002
  2.120998058631397E-002  1.855873301302472E-002  1.590748543973548E-002
  1.325623786644623E-002  1.060499029315698E-002  7.953742719867740E-003
  5.302495146578492E-003  2.651247573289244E-003  0.000000000000000E+000
  2.651247573289247E-002  2.386122815960322E-002  2.120998058631397E-002
  1.855873301302472E-002  1.590748543973548E-002  1.325623786644623E-002
  1.060499029315698E-002  7.953742719867740E-003  5.302495146578492E-003
  2.651247573289244E-003  0.000000000000000E+000  2.651247573289247E-002
  2.386122815960322E-002  2.120998058631397E-002  1.855873301302472E-002
  1.590748543973548E-002  1.325623786644623E-002  1.060499029315698E-002
  7.953742719867740E-003  5.302495146578492E-003  2.651247573289244E-003
  0.000000000000000E+000  2.651247573289247E-002  2.386122815960322E-002
  2.120998058631397E-002  1.855873301302472E-002  1.590748543973548E-002
  1.325623786644623E-002  1.060499029315698E-002  7.953742719867740E-003
  5.302495146578492E-003  2.651247573289244E-003  0.000000000000000E+000
  2.651247573289247E-002  2.386122815960322E-002  2.120998058631397E-002
  1.855873301302472E-002  1.590748543973548E-002  1.325623786644623E-002
  1.060499029315698E-002  7.953742719867740E-003  5.302495146578492E-003
  2.651247573289244E-003  0.000000000000000E+000  2.651247573289247E-002
  2.386122815960322E-002  2.120998058631397E-002  1.855873301302472E-002
  1.590748543973548E-002  1.325623786644623E-002  1.060499029315698E-002
  7.953742719867740E-003  5.302495146578492E-003  2.651247573289244E-003
  0.000000000000000E+000  2.651247573289247E-002  2.386122815960322E-002
  2.120998058631397E-002  1.855873301302472E-002  1.590748543973548E-002
  1.325623786644623E-002  1.060499029315698E-002  7.953742719867740E-003
  5.302495146578492E-003  2.651247573289244E-003  0.000000000000000E+000
  2.651247573289247E-002  2.386122815960322E-002  2.120998058631397E-002
  1.855873301302472E-002  1.590748543973548E-002  1.325623786644623E-002
  1.060499029315698E-002  7.953742719867740E-003  5.302495146578492E-003
  2.651247573289244E-003  0.000000000000000E+000  2.651247573289247E-002
  2.386122815960322E-002  2.120998058631397E-002  1.855873301302472E-002
  1.590748543973548E-002  1.325623786644623E-002  1.060499029315698E-002
  7.953742719867740E-003  5.302495146578492E-003  2.651247573289244E-003
  0.000000000000000E+000  2.651247573289247E-002  2.386122815960322E-002
  2.120998058631397E-002  1.855873301302472E-002  1.590748543973548E-002
  1.325623786644623E-002  1.060499029315698E-002  7.953742719867740E-003
  5.302495146578492E-003  2.651247573289244E-003  0.000000000000000E+000
  2.651247573289247E-002  2.386122815960322E-002  2.120998058631397E-002
  1.855873301302472E-002  1.590748543973548E-002  1.325623786644623E-002
  1.060499029315698E-002  7.953742719867740E-003  5.302495146578492E-003
  2.651247573289244E-003  0.000000000000000E+000  2.651247573289247E-002
  2.386122815960322E-002  2.120998058631397E-002  1.855873301302472E-002
  1.590748543973548E-002  1.325623786644623E-002  1.060499029315698E-002
  7.953742719867740E-003  5.302495146578492E-003  2.651247573289244E-003
  0.000000000000000E+000  2.651247573289247E-002  2.386122815960322E-002
  2.120998058631397E-002  1.855873301302472E-002  1.590748543973548E-002
  1.325623786644623E-002  1.060499029315698E-002  7.953742719867740E-003
  5.302495146578492E-003  2.651247573289244E-003  0.000000000000000E+000
  2.651247573289247E-002  2.386122815960322E-002  2.120998058631397E-002
  1.855873301302472E-002  1.590748543973548E-002  1.325623786644623E-002
  1.060499029315698E-002  7.953742719867740E-003  5.302495146578492E-003
  2.651247573289244E-003  0.000000000000000E+000  2.651247573289247E-002
  2.386122815960322E-002  2.120998058631397E-002  1.855873301302472E-002
  1.590748543973548E-002  1.325623786644623E-002  1.060499029315698E-002
  7.953742719867740E-003  5.302495146578492E-003  2.651247573289244E-003
  0.000000000000000E+000  2.651247573289247E-002  2.386122815960322E-002
  2.120998058631397E-002  1.855873301302472E-002  1.590748543973548E-002
  1.325623786644623E-002  1.060499029315698E-002  7.953742719867740E-003
  5.302495146578492E-003  2.651247573289244E-003  0.000000000000000E+000
  2.651247573289247E-002  2.386122815960322E-002  2.120998058631397E-002
  1.855873301302472E-002  1.590748543973548E-002  1.325623786644623E-002
  1.060499029315698E-002  7.953742719867740E-003  5.302495146578492E-003
  2.651247573289244E-003  0.000000000000000E+000  2.651247573289247E-002
  2.386122815960322E-002  2.120998058631397E-002  1.855873301302472E-002
  1.590748543973548E-002  1.325623786644623E-002  1.060499029315698E-002
  7.953742719867740E-003  5.302495146578492E-003  2.651247573289244E-003
  0.000000000000000E+000
  4.151334004032344E-002  7.897319698053196E-002  0.120712188811745     
  0.165366654299144       0.210752048233128       0.255100651745676     
  0.296402923476700       0.332590247047275       0.362833383571727     
  0.385773202039440       6.648806774906822E-002  0.128155018662788     
  0.196886484765994       0.270674034385548       0.346230221084945     
  0.420793333805685       0.490871161972738       0.552933867705711     
  0.605443623011570       0.646801314973172       8.052051025993918E-002
  0.159016871278317       0.246629073429491       0.341425693711281     
  0.440070370511611       0.539663957969904       0.635448693043875     
  0.722510973758902       0.797340022663500       0.854687353526756     
  8.423150769466678E-002  0.167136193448333       0.259976588923072     
  0.360783612980815       0.468082706912228       0.578936298122653     
  0.688277349717128       0.791080998323419       0.881643497911076     
  0.950517656461501       9.023581081289150E-002  0.167798461690208     
  0.252416344890913       0.345373178179848       0.445791812265161     
  0.550905076483441       0.656066679536829       0.757981154882058     
  0.850749828182526       0.922467554863929       0.112733177820320     
  0.189541074302807       0.264041393714804       0.342329677211134     
  0.426201884298147       0.513853824319339       0.602211400853472     
  0.688507403119651       0.767844301492255       0.830474904553900     
  0.154910689193308       0.243448817672138       0.318860565462840     
  0.390144020891636       0.460615884135406       0.531331232876143     
  0.601833224722976       0.670392653999763       0.733755470655703     
  0.785769935997465       0.214069048991259       0.325943661839478     
  0.413561011924794       0.489874691168018       0.559703357463060     
  0.625200451362894       0.687069592681107       0.744844967168065     
  0.796753610964413       0.838186608973386       0.288371017846175     
  0.432689220353578       0.540672133675891       0.630085852268255     
  0.707365189440679       0.775387093753933       0.835518251505683     
  0.888167365553209       0.932426831377418       0.964777278109456     
  0.375425627151886       0.558390389678216       0.691303518088974     
  0.797722265889267       0.886276253658945       0.961079049293959     
   1.02430028252369        1.07682855350973        1.11811867748148     
   1.14537584313321       0.471991781647647       0.698215355831309     
  0.859649650774394       0.986475052026378        1.08990303310760     
   1.17536606364803        1.24573616610687        1.30232577798844     
   1.34505512135438        1.37164378211556       0.576187960830823     
  0.849688663604559        1.04296898923734        1.19332589990253     
   1.31468650151237        1.41383427545870        1.49442579901324     
   1.55830340845153        1.60574758982966        1.63459883471398     
  0.686406979235062        1.01024147676818        1.23775852847539     
   1.41375162865535        1.55501649855990        1.66978764648150     
   1.76256977573416        1.83573761707644        1.88989405986634     
   1.92292743185633       0.801486935461761        1.17780094624856     
   1.44098680432932        1.64370726751648        1.80579899279443     
   1.93705187785967        2.04287617940765        2.12620346652487     
   2.18795642455685        2.22602119869836       0.920825387879502     
   1.35121880697333        1.65089017721055        1.88071750157806     
   2.06372991965751        2.21137417570561        2.33004952644370     
   2.42330770270966        2.49243514751007        2.53535302335363     
   1.04556008166609        1.53176120792079        1.86846400085482     
   2.12524353009623        2.32856110044163        2.49168225815009     
   2.62212931547928        2.72419517481060        2.79964486681381     
   2.84657980329252        1.18344854180826        1.72924282996771     
   2.10389478550545        2.38707565329480        2.60936256533100     
   2.78623165720934        2.92656430385203        3.03556598529315     
   3.11564214628513        3.16528883198453        1.35911073845236     
   1.97334472381055        2.38749788079531        2.69607643239006     
   2.93558518811291        3.12435641500857        3.27285677430546     
   3.38730758036801        3.47082049457843        3.52234501497952     
   1.57385676541511        2.26478184061086        2.71903884115825     
   3.05083450645049        3.30445483037246        3.50189059571044     
   3.65561408959949        3.77308244055650        3.85821016812266     
   3.91047376970597        1.71755211940802        2.45515549693429     
   2.92952146537513        3.26860507016754        3.52262807308832     
   3.71692006811753        3.86588212014510        3.97806083431030     
   4.05806084138803        4.10621194601186        1.74247586589194     
   2.47141912403711        2.92864291902035        3.24843973725557     
   3.48378339809753        3.66123456620046        3.79562169004755     
   3.89548803979899        3.96533283967999        4.00600558549849     
   1.64044277025165        2.29735956924342        2.69546134228228     
   2.96744872009379        3.16455882773589        3.31163502237368     
   3.42202080377611        3.50304201347346        3.55825312792223     
   3.58828715366721        1.42326300553044        1.94876307835678     
   2.25509054857726        2.46129353954348        2.60988709084265     
   2.72049803333452        2.80340274075804        2.86418379114669     
   2.90566039470055        2.92864558815980        1.09014350000454     
   1.44544244574341        1.64973341257125        1.78757701215271     
   1.88727389883517        1.96173548704546        2.01777263816723     
   2.05923755045309        2.08862448033655        2.10955033731097     
  0.663094760981062       0.862064640054864       0.977552818300631     
   1.05592160116420        1.11280492864897        1.15539229376860     
   1.18749652565525        1.21125474956246        1.22783322251788     
   1.23756340175040     
  0.000000000000000E+000  0.000000000000000E+000  0.000000000000000E+000
  0.000000000000000E+000  0.000000000000000E+000  0.000000000000000E+000
  0.000000000000000E+000  0.000000000000000E+000  0.000000000000000E+000
  0.000000000000000E+000  0.000000000000000E+000  0.000000000000000E+000
  0.000000000000000E+000  0.000000000000000E+000  0.000000000000000E+000
  0.000000000000000E+000  0.000000000000000E+000  0.000000000000000E+000
  0.000000000000000E+000  0.000000000000000E+000  0.000000000000000E+000
  0.000000000000000E+000  0.000000000000000E+000  0.000000000000000E+000
  0.000000000000000E+000  0.000000000000000E+000  0.000000000000000E+000
  0.000000000000000E+000  0.000000000000000E+000  0.000000000000000E+000
  0.000000000000000E+000  0.000000000000000E+000  0.000000000000000E+000
  0.000000000000000E+000  0.000000000000000E+000  0.000000000000000E+000
  0.000000000000000E+000  0.000000000000000E+000  0.000000000000000E+000
  0.000000000000000E+000  0.000000000000000E+000  0.000000000000000E+000
  0.000000000000000E+000  0.000000000000000E+000  0.000000000000000E+000
  0.000000000000000E+000  0.000000000000000E+000  0.000000000000000E+000
  0.000000000000000E+000  0.000000000000000E+000  0.000000000000000E+000
  0.000000000000000E+000  0.000000000000000E+000  0.000000000000000E+000
  0.000000000000000E+000  0.000000000000000E+000  0.000000000000000E+000
  0.000000000000000E+000  0.000000000000000E+000  0.000000000000000E+000
  0.000000000000000E+000  0.000000000000000E+000  0.000000000000000E+000
  0.000000000000000E+000  0.000000000000000E+000  0.000000000000000E+000
  0.000000000000000E+000  0.000000000000000E+000  0.000000000000000E+000
  0.000000000000000E+000  0.000000000000000E+000  0.000000000000000E+000
  0.000000000000000E+000  0.000000000000000E+000  0.000000000000000E+000
  0.000000000000000E+000  0.000000000000000E+000  0.000000000000000E+000
  0.000000000000000E+000  0.000000000000000E+000  0.000000000000000E+000
  0.000000000000000E+000  0.000000000000000E+000  0.000000000000000E+000
  0.000000000000000E+000  0.000000000000000E+000  0.000000000000000E+000
  0.000000000000000E+000  0.000000000000000E+000  0.000000000000000E+000
  0.000000000000000E+000  0.000000000000000E+000  0.000000000000000E+000
  0.000000000000000E+000  0.000000000000000E+000  0.000000000000000E+000
  0.000000000000000E+000  0.000000000000000E+000  0.000000000000000E+000
  0.000000000000000E+000  0.000000000000000E+000  0.000000000000000E+000
  0.000000000000000E+000  0.000000000000000E+000  0.000000000000000E+000
  0.000000000000000E+000  0.000000000000000E+000  0.000000000000000E+000
  0.000000000000000E+000  0.000000000000000E+000  0.000000000000000E+000
  0.000000000000000E+000  0.000000000000000E+000  0.000000000000000E+000
  0.000000000000000E+000  0.000000000000000E+000  0.000000000000000E+000