 Title = "Wing and Wake"
 VARIABLES = "X" "Y" "Z" "GAM" "skew"
 Zone I=   11 J=   26 K=1  T="Blade"
 DATAPACKING=BLOCK
 VARLOCATION=([4]=CELLCENTERED,[5]=CELLCENTERED)
 -0.142330294167055      -0.123923783352388      -0.105517272537722     
 -8.711076172305557E-002 -6.870425090838919E-002 -5.029774009372300E-002
 -3.189122927905656E-002 -1.348471846439013E-002  4.921792350276137E-003
  2.332830316494214E-002  4.173481397960869E-002 -0.141507762897921     
 -0.123101252083255      -0.104694741268588      -8.628823045392189E-002
 -6.788171963925553E-002 -4.947520882458940E-002 -3.106869800992290E-002
 -1.266218719525669E-002  5.744323619409642E-003  2.415083443407593E-002
  4.255734524874238E-002 -0.139053140899991      -0.120646630085324     
 -0.102240119270658      -8.383360845599182E-002 -6.542709764132547E-002
 -4.702058682665908E-002 -2.861407601199293E-002 -1.020756519732652E-002
  8.198945617339732E-003  2.660545643200598E-002  4.501196724667225E-002
 -0.135005139028491      -0.116598628213825      -9.819211739915853E-002
 -7.978560658449241E-002 -6.137909576982618E-002 -4.297258495515974E-002
 -2.456607414049364E-002 -6.159563325827529E-003  1.224694748883912E-002
  3.065345830350523E-002  4.905996911817143E-002 -0.129427596691096     
 -0.111021085876429      -9.261457506176306E-002 -7.420806424709667E-002
 -5.580155343243053E-002 -3.739504261776392E-002 -1.898853180309774E-002
 -5.820209884315243E-004  1.782448982623470E-002  3.623100064090101E-002
  5.463751145556738E-002 -0.122408475062327      -0.104001964247660     
 -8.559545343299395E-002 -6.718894261832760E-002 -4.878243180366129E-002
 -3.037592098899494E-002 -1.196941017432853E-002  6.437100640337716E-003
  2.484361145500374E-002  4.325012226967020E-002  6.165663308433684E-002
 -0.114058469883289      -9.565195906862317E-002 -7.724544825395718E-002
 -5.883893743929070E-002 -4.043242662462405E-002 -2.202591580995829E-002
 -3.619404995291788E-003  1.478710581937488E-002  3.319361663404117E-002
  5.160012744870719E-002  7.000663826337324E-002 -0.104509265723710     
 -8.610275490904348E-002 -6.769624409437683E-002 -4.928973327971076E-002
 -3.088322246504439E-002 -1.247671165037790E-002  5.929799164288670E-003
  2.433630997895471E-002  4.274282079362099E-002  6.114933160828719E-002
  7.955584242295369E-002 -9.391145923760114E-002 -7.550494842293502E-002
 -5.709843760826882E-002 -3.869192679360262E-002 -2.028541597893567E-002
 -1.878905164269552E-003  1.652760565039652E-002  3.493411646506314E-002
  5.334062727972895E-002  7.174713809439567E-002  9.015364890906152E-002
 -8.243218416407309E-002 -6.402567334940697E-002 -4.561916253474053E-002
 -2.721265172007442E-002 -8.806140905407876E-003  9.600369909258317E-003
  2.800688072392469E-002  4.641339153859120E-002  6.481990235325748E-002
  8.322641316792319E-002  0.101632923982590      -7.025247552842180E-002
 -5.184596471375476E-002 -3.343945389908888E-002 -1.503294308442279E-002
  3.373567730243893E-003  2.178007854490980E-002  4.018658935957674E-002
  5.859310017424255E-002  7.699961098890927E-002  9.540612180357506E-002
  0.113812632618241      -5.756441461163573E-002 -3.915790379696887E-002
 -2.075139298230247E-002 -2.344882167637473E-003  1.606162864702951E-002
  3.446813946169600E-002  5.287465027636248E-002  7.128116109102833E-002
  8.968767190569454E-002  0.108094182720361       0.126500693535027     
 -4.456809971385314E-002 -2.616158889918782E-002 -7.755078084520565E-003
  1.065143273014468E-002  2.905794354481157E-002  4.746445435947778E-002
  6.587096517414441E-002  8.427747598881058E-002  0.102683986803477     
  0.121090497618143       0.139497008432810      -3.146849048463506E-002
 -1.306197966996912E-002  5.344531144697194E-003  2.375104195936345E-002
  4.215755277403005E-002  6.056406358869593E-002  7.897057440336258E-002
  9.737708521802763E-002  0.115783596032695       0.134190106847362     
  0.152596617662028      -1.847217558685363E-002 -6.566477218689598E-005
  1.834084604247892E-002  3.674735685714597E-002  5.515386767181089E-002
  7.356037848647752E-002  9.196688930114474E-002  0.110373400115810     
  0.128779910930477       0.147186421745143       0.165592932559810     
 -5.784114670067379E-003  1.262239614459889E-002  3.102890695926471E-002
  4.943541777393186E-002  6.784192858859768E-002  8.624843940326334E-002
  0.104654950217930       0.123061461032597       0.141467971847262     
  0.159874482661929       0.178280993476596       6.395593965584950E-003
  2.480210478025013E-002  4.320861559491628E-002  6.161512640958294E-002
  8.002163722424958E-002  9.842814803891496E-002  0.116834658853582     
  0.135241169668248       0.153647680482915       0.172054191297581     
  0.190460702112247       1.787486903911197E-002  3.628137985377868E-002
  5.468789066844438E-002  7.309440148311157E-002  9.150091229777776E-002
  0.109907423112444       0.128313933927110       0.146720444741777     
  0.165126955556443       0.183533466371110       0.201939977185775     
  2.847267552522112E-002  4.687918633988636E-002  6.528569715455354E-002
  8.369220796921988E-002  0.102098718783885       0.120505229598552     
  0.138911740413219       0.157318251227885       0.175724762042551     
  0.194131272857217       0.212537783671883       3.802187968480027E-002
  5.642839049946712E-002  7.483490131413222E-002  9.324141212879915E-002
  0.111647922943466       0.130054433758132       0.148460944572798     
  0.166867455387464       0.185273966202131       0.203680477016796     
  0.222086987831463       4.637188486383712E-002  6.477839567850391E-002
  8.318490649316942E-002  0.101591417307836       0.119997928122504     
  0.138404438937169       0.156810949751835       0.175217460566501     
  0.193623971381168       0.212030482195835       0.230436993010500     
  5.339100649260699E-002  7.179751730727268E-002  9.020402812194002E-002
  0.108610538936606       0.127017049751271       0.145423560565938     
  0.163830071380604       0.182236582195271       0.200643093009937     
  0.219049603824603       0.237456114639271       5.896854883000132E-002
  7.737505964466933E-002  9.578157045933573E-002  0.114188081274001     
  0.132594592088667       0.151001102903333       0.169407613718000     
  0.187814124532666       0.206220635347333       0.224627146162000     
  0.243033656976666       6.301655070150132E-002  8.142306151616706E-002
  9.982957233083452E-002  0.118236083145501       0.136642593960166     
  0.155049104774834       0.173455615589500       0.191862126404166     
  0.210268637218832       0.228675148033498       0.247081658848165     
  6.547117269943278E-002  8.387768351409734E-002  0.102284194328764     
  0.120690705143431       0.139097215958098       0.157503726772763     
  0.175910237587430       0.194316748402095       0.212723259216763     
  0.231129770031429       0.249536280846095       6.629370396856643E-002
  8.470021478323110E-002  0.103106725597899       0.121513236412564     
  0.139919747227231       0.158326258041897       0.176732768856564     
  0.195139279671230       0.213545790485895       0.231952301300564     
  0.250358812115229     
  0.227231585710354       0.223099546754258       0.218967507798161     
  0.214835468842065       0.210703429885969       0.206571390929872     
  0.202439351973776       0.198307313017680       0.194175274061583     
  0.190043235105487       0.185911196149391       0.230895619583600     
  0.226763580627504       0.222631541671407       0.218499502715311     
  0.214367463759215       0.210235424803119       0.206103385847022     
  0.201971346890926       0.197839307934829       0.193707268978733     
  0.189575230022637       0.241829937200369       0.237697898244272     
  0.233565859288176       0.229433820332080       0.225301781375983     
  0.221169742419887       0.217037703463791       0.212905664507695     
  0.208773625551598       0.204641586595502       0.200509547639405     
  0.259862097840000       0.255730058883903       0.251598019927807     
  0.247465980971710       0.243333942015614       0.239201903059518     
  0.235069864103421       0.230937825147325       0.226805786191229     
  0.222673747235133       0.218541708279036       0.284707723557315     
  0.280575684601218       0.276443645645122       0.272311606689025     
  0.268179567732929       0.264047528776833       0.259915489820736     
  0.255783450864640       0.251651411908543       0.247519372952448     
  0.243387333996351       0.315974983992694       0.311842945036598     
  0.307710906080501       0.303578867124405       0.299446828168309     
  0.295314789212212       0.291182750256116       0.287050711300020     
  0.282918672343923       0.278786633387827       0.274654594431731     
  0.353170775770917       0.349038736814820       0.344906697858724     
  0.340774658902627       0.336642619946531       0.332510580990435     
  0.328378542034338       0.324246503078242       0.320114464122145     
  0.315982425166049       0.311850386209952       0.395708499035950     
  0.391576460079854       0.387444421123757       0.383312382167661     
  0.379180343211564       0.375048304255468       0.370916265299371     
  0.366784226343276       0.362652187387179       0.358520148431084     
  0.354388109474987       0.442917308481101       0.438785269525005     
  0.434653230568909       0.430521191612812       0.426389152656716     
  0.422257113700619       0.418125074744523       0.413993035788427     
  0.409860996832330       0.405728957876234       0.401596918920138     
  0.494052692980244       0.489920654024147       0.485788615068051     
  0.481656576111954       0.477524537155858       0.473392498199762     
  0.469260459243666       0.465128420287570       0.460996381331473     
  0.456864342375376       0.452732303419280       0.548308216973029     
  0.544176178016933       0.540044139060836       0.535912100104740     
  0.531780061148644       0.527648022192547       0.523515983236451     
  0.519383944280355       0.515251905324259       0.511119866368162     
  0.506987827412065       0.604828238435411       0.600696199479314     
  0.596564160523218       0.592432121567121       0.588300082611025     
  0.584168043654929       0.580036004698832       0.575903965742737     
  0.571771926786640       0.567639887830544       0.563507848874447     
  0.662721402865503       0.658589363909407       0.654457324953310     
  0.650325285997215       0.646193247041117       0.642061208085022     
  0.637929169128925       0.633797130172829       0.629665091216732     
  0.625533052260637       0.621401013304540       0.721074700476545     
  0.716942661520449       0.712810622564352       0.708678583608255     
  0.704546544652159       0.700414505696062       0.696282466739966     
  0.692150427783870       0.688018388827773       0.683886349871677     
  0.679754310915581       0.778967864906637       0.774835825950541     
  0.770703786994445       0.766571748038349       0.762439709082252     
  0.758307670126155       0.754175631170058       0.750043592213962     
  0.745911553257867       0.741779514301771       0.737647475345675     
  0.835487886369017       0.831355847412922       0.827223808456826     
  0.823091769500729       0.818959730544634       0.814827691588536     
  0.810695652632441       0.806563613676344       0.802431574720247     
  0.798299535764152       0.794167496808056       0.889743410361804     
  0.885611371405707       0.881479332449612       0.877347293493515     
  0.873215254537418       0.869083215581321       0.864951176625225     
  0.860819137669130       0.856687098713032       0.852555059756937     
  0.848423020800841       0.940878794860946       0.936746755904850     
  0.932614716948753       0.928482677992658       0.924350639036561     
  0.920218600080465       0.916086561124368       0.911954522168272     
  0.907822483212176       0.903690444256078       0.899558405299983     
  0.988087604306098       0.983955565350001       0.979823526393905     
  0.975691487437808       0.971559448481713       0.967427409525615     
  0.963295370569519       0.959163331613423       0.955031292657327     
  0.950899253701231       0.946767214745134        1.03062532757113     
   1.02649328861503        1.02236124965894        1.01822921070284     
   1.01409717174675        1.00996513279065        1.00583309383455     
   1.00170105487846       0.997569015922361       0.993436976966264     
  0.989304938010167        1.06782111934935        1.06368908039326     
   1.05955704143716        1.05542500248107        1.05129296352497     
   1.04716092456887        1.04302888561278        1.03889684665668     
   1.03476480770058        1.03063276874449        1.02650072978839     
   1.09908837978473        1.09495634082864        1.09082430187254     
   1.08669226291644        1.08256022396035        1.07842818500425     
   1.07429614604816        1.07016410709206        1.06603206813596     
   1.06190002917987        1.05776799022377        1.12393400550205     
   1.11980196654595        1.11566992758986        1.11153788863376     
   1.10740584967766        1.10327381072156        1.09914177176547     
   1.09500973280937        1.09087769385328        1.08674565489718     
   1.08261361594108        1.14196616614168        1.13783412718558     
   1.13370208822949        1.12957004927339        1.12543801031729     
   1.12130597136120        1.11717393240510        1.11304189344901     
   1.10890985449291        1.10477781553681        1.10064577658071     
   1.15290048375845        1.14876844480235        1.14463640584625     
   1.14050436689016        1.13637232793406        1.13224028897797     
   1.12810825002187        1.12397621106577        1.11984417210968     
   1.11571213315358        1.11158009419748        1.15656451763169     
   1.15243247867560        1.14830043971950        1.14416840076341     
   1.14003636180731        1.13590432285121        1.13177228389511     
   1.12764024493902        1.12350820598292        1.11937616702683     
   1.11524412807073     
  2.651247573289247E-002  2.386122815960322E-002  2.120998058631397E-002
  1.855873301302472E-002  1.590748543973548E-002  1.325623786644623E-002
  1.060499029315698E-002  7.953742719867740E-003  5.302495146578492E-003
  2.651247573289244E-003  0.000000000000000E+000  2.651247573289247E-002
  2.386122815960322E-002  2.120998058631397E-002  1.855873301302472E-002
  1.590748543973548E-002  1.325623786644623E-002  1.060499029315698E-002
  7.953742719867740E-003  5.302495146578492E-003  2.651247573289244E-003
  0.000000000000000E+000  2.651247573289247E-002  2.386122815960322E-002
  2.120998058631397E-002  1.855873301302472E-002  1.590748543973548E-002
  1.325623786644623E-002  1.060499029315698E-002  7.953742719867740E-003
  5.302495146578492E-003  2.651247573289244E-003  0.000000000000000E+000
  2.651247573289247E-002  2.386122815960322E-002  2.120998058631397E-002
  1.855873301302472E-002  1.590748543973548E-002  1.325623786644623E-002
  1.060499029315698E-002  7.953742719867740E-003  5.302495146578492E-003
  2.651247573289244E-003  0.000000000000000E+000  2.651247573289247E-002
  2.386122815960322E-002  2.120998058631397E-002  1.855873301302472E-002
  1.590748543973548E-002  1.325623786644623E-002  1.060499029315698E-002
  7.953742719867740E-003  5.302495146578492E-003  2.651247573289244E-003
  0.000000000000000E+000  2.651247573289247E-002  2.386122815960322E-002
  2.120998058631397E-002  1.855873301302472E-002  1.590748543973548E-002
  1.325623786644623E-002  1.060499029315698E-002  7.953742719867740E-003
  5.302495146578492E-003  2.651247573289244E-003  0.000000000000000E+000
  2.651247573289247E-002  2.386122815960322E-002  2.120998058631397E-002
  1.855873301302472E-002  1.590748543973548E-002  1.325623786644623E-002
  1.060499029315698E-002  7.953742719867740E-003  5.302495146578492E-003
  2.651247573289244E-003  0.000000000000000E+000  2.651247573289247E-002
  2.386122815960322E-002  2.120998058631397E-002  1.855873301302472E-002
  1.590748543973548E-002  1.325623786644623E-002  1.060499029315698E-002
  7.953742719867740E-003  5.302495146578492E-003  2.651247573289244E-003
  0.000000000000000E+000  2.651247573289247E-002  2.386122815960322E-002
  2.120998058631397E-002  1.855873301302472E-002  1.590748543973548E-002
  1.325623786644623E-002  1.060499029315698E-002  7.953742719867740E-003
  5.302495146578492E-003  2.651247573289244E-003  0.000000000000000E+000
  2.651247573289247E-002  2.386122815960322E-002  2.120998058631397E-002
  1.855873301302472E-002  1.590748543973548E-002  1.325623786644623E-002
  1.060499029315698E-002  7.953742719867740E-003  5.302495146578492E-003
  2.651247573289244E-003  0.000000000000000E+000  2.651247573289247E-002
  2.386122815960322E-002  2.120998058631397E-002  1.855873301302472E-002
  1.590748543973548E-002  1.325623786644623E-002  1.060499029315698E-002
  7.953742719867740E-003  5.302495146578492E-003  2.651247573289244E-003
  0.000000000000000E+000  2.651247573289247E-002  2.386122815960322E-002
  2.120998058631397E-002  1.855873301302472E-002  1.590748543973548E-002
  1.325623786644623E-002  1.060499029315698E-002  7.953742719867740E-003
  5.302495146578492E-003  2.651247573289244E-003  0.000000000000000E+000
  2.651247573289247E-002  2.386122815960322E-002  2.120998058631397E-002
  1.855873301302472E-002  1.590748543973548E-002  1.325623786644623E-002
  1.060499029315698E-002  7.953742719867740E-003  5.302495146578492E-003
  2.651247573289244E-003  0.000000000000000E+000  2.651247573289247E-002
  2.386122815960322E-002  2.120998058631397E-002  1.855873301302472E-002
  1.590748543973548E-002  1.325623786644623E-002  1.060499029315698E-002
  7.953742719867740E-003  5.302495146578492E-003  2.651247573289244E-003
  0.000000000000000E+000  2.651247573289247E-002  2.386122815960322E-002
  2.120998058631397E-002  1.855873301302472E-002  1.590748543973548E-002
  1.325623786644623E-002  1.060499029315698E-002  7.953742719867740E-003
  5.302495146578492E-003  2.651247573289244E-003  0.000000000000000E+000
  2.651247573289247E-002  2.386122815960322E-002  2.120998058631397E-002
  1.855873301302472E-002  1.590748543973548E-002  1.325623786644623E-002
  1.060499029315698E-002  7.953742719867740E-003  5.302495146578492E-003
  2.651247573289244E-003  0.000000000000000E+000  2.651247573289247E-002
  2.386122815960322E-002  2.120998058631397E-002  1.855873301302472E-002
  1.590748543973548E-002  1.325623786644623E-002  1.060499029315698E-002
  7.953742719867740E-003  5.302495146578492E-003  2.651247573289244E-003
  0.000000000000000E+000  2.651247573289247E-002  2.386122815960322E-002
  2.120998058631397E-002  1.855873301302472E-002  1.590748543973548E-002
  1.325623786644623E-002  1.060499029315698E-002  7.953742719867740E-003
  5.302495146578492E-003  2.651247573289244E-003  0.000000000000000E+000
  2.651247573289247E-002  2.386122815960322E-002  2.120998058631397E-002
  1.855873301302472E-002  1.590748543973548E-002  1.325623786644623E-002
  1.060499029315698E-002  7.953742719867740E-003  5.302495146578492E-003
  2.651247573289244E-003  0.000000000000000E+000  2.651247573289247E-002
  2.386122815960322E-002  2.120998058631397E-002  1.855873301302472E-002
  1.590748543973548E-002  1.325623786644623E-002  1.060499029315698E-002
  7.953742719867740E-003  5.302495146578492E-003  2.651247573289244E-003
  0.000000000000000E+000  2.651247573289247E-002  2.386122815960322E-002
  2.120998058631397E-002  1.855873301302472E-002  1.590748543973548E-002
  1.325623786644623E-002  1.060499029315698E-002  7.953742719867740E-003
  5.302495146578492E-003  2.651247573289244E-003  0.000000000000000E+000
  2.651247573289247E-002  2.386122815960322E-002  2.120998058631397E-002
  1.855873301302472E-002  1.590748543973548E-002  1.325623786644623E-002
  1.060499029315698E-002  7.953742719867740E-003  5.302495146578492E-003
  2.651247573289244E-003  0.000000000000000E+000  2.651247573289247E-002
  2.386122815960322E-002  2.120998058631397E-002  1.855873301302472E-002
  1.590748543973548E-002  1.325623786644623E-002  1.060499029315698E-002
  7.953742719867740E-003  5.302495146578492E-003  2.651247573289244E-003
  0.000000000000000E+000  2.651247573289247E-002  2.386122815960322E-002
  2.120998058631397E-002  1.855873301302472E-002  1.590748543973548E-002
  1.325623786644623E-002  1.060499029315698E-002  7.953742719867740E-003
  5.302495146578492E-003  2.651247573289244E-003  0.000000000000000E+000
  2.651247573289247E-002  2.386122815960322E-002  2.120998058631397E-002
  1.855873301302472E-002  1.590748543973548E-002  1.325623786644623E-002
  1.060499029315698E-002  7.953742719867740E-003  5.302495146578492E-003
  2.651247573289244E-003  0.000000000000000E+000  2.651247573289247E-002
  2.386122815960322E-002  2.120998058631397E-002  1.855873301302472E-002
  1.590748543973548E-002  1.325623786644623E-002  1.060499029315698E-002
  7.953742719867740E-003  5.302495146578492E-003  2.651247573289244E-003
  0.000000000000000E+000
  6.836313164526409E-003  2.759004272995214E-002  5.439864664123591E-002
  8.678327504217195E-002  0.124850486341089       0.168237427255703     
  0.213263120160402       0.252188516134343       0.279216694662673     
  0.292687408425498       1.496805394125315E-002  4.984051859058009E-002
  9.473205237898687E-002  0.148767592804908       0.211807520920301     
  0.282899576107437       0.356433554436067       0.420538312213773     
  0.465671688232287       0.489745632371617       3.203277303057980E-002
  8.048294884392103E-002  0.140980829360453       0.212828508001693     
  0.295357307869532       0.386325196464734       0.478940232447116     
  0.560487010113926       0.618932005304695       0.649943519546368     
  5.964844767922851E-002  0.121849370033872       0.193928852821274     
  0.276759436486647       0.369624329784053       0.469278549516529     
  0.567766406314704       0.653121943010577       0.715371632307034     
  0.748406428720146       9.884643112893425E-002  0.176830874829618     
  0.258017273461900       0.345816363027048       0.439919902914936     
  0.536852994221369       0.629379555443616       0.708186014379291     
  0.765921780270533       0.796046118840027       0.149740116764686     
  0.246946797918487       0.336903684628598       0.425934372829828     
  0.514456116783885       0.599779498403588       0.677638507733951     
  0.743513247097806       0.792402584671376       0.818305135926896     
  0.209954238518927       0.329778050579554       0.429763315596710     
  0.520018419473318       0.602708813416752       0.677240735669591     
  0.741975851868798       0.794985010488985       0.833822887681236     
  0.855406923829069       0.276383190029709       0.421858176753343     
  0.534626959645664       0.629695016608270       0.711671063497905     
  0.782007135555938       0.840928399564218       0.888401608023595     
  0.923601109008512       0.943676359124483       0.348181785400219     
  0.522964512429265       0.652646280067971       0.757753420350068     
  0.845474946495354       0.919054008655404       0.980101752867526     
   1.02928341224794        1.06619332302573        1.08877120460213     
  0.427021082385807       0.635947321175084       0.787635941553291     
  0.908520514180675        1.00825488834266        1.09140371598828     
   1.16029788723570        1.21594940011293        1.25822054882007     
   1.28511086881145       0.515054199649889       0.763448098395216     
  0.941686316886501        1.08244666764867        1.19781148944584     
   1.29357385287124        1.37277240377024        1.43685264252738     
   1.48591381730192        1.51780997919319       0.612629466927211     
  0.905294571079146        1.11356645902031        1.27686466849713     
   1.40987116147908        1.51970324460994        1.61017627448497     
   1.68321582193380        1.73916649527463        1.77574826707996     
  0.718200050259958        1.05883296148807        1.29960892189373     
   1.48719627906707        1.63907270705953        1.76378086465998     
   1.86596786753280        1.94806810512789        2.01069552924136     
   2.05150208263426       0.829742895524067        1.22090333078567     
   1.49576467431919        1.70866675685059        1.88005415243806     
   2.01999305445246        2.13402181643721        2.22512145114447     
   2.29420367314726        2.33890682280111       0.946031447105503     
   1.38953877291898        1.69942491618286        1.93807131502212     
   2.12904985197214        2.28405476325028        2.40960115193552     
   2.50928502538278        2.58438137426951        2.63259816139310     
   1.06804878545880        1.56577149618385        1.91132089458969     
   2.17563505709012        2.38567056537771        2.55492136004277     
   2.69102061278853        2.79830738847557        2.87853765776519     
   2.92963709722066        1.20345542685751        1.75923342257282     
   2.14139924336605        2.43088883981899        2.65874644119613     
   2.84066714044357        2.98564162046140        3.09892370649946     
   3.18291425023164        3.23595898018494        1.37497699826112     
   1.99729466853123        2.41757095050144        2.73126732204053     
   2.97529034150421        3.16819688003875        3.32057109012899     
   3.43868887240779        3.52567335948373        3.58036085259774     
   1.57961064188427        2.27498714153952        2.73332436479718     
   3.06880171079055        3.32580062667195        3.52646279652535     
   3.68335229138693        3.80397109456967        3.89225943234623     
   3.94764537071702        1.71539408123808        2.45403127321478     
   2.93031931565406        3.27163878241115        3.52803188964547     
   3.72480255994584        3.87635698366417        3.99124853709609     
   4.07409644027984        4.12518966548546        1.73569127354456     
   2.46350298577977        2.92114598146419        3.24204297656009     
   3.47886558570665        3.65806609952378        3.79442013627992     
   3.89644579439861        3.96864128941428        4.01181780491068     
   1.63254433678708        2.28749011738126        2.68527242819404     
   2.95772636692417        3.15574856608743        3.30402656522035     
   3.41582666256285        3.49844009374426        3.55541570064127     
   3.58735565789939        1.41615010177984        1.93981927811103     
   2.24571493296866        2.45214430470464        2.60133935583970     
   2.71279284439850        2.79671279690067        2.85864985585977     
   2.90141637211216        2.92580349251554        1.08467630467172     
   1.43871133862708        1.64269672532038        1.78067832109958     
   1.88076878623243        1.95578965907586        2.01250484795290     
   2.05474414678661        2.08499693587434        2.10686947965482     
  0.659770380883948       0.858040002570966       0.973359417004098     
   1.05180878651051        1.10891784184894        1.15182564858563     
   1.18431832036446        1.20852000832842        1.22559372269899     
   1.23586483643787     
  0.000000000000000E+000  0.000000000000000E+000  0.000000000000000E+000
  0.000000000000000E+000  0.000000000000000E+000  0.000000000000000E+000
  0.000000000000000E+000  0.000000000000000E+000  0.000000000000000E+000
  0.000000000000000E+000  0.000000000000000E+000  0.000000000000000E+000
  0.000000000000000E+000  0.000000000000000E+000  0.000000000000000E+000
  0.000000000000000E+000  0.000000000000000E+000  0.000000000000000E+000
  0.000000000000000E+000  0.000000000000000E+000  0.000000000000000E+000
  0.000000000000000E+000  0.000000000000000E+000  0.000000000000000E+000
  0.000000000000000E+000  0.000000000000000E+000  0.000000000000000E+000
  0.000000000000000E+000  0.000000000000000E+000  0.000000000000000E+000
  0.000000000000000E+000  0.000000000000000E+000  0.000000000000000E+000
  0.000000000000000E+000  0.000000000000000E+000  0.000000000000000E+000
  0.000000000000000E+000  0.000000000000000E+000  0.000000000000000E+000
  0.000000000000000E+000  0.000000000000000E+000  0.000000000000000E+000
  0.000000000000000E+000  0.000000000000000E+000  0.000000000000000E+000
  0.000000000000000E+000  0.000000000000000E+000  0.000000000000000E+000
  0.000000000000000E+000  0.000000000000000E+000  0.000000000000000E+000
  0.000000000000000E+000  0.000000000000000E+000  0.000000000000000E+000
  0.000000000000000E+000  0.000000000000000E+000  0.000000000000000E+000
  0.000000000000000E+000  0.000000000000000E+000  0.000000000000000E+000
  0.000000000000000E+000  0.000000000000000E+000  0.000000000000000E+000
  0.000000000000000E+000  0.000000000000000E+000  0.000000000000000E+000
  0.000000000000000E+000  0.000000000000000E+000  0.000000000000000E+000
  0.000000000000000E+000  0.000000000000000E+000  0.000000000000000E+000
  0.000000000000000E+000  0.000000000000000E+000  0.000000000000000E+000
  0.000000000000000E+000  0.000000000000000E+000  0.000000000000000E+000
  0.000000000000000E+000  0.000000000000000E+000  0.000000000000000E+000
  0.000000000000000E+000  0.000000000000000E+000  0.000000000000000E+000
  0.000000000000000E+000  0.000000000000000E+000  0.000000000000000E+000
  0.000000000000000E+000  0.000000000000000E+000  0.000000000000000E+000
  0.000000000000000E+000  0.000000000000000E+000  0.000000000000000E+000
  0.000000000000000E+000  0.000000000000000E+000  0.000000000000000E+000
  0.000000000000000E+000  0.000000000000000E+000  0.000000000000000E+000
  0.000000000000000E+000  0.000000000000000E+000  0.000000000000000E+000
  0.000000000000000E+000  0.000000000000000E+000  0.000000000000000E+000
  0.000000000000000E+000  0.000000000000000E+000  0.000000000000000E+000
  0.000000000000000E+000  0.000000000000000E+000  0.000000000000000E+000
  0.000000000000000E+000  0.000000000000000E+000  0.000000000000000E+000
  0.000000000000000E+000  0.000000000000000E+000  0.000000000000000E+000