 Title = "Wing and Wake"
 VARIABLES = "X" "Y" "Z" "GAM" "skew"
 Zone I=   11 J=   26 K=1  T="Blade"
 DATAPACKING=BLOCK
 VARLOCATION=([4]=CELLCENTERED,[5]=CELLCENTERED)
  9.357859909264039E-002  0.101509090391561       0.109439581690481     
  0.117370072989401       0.125300564288321       0.133231055587241     
  0.141161546886161       0.149092038185081       0.157022529484001     
  0.164953020782921       0.172883512081841       9.698587663973680E-002
  0.104916367938657       0.112846859237577       0.120777350536497     
  0.128707841835417       0.136638333134337       0.144568824433257     
  0.152499315732177       0.160429807031097       0.168360298330017     
  0.176290789628937       0.107153974478697       0.115084465777618     
  0.123014957076538       0.130945448375458       0.138875939674378     
  0.146806430973298       0.154736922272218       0.162667413571138     
  0.170597904870059       0.178528396168978       0.186458887467899     
  0.123922535632477       0.131853026931397       0.139783518230317     
  0.147714009529237       0.155644500828157       0.163574992127077     
  0.171505483425998       0.179435974724918       0.187366466023838     
  0.195296957322758       0.203227448621677       0.147027109874626     
  0.154957601173546       0.162888092472466       0.170818583771386     
  0.178749075070306       0.186679566369227       0.194610057668146     
  0.202540548967067       0.210471040265986       0.218401531564907     
  0.226332022863827       0.176103324267342       0.184033815566262     
  0.191964306865182       0.199894798164102       0.207825289463022     
  0.215755780761943       0.223686272060862       0.231616763359783     
  0.239547254658702       0.247477745957622       0.255408237256543     
  0.210692629540364       0.218623120839285       0.226553612138204     
  0.234484103437125       0.242414594736044       0.250345086034964     
  0.258275577333884       0.266206068632805       0.274136559931725     
  0.282067051230645       0.289997542529564       0.250249531686887     
  0.258180022985807       0.266110514284728       0.274041005583647     
  0.281971496882568       0.289901988181488       0.297832479480407     
  0.305762970779327       0.313693462078248       0.321623953377168     
  0.329554444676088       0.294150194729912       0.302080686028832     
  0.310011177327752       0.317941668626672       0.325872159925592     
  0.333802651224512       0.341733142523432       0.349663633822353     
  0.357594125121272       0.365524616420193       0.373455107719113     
  0.341702278988266       0.349632770287185       0.357563261586106     
  0.365493752885026       0.373424244183946       0.381354735482866     
  0.389285226781786       0.397215718080707       0.405146209379626     
  0.413076700678546       0.421007191977466       0.392155859686956     
  0.400086350985877       0.408016842284796       0.415947333583716     
  0.423877824882636       0.431808316181556       0.439738807480476     
  0.447669298779397       0.455599790078318       0.463530281377236     
  0.471460772676156       0.444715253718856       0.452645745017775     
  0.460576236316696       0.468506727615615       0.476437218914536     
  0.484367710213456       0.492298201512374       0.500228692811295     
  0.508159184110216       0.516089675409137       0.524020166708056     
  0.498551568042621       0.506482059341542       0.514412550640462     
  0.522343041939383       0.530273533238302       0.538204024537221     
  0.546134515836142       0.554065007135062       0.561995498433982     
  0.569925989732902       0.577856481031822       0.552815771821115     
  0.560746263120033       0.568676754418953       0.576607245717873     
  0.584537737016794       0.592468228315714       0.600398719614633     
  0.608329210913554       0.616259702212473       0.624190193511394     
  0.632120684810314       0.606652086144879       0.614582577443800     
  0.622513068742719       0.630443560041641       0.638374051340560     
  0.646304542639480       0.654235033938400       0.662165525237319     
  0.670096016536241       0.678026507835161       0.685956999134081     
  0.659211480176777       0.667141971475699       0.675072462774618     
  0.683002954073540       0.690933445372461       0.698863936671379     
  0.706794427970300       0.714724919269220       0.722655410568138     
  0.730585901867060       0.738516393165981       0.709665060875470     
  0.717595552174387       0.725526043473310       0.733456534772230     
  0.741387026071150       0.749317517370068       0.757248008668988     
  0.765178499967909       0.773108991266829       0.781039482565750     
  0.788969973864671       0.757217145133821       0.765147636432743     
  0.773078127731661       0.781008619030584       0.788939110329503     
  0.796869601628423       0.804800092927344       0.812730584226263     
  0.820661075525183       0.828591566824103       0.836522058123023     
  0.801117808176848       0.809048299475768       0.816978790774687     
  0.824909282073608       0.832839773372528       0.840770264671447     
  0.848700755970367       0.856631247269289       0.864561738568208     
  0.872492229867128       0.880422721166048       0.840674710323370     
  0.848605201622290       0.856535692921209       0.864466184220130     
  0.872396675519051       0.880327166817970       0.888257658116891     
  0.896188149415811       0.904118640714733       0.912049132013649     
  0.919979623312570       0.875264015596393       0.883194506895314     
  0.891124998194230       0.899055489493155       0.906985980792073     
  0.914916472090993       0.922846963389915       0.930777454688832     
  0.938707945987754       0.946638437286673       0.954568928585592     
  0.904340229989110       0.912270721288029       0.920201212586950     
  0.928131703885869       0.936062195184790       0.943992686483709     
  0.951923177782628       0.959853669081548       0.967784160380468     
  0.975714651679389       0.983645142978312       0.927444804231258     
  0.935375295530180       0.943305786829101       0.951236278128016     
  0.959166769426938       0.967097260725859       0.975027752024776     
  0.982958243323697       0.990888734622618       0.998819225921541     
   1.00674971722046       0.944213365385038       0.952143856683957     
  0.960074347982878       0.968004839281797       0.975935330580718     
  0.983865821879638       0.991796313178557       0.999726804477478     
   1.00765729577640        1.01558778707532        1.02351827837424     
  0.954381463223999       0.962311954522918       0.970242445821836     
  0.978172937120759       0.986103428419682       0.994033919718597     
   1.00196441101752        1.00989490231644        1.01782539361536     
   1.02575588491428        1.03368637621320       0.957788740771098     
  0.965719232070013       0.973649723368931       0.981580214667855     
  0.989510705966774       0.997441197265694        1.00537168856461     
   1.01330217986353        1.02123267116246        1.02916316246138     
   1.03709365376030     
  0.251267092899131       0.234150414072242       0.217033735245352     
  0.199917056418463       0.182800377591574       0.165683698764685     
  0.148567019937796       0.131450341110907       0.114333662284017     
  9.721698345712881E-002  8.010030463023961E-002  0.252845751073040     
  0.235729072246151       0.218612393419262       0.201495714592373     
  0.184379035765484       0.167262356938595       0.150145678111705     
  0.133028999284816       0.115912320457927       9.879564163103839E-002
  8.167896280414905E-002  0.257556829212321       0.240440150385432     
  0.223323471558543       0.206206792731654       0.189090113904765     
  0.171973435077875       0.154856756250986       0.137740077424097     
  0.120623398597208       0.103506719770319       8.639004094342997E-002
  0.265326030800456       0.248209351973566       0.231092673146677     
  0.213975994319788       0.196859315492899       0.179742636666010     
  0.162625957839121       0.145509279012232       0.128392600185343     
  0.111275921358454       9.415924253156456E-002  0.276030830887303     
  0.258914152060413       0.241797473233524       0.224680794406635     
  0.207564115579747       0.190447436752857       0.173330757925968     
  0.156214079099079       0.139097400272190       0.121980721445301     
  0.104864042618412       0.289502408380755       0.272385729553866     
  0.255269050726977       0.238152371900088       0.221035693073199     
  0.203919014246310       0.186802335419420       0.169685656592531     
  0.152568977765642       0.135452298938753       0.118335620111864     
  0.305528308456210       0.288411629629322       0.271294950802433     
  0.254178271975544       0.237061593148654       0.219944914321765     
  0.202828235494876       0.185711556667987       0.168594877841098     
  0.151478199014208       0.134361520187319       0.323855793096071     
  0.306739114269182       0.289622435442293       0.272505756615403     
  0.255389077788515       0.238272398961626       0.221155720134736     
  0.204039041307847       0.186922362480958       0.169805683654069     
  0.152689004827180       0.344195826919256       0.327079148092368     
  0.309962469265478       0.292845790438590       0.275729111611700     
  0.258612432784811       0.241495753957922       0.224379075131033     
  0.207262396304144       0.190145717477255       0.173029038650366     
  0.366227635441828       0.349110956614940       0.331994277788051     
  0.314877598961162       0.297760920134272       0.280644241307383     
  0.263527562480494       0.246410883653605       0.229294204826716     
  0.212177525999827       0.195060847172938       0.389603763882223     
  0.372487085055335       0.355370406228445       0.338253727401555     
  0.321137048574666       0.304020369747777       0.286903690920888     
  0.269787012093999       0.252670333267110       0.235553654440221     
  0.218436975613331       0.413955556730711       0.396838877903820     
  0.379722199076931       0.362605520250043       0.345488841423153     
  0.328372162596265       0.311255483769374       0.294138804942486     
  0.277022126115597       0.259905447288708       0.242788768461819     
  0.438898971667014       0.421782292840126       0.404665614013236     
  0.387548935186349       0.370432256359458       0.353315577532569     
  0.336198898705679       0.319082219878791       0.301965541051902     
  0.284848862225013       0.267732183398124       0.464040636137117     
  0.446923957310227       0.429807278483339       0.412690599656449     
  0.395573920829560       0.378457242002672       0.361340563175782     
  0.344223884348894       0.327107205522004       0.309990526695114     
  0.292873847868226       0.488984051073422       0.471867372246533     
  0.454750693419645       0.437634014592755       0.420517335765866     
  0.403400656938977       0.386283978112087       0.369167299285198     
  0.352050620458309       0.334933941631421       0.317817262804531     
  0.513335843921908       0.496219165095020       0.479102486268131     
  0.461985807441242       0.444869128614354       0.427752449787464     
  0.410635770960575       0.393519092133685       0.376402413306796     
  0.359285734479907       0.342169055653019       0.536711972362302     
  0.519595293535413       0.502478614708524       0.485361935881636     
  0.468245257054747       0.451128578227857       0.434011899400967     
  0.416895220574079       0.399778541747190       0.382661862920302     
  0.365545184093413       0.558743780884875       0.541627102057985     
  0.524510423231096       0.507393744404208       0.490277065577318     
  0.473160386750429       0.456043707923539       0.438927029096651     
  0.421810350269761       0.404693671442872       0.387576992615984     
  0.579083814708060       0.561967135881171       0.544850457054281     
  0.527733778227393       0.510617099400505       0.493500420573615     
  0.476383741746724       0.459267062919837       0.442150384092948     
  0.425033705266058       0.407917026439169       0.597411299347922     
  0.580294620521032       0.563177941694142       0.546061262867255     
  0.528944584040364       0.511827905213475       0.494711226386587     
  0.477594547559698       0.460477868732809       0.443361189905920     
  0.426244511079031       0.613437199423375       0.596320520596487     
  0.579203841769598       0.562087162942710       0.544970484115820     
  0.527853805288930       0.510737126462043       0.493620447635153     
  0.476503768808265       0.459387089981374       0.442270411154485     
  0.626908776916829       0.609792098089941       0.592675419263050     
  0.575558740436161       0.558442061609274       0.541325382782383     
  0.524208703955495       0.507092025128605       0.489975346301715     
  0.472858667474827       0.455741988647938       0.637613577003679     
  0.620496898176787       0.603380219349898       0.586263540523008     
  0.569146861696119       0.552030182869230       0.534913504042340     
  0.517796825215452       0.500680146388563       0.483563467561674     
  0.466446788734784       0.645382778591812       0.628266099764923     
  0.611149420938032       0.594032742111144       0.576916063284255     
  0.559799384457364       0.542682705630477       0.525566026803587     
  0.508449347976697       0.491332669149808       0.474215990322919     
  0.650093856731091       0.632977177904202       0.615860499077313     
  0.598743820250424       0.581627141423535       0.564510462596646     
  0.547393783769756       0.530277104942866       0.513160426115980     
  0.496043747289091       0.478927068462200       0.651672514905001     
  0.634555836078112       0.617439157251220       0.600322478424334     
  0.583205799597443       0.566089120770556       0.548972441943665     
  0.531855763116776       0.514739084289889       0.497622405462998     
  0.480505726636110     
  2.651247573289247E-002  2.386122815960322E-002  2.120998058631397E-002
  1.855873301302472E-002  1.590748543973548E-002  1.325623786644623E-002
  1.060499029315698E-002  7.953742719867740E-003  5.302495146578492E-003
  2.651247573289244E-003  0.000000000000000E+000  2.651247573289247E-002
  2.386122815960322E-002  2.120998058631397E-002  1.855873301302472E-002
  1.590748543973548E-002  1.325623786644623E-002  1.060499029315698E-002
  7.953742719867740E-003  5.302495146578492E-003  2.651247573289244E-003
  0.000000000000000E+000  2.651247573289247E-002  2.386122815960322E-002
  2.120998058631397E-002  1.855873301302472E-002  1.590748543973548E-002
  1.325623786644623E-002  1.060499029315698E-002  7.953742719867740E-003
  5.302495146578492E-003  2.651247573289244E-003  0.000000000000000E+000
  2.651247573289247E-002  2.386122815960322E-002  2.120998058631397E-002
  1.855873301302472E-002  1.590748543973548E-002  1.325623786644623E-002
  1.060499029315698E-002  7.953742719867740E-003  5.302495146578492E-003
  2.651247573289244E-003  0.000000000000000E+000  2.651247573289247E-002
  2.386122815960322E-002  2.120998058631397E-002  1.855873301302472E-002
  1.590748543973548E-002  1.325623786644623E-002  1.060499029315698E-002
  7.953742719867740E-003  5.302495146578492E-003  2.651247573289244E-003
  0.000000000000000E+000  2.651247573289247E-002  2.386122815960322E-002
  2.120998058631397E-002  1.855873301302472E-002  1.590748543973548E-002
  1.325623786644623E-002  1.060499029315698E-002  7.953742719867740E-003
  5.302495146578492E-003  2.651247573289244E-003  0.000000000000000E+000
  2.651247573289247E-002  2.386122815960322E-002  2.120998058631397E-002
  1.855873301302472E-002  1.590748543973548E-002  1.325623786644623E-002
  1.060499029315698E-002  7.953742719867740E-003  5.302495146578492E-003
  2.651247573289244E-003  0.000000000000000E+000  2.651247573289247E-002
  2.386122815960322E-002  2.120998058631397E-002  1.855873301302472E-002
  1.590748543973548E-002  1.325623786644623E-002  1.060499029315698E-002
  7.953742719867740E-003  5.302495146578492E-003  2.651247573289244E-003
  0.000000000000000E+000  2.651247573289247E-002  2.386122815960322E-002
  2.120998058631397E-002  1.855873301302472E-002  1.590748543973548E-002
  1.325623786644623E-002  1.060499029315698E-002  7.953742719867740E-003
  5.302495146578492E-003  2.651247573289244E-003  0.000000000000000E+000
  2.651247573289247E-002  2.386122815960322E-002  2.120998058631397E-002
  1.855873301302472E-002  1.590748543973548E-002  1.325623786644623E-002
  1.060499029315698E-002  7.953742719867740E-003  5.302495146578492E-003
  2.651247573289244E-003  0.000000000000000E+000  2.651247573289247E-002
  2.386122815960322E-002  2.120998058631397E-002  1.855873301302472E-002
  1.590748543973548E-002  1.325623786644623E-002  1.060499029315698E-002
  7.953742719867740E-003  5.302495146578492E-003  2.651247573289244E-003
  0.000000000000000E+000  2.651247573289247E-002  2.386122815960322E-002
  2.120998058631397E-002  1.855873301302472E-002  1.590748543973548E-002
  1.325623786644623E-002  1.060499029315698E-002  7.953742719867740E-003
  5.302495146578492E-003  2.651247573289244E-003  0.000000000000000E+000
  2.651247573289247E-002  2.386122815960322E-002  2.120998058631397E-002
  1.855873301302472E-002  1.590748543973548E-002  1.325623786644623E-002
  1.060499029315698E-002  7.953742719867740E-003  5.302495146578492E-003
  2.651247573289244E-003  0.000000000000000E+000  2.651247573289247E-002
  2.386122815960322E-002  2.120998058631397E-002  1.855873301302472E-002
  1.590748543973548E-002  1.325623786644623E-002  1.060499029315698E-002
  7.953742719867740E-003  5.302495146578492E-003  2.651247573289244E-003
  0.000000000000000E+000  2.651247573289247E-002  2.386122815960322E-002
  2.120998058631397E-002  1.855873301302472E-002  1.590748543973548E-002
  1.325623786644623E-002  1.060499029315698E-002  7.953742719867740E-003
  5.302495146578492E-003  2.651247573289244E-003  0.000000000000000E+000
  2.651247573289247E-002  2.386122815960322E-002  2.120998058631397E-002
  1.855873301302472E-002  1.590748543973548E-002  1.325623786644623E-002
  1.060499029315698E-002  7.953742719867740E-003  5.302495146578492E-003
  2.651247573289244E-003  0.000000000000000E+000  2.651247573289247E-002
  2.386122815960322E-002  2.120998058631397E-002  1.855873301302472E-002
  1.590748543973548E-002  1.325623786644623E-002  1.060499029315698E-002
  7.953742719867740E-003  5.302495146578492E-003  2.651247573289244E-003
  0.000000000000000E+000  2.651247573289247E-002  2.386122815960322E-002
  2.120998058631397E-002  1.855873301302472E-002  1.590748543973548E-002
  1.325623786644623E-002  1.060499029315698E-002  7.953742719867740E-003
  5.302495146578492E-003  2.651247573289244E-003  0.000000000000000E+000
  2.651247573289247E-002  2.386122815960322E-002  2.120998058631397E-002
  1.855873301302472E-002  1.590748543973548E-002  1.325623786644623E-002
  1.060499029315698E-002  7.953742719867740E-003  5.302495146578492E-003
  2.651247573289244E-003  0.000000000000000E+000  2.651247573289247E-002
  2.386122815960322E-002  2.120998058631397E-002  1.855873301302472E-002
  1.590748543973548E-002  1.325623786644623E-002  1.060499029315698E-002
  7.953742719867740E-003  5.302495146578492E-003  2.651247573289244E-003
  0.000000000000000E+000  2.651247573289247E-002  2.386122815960322E-002
  2.120998058631397E-002  1.855873301302472E-002  1.590748543973548E-002
  1.325623786644623E-002  1.060499029315698E-002  7.953742719867740E-003
  5.302495146578492E-003  2.651247573289244E-003  0.000000000000000E+000
  2.651247573289247E-002  2.386122815960322E-002  2.120998058631397E-002
  1.855873301302472E-002  1.590748543973548E-002  1.325623786644623E-002
  1.060499029315698E-002  7.953742719867740E-003  5.302495146578492E-003
  2.651247573289244E-003  0.000000000000000E+000  2.651247573289247E-002
  2.386122815960322E-002  2.120998058631397E-002  1.855873301302472E-002
  1.590748543973548E-002  1.325623786644623E-002  1.060499029315698E-002
  7.953742719867740E-003  5.302495146578492E-003  2.651247573289244E-003
  0.000000000000000E+000  2.651247573289247E-002  2.386122815960322E-002
  2.120998058631397E-002  1.855873301302472E-002  1.590748543973548E-002
  1.325623786644623E-002  1.060499029315698E-002  7.953742719867740E-003
  5.302495146578492E-003  2.651247573289244E-003  0.000000000000000E+000
  2.651247573289247E-002  2.386122815960322E-002  2.120998058631397E-002
  1.855873301302472E-002  1.590748543973548E-002  1.325623786644623E-002
  1.060499029315698E-002  7.953742719867740E-003  5.302495146578492E-003
  2.651247573289244E-003  0.000000000000000E+000  2.651247573289247E-002
  2.386122815960322E-002  2.120998058631397E-002  1.855873301302472E-002
  1.590748543973548E-002  1.325623786644623E-002  1.060499029315698E-002
  7.953742719867740E-003  5.302495146578492E-003  2.651247573289244E-003
  0.000000000000000E+000
 -1.075900928302905E-002  1.023458293533187E-003  1.964540097775194E-002
  4.224092846542130E-002  6.745617502707284E-002  9.493897995051148E-002
  0.124181971915376       0.154271262261187       0.184257388678958     
  0.211598538756436      -1.619680789575564E-002  2.474792661672457E-003
  3.278384926133063E-002  6.991299327035151E-002  0.111661392236561     
  0.157390157855295       0.206292571169689       0.257033263616046     
  0.308356059852807       0.357157699226118      -1.552378777172116E-002
  7.576316111964495E-003  4.565224721042341E-002  9.298212216205022E-002
  0.147026604846093       0.206804951748016       0.271394408988629     
  0.339616675430249       0.410559385925718       0.480849944099087     
 -5.831390323686270E-003  2.125607156096105E-002  6.290158032330348E-002
  0.114307846790898       0.173292463079180       0.238683202793501     
  0.309622402803738       0.385422294533621       0.464815228692009     
  0.542779799381989       1.596796451325116E-002  4.995527742561208E-002
  9.432505998926477E-002  0.146274254829159       0.204097931889295     
  0.266653558392758       0.333285455080768       0.403563304609844     
  0.475974841169708       0.545254462083736       5.286419022172169E-002
  9.962315148446879E-002  0.149428716607781       0.202513395490477     
  0.258222881668237       0.315727197723411       0.374204562455748     
  0.432736873059761       0.489778170353239       0.541240994721297     
  0.106330672516296       0.173645587600653       0.234143596633554     
  0.292196818093405       0.348840652470834       0.404090143612192     
  0.457468448317674       0.508119792356007       0.554672024669412     
  0.594021145193575       0.175652825235214       0.271700166982568     
  0.349212280674369       0.417659073590964       0.480153258758522     
  0.537861546863966       0.591061301500021       0.639455291853851     
  0.682117619573641       0.716439944515240       0.257932834361572     
  0.389642884410196       0.489746842759537       0.573534088653835     
  0.646401290555370       0.710730721699838       0.767570420494705     
  0.817165845688880       0.859000948898796       0.890868160732267     
  0.350006318367805       0.522568658785133       0.649385596041626     
  0.752140385723064       0.838724850957271       0.912840421675823     
  0.976360807893952        1.03009556889184        1.07390024754590     
   1.10575289086464       0.449662508518253       0.667042653020661     
  0.823732446711326       0.948288709272527        1.05127001839426     
   1.13775550079741        1.21043779803640        1.27063309165011     
   1.31847041276080        1.35194416005302       0.555520823991023     
  0.820891344632033        1.00991267305306        1.15839527967312     
   1.27969527552796        1.38031492325560        1.46376697579349     
   1.53185297060466        1.58494294823443        1.62099151170494     
  0.666351292423357       0.982108114227125        1.20520655551726     
   1.37903059292454        1.51984428092371        1.63562163222176     
   1.73072466666725        1.80746268017161        1.86646152616951     
   1.90562937481382       0.780906521322756        1.14870404656282     
   1.40696786796213        1.60691056888496        1.76780660621617     
   1.89916297384203        2.00623575952708        2.09187740936230     
   2.15700212868162        2.19950334357126       0.898146263420262     
   1.31905415142798        1.61305399831455        1.83938147274388     
   2.02040958315822        2.16723817727725        2.28606701365738     
   2.38034137427774        2.45132393535033        2.49698349652684     
   1.01924179648170        1.49463466897883        1.82489921401924     
   2.07759660426428        2.27835509664558        2.43997853040643     
   2.56969995142442        2.67163843543369        2.74749833273959     
   2.79549695189413        1.15474184571185        1.68919141033268     
   2.05734390693182        2.33651934664527        2.55628714839926     
   2.73153455785038        2.87072813602878        2.97875191364656     
   3.05779531895719        3.10648110384299        1.33502208355437     
   1.94111159174176        2.35140646001597        2.65811719879947     
   2.89688672373295        3.08561449012216        3.23437373348772     
   3.34892194551052        3.43185848153645        3.48191276282361     
   1.57792361985483        2.27153221026271        2.72925364967760     
   3.06581316692304        3.32550668179968        3.53021571010819     
   3.69223852505281        3.81878883673237        3.91341609809164     
   3.97472674331058        1.77861691799227        2.54023845732776     
   3.03145122542911        3.38601547044109        3.65577127952659     
   3.86684665233168        4.03431455820813        4.16723379429078     
   4.27034961137473        4.34235971742641        1.82224272112076     
   2.58459595072986        3.06465731754512        3.40369988549884     
   3.65771959778339        3.85521245797549        4.01268173709197     
   4.14028297284057        4.24352647652148        4.32039660221516     
   1.71525153405966        2.40392220629084        2.82363751195218     
   3.11363651675750        3.32827386329725        3.49470490762557     
   3.62869143317680        3.74066061679680        3.83790866770288     
   3.92046369862638        1.48600028370225        2.03687288817204     
   2.36021781215180        2.58058917754757        2.74296258213924     
   2.86874263060369        2.97011177580669        3.05535764422682     
   3.13179688767548        3.20622938121068        1.13677691128886     
   1.50914020576723        1.72480107614691        1.87208282723027     
   1.98082931534904        2.06496057592026        2.13218996187879     
   2.18730505945523        2.23347528929555        2.27293018738341     
  0.691079548954131       0.899605565354508        1.02151069245668     
   1.10520099356560        1.16714148143751        1.21504044878016     
   1.25311976357639        1.28381412815272        1.30808622374462     
   1.32331461851059     
  0.000000000000000E+000  0.000000000000000E+000  0.000000000000000E+000
  0.000000000000000E+000  0.000000000000000E+000  0.000000000000000E+000
  0.000000000000000E+000  0.000000000000000E+000  0.000000000000000E+000
  0.000000000000000E+000  0.000000000000000E+000  0.000000000000000E+000
  0.000000000000000E+000  0.000000000000000E+000  0.000000000000000E+000
  0.000000000000000E+000  0.000000000000000E+000  0.000000000000000E+000
  0.000000000000000E+000  0.000000000000000E+000  0.000000000000000E+000
  0.000000000000000E+000  0.000000000000000E+000  0.000000000000000E+000
  0.000000000000000E+000  0.000000000000000E+000  0.000000000000000E+000
  0.000000000000000E+000  0.000000000000000E+000  0.000000000000000E+000
  0.000000000000000E+000  0.000000000000000E+000  0.000000000000000E+000
  0.000000000000000E+000  0.000000000000000E+000  0.000000000000000E+000
  0.000000000000000E+000  0.000000000000000E+000  0.000000000000000E+000
  0.000000000000000E+000  0.000000000000000E+000  0.000000000000000E+000
  0.000000000000000E+000  0.000000000000000E+000  0.000000000000000E+000
  0.000000000000000E+000  0.000000000000000E+000  0.000000000000000E+000
  0.000000000000000E+000  0.000000000000000E+000  0.000000000000000E+000
  0.000000000000000E+000  0.000000000000000E+000  0.000000000000000E+000
  0.000000000000000E+000  0.000000000000000E+000  0.000000000000000E+000
  0.000000000000000E+000  0.000000000000000E+000  0.000000000000000E+000
  0.000000000000000E+000  0.000000000000000E+000  0.000000000000000E+000
  0.000000000000000E+000  0.000000000000000E+000  0.000000000000000E+000
  0.000000000000000E+000  0.000000000000000E+000  0.000000000000000E+000
  0.000000000000000E+000  0.000000000000000E+000  0.000000000000000E+000
  0.000000000000000E+000  0.000000000000000E+000  0.000000000000000E+000
  0.000000000000000E+000  0.000000000000000E+000  0.000000000000000E+000
  0.000000000000000E+000  0.000000000000000E+000  0.000000000000000E+000
  0.000000000000000E+000  0.000000000000000E+000  0.000000000000000E+000
  0.000000000000000E+000  0.000000000000000E+000  0.000000000000000E+000
  0.000000000000000E+000  0.000000000000000E+000  0.000000000000000E+000
  0.000000000000000E+000  0.000000000000000E+000  0.000000000000000E+000
  0.000000000000000E+000  0.000000000000000E+000  0.000000000000000E+000
  0.000000000000000E+000  0.000000000000000E+000  0.000000000000000E+000
  0.000000000000000E+000  0.000000000000000E+000  0.000000000000000E+000
  0.000000000000000E+000  0.000000000000000E+000  0.000000000000000E+000
  0.000000000000000E+000  0.000000000000000E+000  0.000000000000000E+000
  0.000000000000000E+000  0.000000000000000E+000  0.000000000000000E+000
  0.000000000000000E+000  0.000000000000000E+000  0.000000000000000E+000
  0.000000000000000E+000  0.000000000000000E+000  0.000000000000000E+000