 Title = "Wing and Wake"
 VARIABLES = "X" "Y" "Z" "GAM" "skew"
 Zone I=   11 J=   26 K=1  T="Blade"
 DATAPACKING=BLOCK
 VARLOCATION=([4]=CELLCENTERED,[5]=CELLCENTERED)
  0.256316580262192       0.247563519666185       0.238810459070179     
  0.230057398474173       0.221304337878166       0.212551277282160     
  0.203798216686153       0.195045156090147       0.186292095494141     
  0.177539034898135       0.168785974302129       0.259643101418426     
  0.250890040822420       0.242136980226413       0.233383919630407     
  0.224630859034401       0.215877798438395       0.207124737842388     
  0.198371677246382       0.189618616650376       0.180865556054370     
  0.172112495458363       0.269570203661328       0.260817143065322     
  0.252064082469315       0.243311021873309       0.234557961277303     
  0.225804900681297       0.217051840085290       0.208298779489285     
  0.199545718893278       0.190792658297272       0.182039597701265     
  0.285941330658364       0.277188270062358       0.268435209466352     
  0.259682148870345       0.250929088274339       0.242176027678333     
  0.233422967082327       0.224669906486321       0.215916845890314     
  0.207163785294308       0.198410724698302       0.308498299957154     
  0.299745239361147       0.290992178765141       0.282239118169135     
  0.273486057573129       0.264732996977122       0.255979936381116     
  0.247226875785110       0.238473815189103       0.229720754593098     
  0.220967693997091       0.336885374676974       0.328132314080968     
  0.319379253484961       0.310626192888955       0.301873132292949     
  0.293120071696943       0.284367011100936       0.275613950504930     
  0.266860889908923       0.258107829312917       0.249354768716911     
  0.370654873691877       0.361901813095871       0.353148752499865     
  0.344395691903859       0.335642631307852       0.326889570711846     
  0.318136510115840       0.309383449519833       0.300630388923827     
  0.291877328327821       0.283124267731814       0.409274231829477     
  0.400521171233472       0.391768110637466       0.383015050041459     
  0.374261989445453       0.365508928849447       0.356755868253440     
  0.348002807657434       0.339249747061428       0.330496686465422     
  0.321743625869416       0.452134398741859       0.443381338145854     
  0.434628277549847       0.425875216953841       0.417122156357834     
  0.408369095761828       0.399616035165822       0.390862974569816     
  0.382109913973809       0.373356853377803       0.364603792781797     
  0.498559443993391       0.489806383397384       0.481053322801378     
  0.472300262205371       0.463547201609366       0.454794141013359     
  0.446041080417353       0.437288019821347       0.428534959225340     
  0.419781898629334       0.411028838033328       0.547817216887479     
  0.539064156291473       0.530311095695466       0.521558035099459     
  0.512804974503452       0.504051913907446       0.495298853311440     
  0.486545792715434       0.477792732119429       0.469039671523422     
  0.460286610927415       0.599130892920414       0.590377832324405     
  0.581624771728400       0.572871711132394       0.564118650536388     
  0.555365589940383       0.546612529344374       0.537859468748369     
  0.529106408152364       0.520353347556357       0.511600286960350     
  0.651691224767853       0.642938164171847       0.634185103575840     
  0.625432042979836       0.616678982383828       0.607925921787822     
  0.599172861191816       0.590419800595809       0.581666739999803     
  0.572913679403797       0.564160618807791       0.704669304598544     
  0.695916244002538       0.687163183406531       0.678410122810525     
  0.669657062214519       0.660904001618513       0.652150941022505     
  0.643397880426500       0.634644819830494       0.625891759234487     
  0.617138698638482       0.757229636445984       0.748476575849979     
  0.739723515253972       0.730970454657967       0.722217394061960     
  0.713464333465954       0.704711272869947       0.695958212273940     
  0.687205151677935       0.678452091081929       0.669699030485923     
  0.808543312478918       0.799790251882913       0.791037191286907     
  0.782284130690901       0.773531070094896       0.764778009498889     
  0.756024948902883       0.747271888306876       0.738518827710868     
  0.729765767114864       0.721012706518858       0.857801085373007     
  0.849048024777000       0.840294964180995       0.831541903584989     
  0.822788842988982       0.814035782392974       0.805282721796968     
  0.796529661200963       0.787776600604956       0.779023540008952     
  0.770270479412945       0.904226130624537       0.895473070028531     
  0.886720009432524       0.877966948836520       0.869213888240512     
  0.860460827644507       0.851707767048500       0.842954706452495     
  0.834201645856487       0.825448585260481       0.816695524664475     
  0.947086297536920       0.938333236940913       0.929580176344906     
  0.920827115748901       0.912074055152895       0.903320994556887     
  0.894567933960880       0.885814873364876       0.877061812768871     
  0.868308752172862       0.859555691576856       0.985705655674521     
  0.976952595078513       0.968199534482506       0.959446473886502     
  0.950693413290494       0.941940352694488       0.933187292098483     
  0.924434231502476       0.915681170906472       0.906928110310463     
  0.898175049714457        1.01947515468942        1.01072209409342     
   1.00196903349741       0.993215972901405       0.984462912305398     
  0.975709851709391       0.966956791113388       0.958203730517380     
  0.949450669921374       0.940697609325367       0.931944548729360     
   1.04786222940924        1.03910916881324        1.03035610821723     
   1.02160304762122        1.01284998702522        1.00409692642921     
  0.995343865833205       0.986590805237199       0.977837744641192     
  0.969084684045187       0.960331623449182        1.07041919870804     
   1.06166613811203        1.05291307751602        1.04416001692001     
   1.03540695632401        1.02665389572800        1.01790083513199     
   1.00914777453599        1.00039471393998       0.991641653343979     
  0.982888592747969        1.08679032570507        1.07803726510906     
   1.06928420451306        1.06053114391705        1.05177808332105     
   1.04302502272504        1.03427196212903        1.02551890153303     
   1.01676584093702        1.00801278034101       0.999259719745006     
   1.09671742794797        1.08796436735196        1.07921130675596     
   1.07045824615995        1.06170518556395        1.05295212496794     
   1.04419906437193        1.03544600377592        1.02669294317992     
   1.01793988258392        1.00918682198791        1.10004394910421     
   1.09129088850820        1.08253782791219        1.07378476731619     
   1.06503170672018        1.05627864612417        1.04752558552817     
   1.03877252493216        1.03001946433616        1.02126640374015     
   1.01251334314415     
  7.870144131346934E-002  6.199044743196222E-002  4.527945355045502E-002
  2.856845966894811E-002  1.185746578744109E-002 -4.853528094065947E-003
 -2.156452197557298E-002 -3.827551585708022E-002 -5.498650973858717E-002
 -7.169750362009400E-002 -8.840849750160115E-002  7.695904098342994E-002
  6.024804710192332E-002  4.353705322041612E-002  2.682605933890924E-002
  1.011506545740206E-002 -6.595928424104905E-003 -2.330692230561207E-002
 -4.001791618711918E-002 -5.672891006862626E-002 -7.343990395013303E-002
 -9.015089783164036E-002  7.175931868737739E-002  5.504832480587063E-002
  3.833733092436347E-002  2.162633704285640E-002  4.915343161349333E-003
 -1.179565072015782E-002 -2.850664460166455E-002 -4.521763848317190E-002
 -6.192863236467885E-002 -7.863962624618562E-002 -9.535062012769271E-002
  6.318427715208316E-002  4.647328327057595E-002  2.976228938906890E-002
  1.305129550756194E-002 -3.659698373944956E-003 -2.037069225545205E-002
 -3.708168613695900E-002 -5.379268001846583E-002 -7.050367389997302E-002
 -8.721466778147990E-002 -0.103925661662987       5.136914990504040E-002
  3.465815602353362E-002  1.794716214202632E-002  1.236168260519562E-003
 -1.547482562098725E-002 -3.218581950249475E-002 -4.889681338400146E-002
 -6.560780726550870E-002 -8.231880114701542E-002 -9.902979502852265E-002
 -0.115740788910030       3.650026856095064E-002  1.978927467944357E-002
  3.078280797936607E-003 -1.363271308357055E-002 -3.034370696507754E-002
 -4.705470084658466E-002 -6.376569472809178E-002 -8.047668860959879E-002
 -9.718768249110524E-002 -0.113898676372612      -0.130609670254120     
  1.881212426084770E-002  2.101130379340963E-003 -1.460986350216550E-002
 -3.132085738367280E-002 -4.803185126517999E-002 -6.474284514668656E-002
 -8.145383902819349E-002 -9.816483290970111E-002 -0.114875826791209     
 -0.131586820672715      -0.148297814554222      -1.416330393268303E-003
 -1.812732427477518E-002 -3.483831815628294E-002 -5.154931203778956E-002
 -6.826030591929648E-002 -8.497129980080344E-002 -0.101682293682311     
 -0.118393287563818      -0.135104281445325      -0.151815275326832     
 -0.168526269208339      -2.386608058761074E-002 -4.057707446911798E-002
 -5.728806835062496E-002 -7.399906223213151E-002 -9.071005611363928E-002
 -0.107421049995146      -0.124132043876653      -0.140843037758160     
 -0.157554031639666      -0.174265025521174      -0.190976019402681     
 -4.818308035078391E-002 -6.489407423229036E-002 -8.160506811379761E-002
 -9.831606199530424E-002 -0.115027055876812      -0.131738049758319     
 -0.148449043639826      -0.165160037521333      -0.181871031402840     
 -0.198582025284346      -0.215293019165854      -7.398383607024975E-002
 -9.069482995175729E-002 -0.107405823833264      -0.124116817714771     
 -0.140827811596278      -0.157538805477784      -0.174249799359292     
 -0.190960793240799      -0.207671787122306      -0.224382781003813     
 -0.241093774885320      -0.100861454415688      -0.117572448297196     
 -0.134283442178704      -0.150994436060209      -0.167705429941717     
 -0.184416423823224      -0.201127417704731      -0.217838411586238     
 -0.234549405467745      -0.251260399349253      -0.267971393230759     
 -0.128392059289883      -0.145103053171389      -0.161814047052898     
 -0.178525040934404      -0.195236034815911      -0.211947028697417     
 -0.228658022578925      -0.245369016460432      -0.262080010341939     
 -0.278791004223445      -0.295501998104953      -0.156141476607980     
 -0.172852470489486      -0.189563464370993      -0.206274458252500     
 -0.222985452134008      -0.239696446015514      -0.256407439897021     
 -0.273118433778527      -0.289829427660035      -0.306540421541543     
 -0.323251415423049      -0.183672081482172      -0.200383075363680     
 -0.217094069245186      -0.233805063126695      -0.250516057008201     
 -0.267227050889707      -0.283938044771216      -0.300649038652721     
 -0.317360032534230      -0.334071026415736      -0.350782020297244     
 -0.210549699827611      -0.227260693709120      -0.243971687590626     
 -0.260682681472134      -0.277393675353641      -0.294104669235147     
 -0.310815663116654      -0.327526656998162      -0.344237650879667     
 -0.360948644761176      -0.377659638642683      -0.236350455547080     
 -0.253061449428585      -0.269772443310093      -0.286483437191599     
 -0.303194431073106      -0.319905424954613      -0.336616418836120     
 -0.353327412717628      -0.370038406599135      -0.386749400480641     
 -0.403460394362148      -0.260667455310250      -0.277378449191759     
 -0.294089443073264      -0.310800436954773      -0.327511430836279     
 -0.344222424717787      -0.360933418599294      -0.377644412480801     
 -0.394355406362307      -0.411066400243814      -0.427777394125321     
 -0.283117205504594      -0.299828199386100      -0.316539193267608     
 -0.333250187149115      -0.349961181030620      -0.366672174912128     
 -0.383383168793636      -0.400094162675143      -0.416805156556650     
 -0.433516150438156      -0.450227144319663      -0.303345660158710     
 -0.320056654040217      -0.336767647921723      -0.353478641803230     
 -0.370189635684738      -0.386900629566245      -0.403611623447753     
 -0.420322617329260      -0.437033611210767      -0.453744605092272     
 -0.470455598973779      -0.321033804458813      -0.337744798340320     
 -0.354455792221825      -0.371166786103334      -0.387877779984841     
 -0.404588773866348      -0.421299767747855      -0.438010761629361     
 -0.454721755510868      -0.471432749392376      -0.488143743273882     
 -0.335902685802903      -0.352613679684409      -0.369324673565917     
 -0.386035667447424      -0.402746661328930      -0.419457655210437     
 -0.436168649091944      -0.452879642973451      -0.469590636854959     
 -0.486301630736465      -0.503012624617975      -0.347717813049944     
 -0.364428806931454      -0.381139800812961      -0.397850794694465     
 -0.414561788575973      -0.431272782457480      -0.447983776338986     
 -0.464694770220494      -0.481405764102001      -0.498116757983511     
 -0.514827751865015      -0.356292854585239      -0.373003848466745     
 -0.389714842348254      -0.406425836229761      -0.423136830111268     
 -0.439847823992775      -0.456558817874281      -0.473269811755789     
 -0.489980805637296      -0.506691799518802      -0.523402793400310     
 -0.361492576881294      -0.378203570762799      -0.394914564644304     
 -0.411625558525814      -0.428336552407322      -0.445047546288826     
 -0.461758540170334      -0.478469534051839      -0.495180527933348     
 -0.511891521814856      -0.528602515696361      -0.363234977211334     
 -0.379945971092838      -0.396656964974345      -0.413367958855852     
 -0.430078952737360      -0.446789946618864      -0.463500940500373     
 -0.480211934381880      -0.496922928263388      -0.513633922144896     
 -0.530344916026403     
  2.651247573289247E-002  2.386122815960322E-002  2.120998058631397E-002
  1.855873301302472E-002  1.590748543973548E-002  1.325623786644623E-002
  1.060499029315698E-002  7.953742719867740E-003  5.302495146578492E-003
  2.651247573289244E-003  0.000000000000000E+000  2.651247573289247E-002
  2.386122815960322E-002  2.120998058631397E-002  1.855873301302472E-002
  1.590748543973548E-002  1.325623786644623E-002  1.060499029315698E-002
  7.953742719867740E-003  5.302495146578492E-003  2.651247573289244E-003
  0.000000000000000E+000  2.651247573289247E-002  2.386122815960322E-002
  2.120998058631397E-002  1.855873301302472E-002  1.590748543973548E-002
  1.325623786644623E-002  1.060499029315698E-002  7.953742719867740E-003
  5.302495146578492E-003  2.651247573289244E-003  0.000000000000000E+000
  2.651247573289247E-002  2.386122815960322E-002  2.120998058631397E-002
  1.855873301302472E-002  1.590748543973548E-002  1.325623786644623E-002
  1.060499029315698E-002  7.953742719867740E-003  5.302495146578492E-003
  2.651247573289244E-003  0.000000000000000E+000  2.651247573289247E-002
  2.386122815960322E-002  2.120998058631397E-002  1.855873301302472E-002
  1.590748543973548E-002  1.325623786644623E-002  1.060499029315698E-002
  7.953742719867740E-003  5.302495146578492E-003  2.651247573289244E-003
  0.000000000000000E+000  2.651247573289247E-002  2.386122815960322E-002
  2.120998058631397E-002  1.855873301302472E-002  1.590748543973548E-002
  1.325623786644623E-002  1.060499029315698E-002  7.953742719867740E-003
  5.302495146578492E-003  2.651247573289244E-003  0.000000000000000E+000
  2.651247573289247E-002  2.386122815960322E-002  2.120998058631397E-002
  1.855873301302472E-002  1.590748543973548E-002  1.325623786644623E-002
  1.060499029315698E-002  7.953742719867740E-003  5.302495146578492E-003
  2.651247573289244E-003  0.000000000000000E+000  2.651247573289247E-002
  2.386122815960322E-002  2.120998058631397E-002  1.855873301302472E-002
  1.590748543973548E-002  1.325623786644623E-002  1.060499029315698E-002
  7.953742719867740E-003  5.302495146578492E-003  2.651247573289244E-003
  0.000000000000000E+000  2.651247573289247E-002  2.386122815960322E-002
  2.120998058631397E-002  1.855873301302472E-002  1.590748543973548E-002
  1.325623786644623E-002  1.060499029315698E-002  7.953742719867740E-003
  5.302495146578492E-003  2.651247573289244E-003  0.000000000000000E+000
  2.651247573289247E-002  2.386122815960322E-002  2.120998058631397E-002
  1.855873301302472E-002  1.590748543973548E-002  1.325623786644623E-002
  1.060499029315698E-002  7.953742719867740E-003  5.302495146578492E-003
  2.651247573289244E-003  0.000000000000000E+000  2.651247573289247E-002
  2.386122815960322E-002  2.120998058631397E-002  1.855873301302472E-002
  1.590748543973548E-002  1.325623786644623E-002  1.060499029315698E-002
  7.953742719867740E-003  5.302495146578492E-003  2.651247573289244E-003
  0.000000000000000E+000  2.651247573289247E-002  2.386122815960322E-002
  2.120998058631397E-002  1.855873301302472E-002  1.590748543973548E-002
  1.325623786644623E-002  1.060499029315698E-002  7.953742719867740E-003
  5.302495146578492E-003  2.651247573289244E-003  0.000000000000000E+000
  2.651247573289247E-002  2.386122815960322E-002  2.120998058631397E-002
  1.855873301302472E-002  1.590748543973548E-002  1.325623786644623E-002
  1.060499029315698E-002  7.953742719867740E-003  5.302495146578492E-003
  2.651247573289244E-003  0.000000000000000E+000  2.651247573289247E-002
  2.386122815960322E-002  2.120998058631397E-002  1.855873301302472E-002
  1.590748543973548E-002  1.325623786644623E-002  1.060499029315698E-002
  7.953742719867740E-003  5.302495146578492E-003  2.651247573289244E-003
  0.000000000000000E+000  2.651247573289247E-002  2.386122815960322E-002
  2.120998058631397E-002  1.855873301302472E-002  1.590748543973548E-002
  1.325623786644623E-002  1.060499029315698E-002  7.953742719867740E-003
  5.302495146578492E-003  2.651247573289244E-003  0.000000000000000E+000
  2.651247573289247E-002  2.386122815960322E-002  2.120998058631397E-002
  1.855873301302472E-002  1.590748543973548E-002  1.325623786644623E-002
  1.060499029315698E-002  7.953742719867740E-003  5.302495146578492E-003
  2.651247573289244E-003  0.000000000000000E+000  2.651247573289247E-002
  2.386122815960322E-002  2.120998058631397E-002  1.855873301302472E-002
  1.590748543973548E-002  1.325623786644623E-002  1.060499029315698E-002
  7.953742719867740E-003  5.302495146578492E-003  2.651247573289244E-003
  0.000000000000000E+000  2.651247573289247E-002  2.386122815960322E-002
  2.120998058631397E-002  1.855873301302472E-002  1.590748543973548E-002
  1.325623786644623E-002  1.060499029315698E-002  7.953742719867740E-003
  5.302495146578492E-003  2.651247573289244E-003  0.000000000000000E+000
  2.651247573289247E-002  2.386122815960322E-002  2.120998058631397E-002
  1.855873301302472E-002  1.590748543973548E-002  1.325623786644623E-002
  1.060499029315698E-002  7.953742719867740E-003  5.302495146578492E-003
  2.651247573289244E-003  0.000000000000000E+000  2.651247573289247E-002
  2.386122815960322E-002  2.120998058631397E-002  1.855873301302472E-002
  1.590748543973548E-002  1.325623786644623E-002  1.060499029315698E-002
  7.953742719867740E-003  5.302495146578492E-003  2.651247573289244E-003
  0.000000000000000E+000  2.651247573289247E-002  2.386122815960322E-002
  2.120998058631397E-002  1.855873301302472E-002  1.590748543973548E-002
  1.325623786644623E-002  1.060499029315698E-002  7.953742719867740E-003
  5.302495146578492E-003  2.651247573289244E-003  0.000000000000000E+000
  2.651247573289247E-002  2.386122815960322E-002  2.120998058631397E-002
  1.855873301302472E-002  1.590748543973548E-002  1.325623786644623E-002
  1.060499029315698E-002  7.953742719867740E-003  5.302495146578492E-003
  2.651247573289244E-003  0.000000000000000E+000  2.651247573289247E-002
  2.386122815960322E-002  2.120998058631397E-002  1.855873301302472E-002
  1.590748543973548E-002  1.325623786644623E-002  1.060499029315698E-002
  7.953742719867740E-003  5.302495146578492E-003  2.651247573289244E-003
  0.000000000000000E+000  2.651247573289247E-002  2.386122815960322E-002
  2.120998058631397E-002  1.855873301302472E-002  1.590748543973548E-002
  1.325623786644623E-002  1.060499029315698E-002  7.953742719867740E-003
  5.302495146578492E-003  2.651247573289244E-003  0.000000000000000E+000
  2.651247573289247E-002  2.386122815960322E-002  2.120998058631397E-002
  1.855873301302472E-002  1.590748543973548E-002  1.325623786644623E-002
  1.060499029315698E-002  7.953742719867740E-003  5.302495146578492E-003
  2.651247573289244E-003  0.000000000000000E+000  2.651247573289247E-002
  2.386122815960322E-002  2.120998058631397E-002  1.855873301302472E-002
  1.590748543973548E-002  1.325623786644623E-002  1.060499029315698E-002
  7.953742719867740E-003  5.302495146578492E-003  2.651247573289244E-003
  0.000000000000000E+000
  1.999191747577131E-002  4.673937771192357E-002  7.767881705021684E-002
  0.108494264759190       0.137902074497026       0.162381729078801     
  0.179041686602606       0.188225479085386       0.190751654654243     
  0.188416318801277       3.244011089530822E-002  7.488136668742222E-002
  0.124168068959802       0.174059795817897       0.222747307455813     
  0.264373395803784       0.293367817368597       0.310029676408828     
  0.315649671309504       0.313507295216504       4.207081089449161E-002
  9.085250014453219E-002  0.148575176760546       0.209113222961370     
  0.270036586268041       0.324821391029755       0.365379470346254     
  0.391206041064999       0.402850382082248       0.402689095243521     
  5.231823165525886E-002  9.963746267444530E-002  0.152599232168471     
  0.210919070538109       0.270444680484698       0.324386816580161     
  0.367614751975323       0.398205764729506       0.414567787282815     
  0.417104349263840       6.776730267359476E-002  0.116042464991285     
  0.163053770652374       0.211062772804933       0.258516683473860     
  0.301098585488246       0.335720680342816       0.361751525330605     
  0.377112581187382       0.381411036146039       9.406986047618793E-002
  0.150349070163061       0.198699227421943       0.243096147899409     
  0.283722005335568       0.319165945129498       0.347688425308069     
  0.368508631200757       0.381976533258188       0.388606554372602     
  0.138846241147108       0.213072704374444       0.271312948329258     
  0.320925814670695       0.363906702190526       0.400569718219783     
  0.430754563440843       0.454350949052855       0.471370824612946     
  0.481456562665772       0.201933950365213       0.303594864745375     
  0.379308623717850       0.441033557045699       0.492868599721555     
  0.536491125664862       0.572588413617222       0.601419323442362     
  0.622900824776409       0.636052137569576       0.279590454524709     
  0.416216464410090       0.515304294286178       0.594210016377655     
  0.659215511583008       0.713188704419378       0.757539072769600     
  0.792891003099776       0.819210382227431       0.835242134631760     
  0.367978097458360       0.544969153302139       0.671503261149560     
  0.770948828497928       0.851937190292529       0.918581958332768     
  0.973034871701401        1.01632968081169        1.04853129080961     
   1.06812406089342       0.464580054785049       0.685990393736345     
  0.842992003094750       0.965484521902060        1.06460125860130     
   1.14573418803585        1.21176798577921        1.26415689661452     
   1.30313696229707        1.32699747913675       0.568076712892405     
  0.837182101865606        1.02698481973209        1.17436604253105     
   1.29311922755763        1.38997968378739        1.46860464206275     
   1.53089638059177        1.57729072149075        1.60591184214231     
  0.677390764928825       0.996771378533056        1.22107108190249     
   1.39456896211549        1.53388886104451        1.64719504788405     
   1.73896589838159        1.81158310983510        1.86570857183961     
   1.89933371854823       0.791410229081614        1.16298996762939     
   1.42292260200091        1.62324233857880        1.78355571050436     
   1.91354285971131        2.01855871998837        2.10151007083289     
   2.16332568148141        2.20191945822541       0.909315673543828     
   1.33452836101451        1.63078331008059        1.85817956141800     
   2.03944295274596        2.18586236801017        2.30374610012892     
   2.39659380756458        2.46567096293083        2.50889886422649     
   1.03213097628093        1.51264081126733        1.84581998440787     
   2.10024784540195        2.30198037683895        2.46406291700984     
   2.59388348872574        2.69565393835106        2.77109445680056     
   2.81828365881633        1.16829986460292        1.70838685926225     
   2.07994875568687        2.36138898682905        2.58276464540982     
   2.75926571339956        2.89959464903029        3.00884540762089     
   3.08935592729141        3.13956425286952        1.34986109445523     
   1.96093075488443        2.37389845636761        2.68264837015625     
   2.92327776120529        3.11372133991881        3.26418402143300     
   3.38074852568093        3.46643878702171        3.52003318465935     
   1.59257370638441        2.29016768989835        2.74876588436518     
   3.08483701453596        3.34302912514785        3.54505084452370     
   3.70323548317830        3.82502346235357        3.91431757245409     
   3.97040190538963        1.75874767444329        2.51217779634181     
   2.99646803581071        3.34331189698491        3.60397303507932     
   3.80410328878986        3.95831729643006        4.07533071763159     
   4.15985140776743        4.21209708750965        1.79771752855939     
   2.54791429384355        3.01807837105614        3.34736573404045     
   3.59027176393477        3.77394523297203        3.91358274985206     
   4.01799119898313        4.09185258959591        4.13605347714486     
   1.69553724299369        2.37391251814485        2.78489844345874     
   3.06588173513320        3.26984204308028        3.42240271438417     
   3.53731742014086        3.62215412466675        3.68061507741198     
   3.71337544297831        1.47031955550970        2.01334681388620     
   2.32998752916795        2.54328215648167        2.69718471536206     
   2.81197914012092        2.89828935500020        2.96190095438577     
   3.00575624249472        3.03070206577172        1.12543392980795     
   1.49261745334971        1.70387857870446        1.84654085413432     
   1.94985227710043        2.02716093597536        2.08551368477256     
   2.12890635691049        2.15993831850097        2.18235844197705     
  0.684365371842248       0.890002967719620        1.00944876952900     
   1.09057202874621        1.14952895410149        1.19375259326880     
   1.22718832080964        1.25205322446415        1.26956404692554     
   1.28006546997223     
  0.000000000000000E+000  0.000000000000000E+000  0.000000000000000E+000
  0.000000000000000E+000  0.000000000000000E+000  0.000000000000000E+000
  0.000000000000000E+000  0.000000000000000E+000  0.000000000000000E+000
  0.000000000000000E+000  0.000000000000000E+000  0.000000000000000E+000
  0.000000000000000E+000  0.000000000000000E+000  0.000000000000000E+000
  0.000000000000000E+000  0.000000000000000E+000  0.000000000000000E+000
  0.000000000000000E+000  0.000000000000000E+000  0.000000000000000E+000
  0.000000000000000E+000  0.000000000000000E+000  0.000000000000000E+000
  0.000000000000000E+000  0.000000000000000E+000  0.000000000000000E+000
  0.000000000000000E+000  0.000000000000000E+000  0.000000000000000E+000
  0.000000000000000E+000  0.000000000000000E+000  0.000000000000000E+000
  0.000000000000000E+000  0.000000000000000E+000  0.000000000000000E+000
  0.000000000000000E+000  0.000000000000000E+000  0.000000000000000E+000
  0.000000000000000E+000  0.000000000000000E+000  0.000000000000000E+000
  0.000000000000000E+000  0.000000000000000E+000  0.000000000000000E+000
  0.000000000000000E+000  0.000000000000000E+000  0.000000000000000E+000
  0.000000000000000E+000  0.000000000000000E+000  0.000000000000000E+000
  0.000000000000000E+000  0.000000000000000E+000  0.000000000000000E+000
  0.000000000000000E+000  0.000000000000000E+000  0.000000000000000E+000
  0.000000000000000E+000  0.000000000000000E+000  0.000000000000000E+000
  0.000000000000000E+000  0.000000000000000E+000  0.000000000000000E+000
  0.000000000000000E+000  0.000000000000000E+000  0.000000000000000E+000
  0.000000000000000E+000  0.000000000000000E+000  0.000000000000000E+000
  0.000000000000000E+000  0.000000000000000E+000  0.000000000000000E+000
  0.000000000000000E+000  0.000000000000000E+000  0.000000000000000E+000
  0.000000000000000E+000  0.000000000000000E+000  0.000000000000000E+000
  0.000000000000000E+000  0.000000000000000E+000  0.000000000000000E+000
  0.000000000000000E+000  0.000000000000000E+000  0.000000000000000E+000
  0.000000000000000E+000  0.000000000000000E+000  0.000000000000000E+000
  0.000000000000000E+000  0.000000000000000E+000  0.000000000000000E+000
  0.000000000000000E+000  0.000000000000000E+000  0.000000000000000E+000
  0.000000000000000E+000  0.000000000000000E+000  0.000000000000000E+000
  0.000000000000000E+000  0.000000000000000E+000  0.000000000000000E+000
  0.000000000000000E+000  0.000000000000000E+000  0.000000000000000E+000
  0.000000000000000E+000  0.000000000000000E+000  0.000000000000000E+000
  0.000000000000000E+000  0.000000000000000E+000  0.000000000000000E+000
  0.000000000000000E+000  0.000000000000000E+000  0.000000000000000E+000
  0.000000000000000E+000  0.000000000000000E+000  0.000000000000000E+000
  0.000000000000000E+000  0.000000000000000E+000  0.000000000000000E+000