 Title = "Wing and Wake"
 VARIABLES = "X" "Y" "Z" "GAM" "skew"
 Zone I=   11 J=   26 K=1  T="Blade"
 DATAPACKING=BLOCK
 VARLOCATION=([4]=CELLCENTERED,[5]=CELLCENTERED)
 -9.361367049251124E-002 -0.101541772537447      -0.109469874582383     
 -0.117397976627319      -0.125326078672254      -0.133254180717190     
 -0.141182282762126      -0.149110384807062      -0.157038486851998     
 -0.164966588896933      -0.172894690941870      -9.702116835835466E-002
 -0.104949270403290      -0.112877372448226      -0.120805474493162     
 -0.128733576538098      -0.136661678583034      -0.144589780627969     
 -0.152517882672905      -0.160445984717841      -0.168374086762777     
 -0.176302188807713      -0.107189923678999      -0.115118025723934     
 -0.123046127768870      -0.130974229813806      -0.138902331858742     
 -0.146830433903678      -0.154758535948613      -0.162686637993550     
 -0.170614740038485      -0.178542842083421      -0.186470944128357     
 -0.123959569108518      -0.131887671153454      -0.139815773198390     
 -0.147743875243325      -0.155671977288261      -0.163600079333197     
 -0.171528181378133      -0.179456283423069      -0.187384385468005     
 -0.195312487512940      -0.203240589557876      -0.147065637320788     
 -0.154993739365724      -0.162921841410660      -0.170849943455595     
 -0.178778045500531      -0.186706147545467      -0.194634249590403     
 -0.202562351635339      -0.210490453680274      -0.218418555725210     
 -0.226346657770146      -0.176143731817205      -0.184071833862141     
 -0.191999935907076      -0.199928037952012      -0.207856139996948     
 -0.215784242041884      -0.223712344086819      -0.231640446131756     
 -0.239568548176691      -0.247496650221627      -0.255424752266563     
 -0.210735273677149      -0.218663375722085      -0.226591477767020     
 -0.234519579811956      -0.242447681856892      -0.250375783901827     
 -0.258303885946763      -0.266231987991700      -0.274160090036635     
 -0.282088192081571      -0.290016294126506      -0.250294733621502     
 -0.258222835666438      -0.266150937711375      -0.274079039756310     
 -0.282007141801246      -0.289935243846182      -0.297863345891118     
 -0.305791447936053      -0.313719549980989      -0.321647652025925     
 -0.329575754070861      -0.294198235335268      -0.302126337380205     
 -0.310054439425140      -0.317982541470076      -0.325910643515012     
 -0.333838745559947      -0.341766847604883      -0.349694949649819     
 -0.357623051694754      -0.365551153739691      -0.373479255784627     
 -0.341753394369739      -0.349681496414674      -0.357609598459611     
 -0.365537700504546      -0.373465802549482      -0.381393904594418     
 -0.389322006639354      -0.397250108684290      -0.405178210729225     
 -0.413106312774161      -0.421034414819097      -0.392210237458866     
 -0.400138339503803      -0.408066441548738      -0.415994543593673     
 -0.423922645638610      -0.431850747683545      -0.439778849728481     
 -0.447706951773417      -0.455635053818354      -0.463563155863289     
 -0.471491257908224      -0.444773030045677      -0.452701132090612     
 -0.460629234135549      -0.468557336180484      -0.476485438225420     
 -0.484413540270356      -0.492341642315291      -0.500269744360228     
 -0.508197846405164      -0.516125948450100      -0.524054050495035     
 -0.498612825491587      -0.506540927536523      -0.514469029581459     
 -0.522397131626395      -0.530325233671330      -0.538253335716266     
 -0.546181437761203      -0.554109539806138      -0.562037641851074     
 -0.569965743896009      -0.577893845940946      -0.552880538060081     
 -0.560808640105017      -0.568736742149952      -0.576664844194888     
 -0.584592946239824      -0.592521048284759      -0.600449150329695     
 -0.608377252374630      -0.616305354419566      -0.624233456464502     
 -0.632161558509439      -0.606720333505990      -0.614648435550927     
 -0.622576537595862      -0.630504639640799      -0.638432741685734     
 -0.646360843730670      -0.654288945775606      -0.662217047820540     
 -0.670145149865478      -0.678073251910414      -0.686001353955349     
 -0.659283126092800      -0.667211228137737      -0.675139330182672     
 -0.683067432227609      -0.690995534272546      -0.698923636317480     
 -0.706851738362416      -0.714779840407352      -0.722707942452286     
 -0.730636044497224      -0.738564146542160      -0.709739969181929     
 -0.717668071226863      -0.725596173271800      -0.733524275316736     
 -0.741452377361672      -0.749380479406606      -0.757308581451542     
 -0.765236683496479      -0.773164785541415      -0.781092887586351     
 -0.789020989631287      -0.757295128216398      -0.765223230261335     
 -0.773151332306269      -0.781079434351208      -0.789007536396142     
 -0.796935638441078      -0.804863740486014      -0.812791842530950     
 -0.820719944575886      -0.828648046620821      -0.836576148665757     
 -0.801198629930166      -0.809126731975101      -0.817054834020036     
 -0.824982936064972      -0.832911038109908      -0.840839140154843     
 -0.848767242199779      -0.856695344244716      -0.864623446289652     
 -0.872551548334586      -0.880479650379522      -0.840758089874519     
 -0.848686191919455      -0.856614293964389      -0.864542396009326     
 -0.872470498054262      -0.880398600099197      -0.888326702144133     
 -0.896254804189070      -0.904182906234006      -0.912111008278941     
 -0.920039110323876      -0.875349631734461      -0.883277733779398     
 -0.891205835824333      -0.899133937869270      -0.907062039914207     
 -0.914990141959141      -0.922918244004079      -0.930846346049013     
 -0.938774448093950      -0.946702550138885      -0.954630652183819     
 -0.904427726230880      -0.912355828275817      -0.920283930320752     
 -0.928212032365688      -0.936140134410622      -0.944068236455557     
 -0.951996338500494      -0.959924440545429      -0.967852542590365     
 -0.975780644635301      -0.983708746680239      -0.927533794443150     
 -0.935461896488086      -0.943389998533022      -0.951318100577955     
 -0.959246202622893      -0.967174304667827      -0.975102406712762     
 -0.983030508757699      -0.990958610802636      -0.998886712847574     
  -1.00681481489251      -0.944303439872669      -0.952231541917604     
 -0.960159643962541      -0.968087746007476      -0.976015848052412     
 -0.983943950097348      -0.991872052142283      -0.999800154187221     
  -1.00772825623216       -1.01565635827709       -1.02358446032203     
 -0.954472195193314      -0.962400297238248      -0.970328399283183     
 -0.978256501328120      -0.986184603373058      -0.994112705417991     
  -1.00204080746293       -1.00996890950786       -1.01789701155280     
  -1.02582511359774       -1.03375321564267      -0.957879693059158     
 -0.965807795104092      -0.973735897149028      -0.981663999193964     
 -0.989592101238900      -0.997520203283833       -1.00544830532877     
  -1.01337640737371       -1.02130450941864       -1.02923261146358     
  -1.03716071350852     
 -0.251254028582711      -0.234136242970366      -0.217018457358020     
 -0.199900671745675      -0.182782886133330      -0.165665100520985     
 -0.148547314908640      -0.131429529296295      -0.114311743683950     
 -9.719395807160489E-002 -8.007617245925971E-002 -0.252832211147331     
 -0.235714425534986      -0.218596639922640      -0.201478854310295     
 -0.184361068697950      -0.167243283085605      -0.150125497473260     
 -0.133007711860915      -0.115889926248570      -9.877214063622496E-002
 -8.165435502387955E-002 -0.257541869959386      -0.240424084347041     
 -0.223306298734695      -0.206188513122350      -0.189070727510005     
 -0.171952941897660      -0.154835156285315      -0.137717370672970     
 -0.120599585060625      -0.103481799448280      -8.636401383593491E-002
 -0.265308730885997      -0.248190945273651      -0.231073159661306     
 -0.213955374048961      -0.196837588436616      -0.179719802824271     
 -0.162602017211926      -0.145484231599581      -0.128366445987236     
 -0.111248660374891      -9.413087476254554E-002 -0.276010305890652     
 -0.258892520278307      -0.241774734665961      -0.224656949053616     
 -0.207539163441272      -0.190421377828926      -0.173303592216581     
 -0.156185806604236      -0.139068020991891      -0.121950235379546     
 -0.104832449767201      -0.289477824742718      -0.272360039130373     
 -0.255242253518027      -0.238124467905682      -0.221006682293337     
 -0.203888896680992      -0.186771111068647      -0.169653325456302     
 -0.152535539843957      -0.135417754231612      -0.118299968619267     
 -0.305498896624791      -0.288381111012446      -0.271263325400102     
 -0.254145539787756      -0.237027754175411      -0.219909968563066     
 -0.202792182950721      -0.185674397338375      -0.168556611726030     
 -0.151438826113685      -0.134321040501340      -0.323820859662767     
 -0.306703074050423      -0.289585288438077      -0.272467502825732     
 -0.255349717213387      -0.238231931601042      -0.221114145988696     
 -0.203996360376352      -0.186878574764006      -0.169760789151662     
 -0.152643003539317      -0.344154765554528      -0.327036979942183     
 -0.309919194329837      -0.292801408717493      -0.275683623105147     
 -0.258565837492802      -0.241448051880457      -0.224330266268112     
 -0.207212480655767      -0.190094695043422      -0.172976909431077     
 -0.366179936457271      -0.349062150844926      -0.331944365232581     
 -0.314826579620236      -0.297708794007891      -0.280591008395546     
 -0.263473222783201      -0.246355437170856      -0.229237651558510     
 -0.212119865946166      -0.195002080333821      -0.389549022268664     
 -0.372431236656320      -0.355313451043974      -0.338195665431629     
 -0.321077879819284      -0.303960094206939      -0.286842308594593     
 -0.269724522982249      -0.252606737369904      -0.235488951757559     
 -0.218371166145213      -0.413893478545445      -0.396775692933098     
 -0.379657907320754      -0.362540121708409      -0.345422336096063     
 -0.328304550483719      -0.311186764871373      -0.294068979259029     
 -0.276951193646684      -0.259833408034339      -0.242715622421994     
 -0.438829378669454      -0.421711593057109      -0.404593807444763     
 -0.387476021832420      -0.370358236220073      -0.353240450607729     
 -0.336122664995383      -0.319004879383039      -0.301887093770693     
 -0.284769308158349      -0.267651522546003      -0.463963468599753     
 -0.446845682987408      -0.429727897375062      -0.412610111762717     
 -0.395492326150373      -0.378374540538027      -0.361256754925682     
 -0.344138969313338      -0.327021183700992      -0.309903398088646     
 -0.292785612476302      -0.488899368723763      -0.471781583111418     
 -0.454663797499073      -0.437546011886728      -0.420428226274383     
 -0.403310440662038      -0.386192655049692      -0.369074869437347     
 -0.351957083825003      -0.334839298212658      -0.317721512600312     
 -0.513243825000542      -0.496126039388197      -0.479008253775852     
 -0.461890468163507      -0.444772682551163      -0.427654896938817     
 -0.410537111326472      -0.393419325714127      -0.376301540101782     
 -0.359183754489437      -0.342065968877092      -0.536612910811935     
 -0.519495125199590      -0.502377339587245      -0.485259553974901     
 -0.468141768362555      -0.451023982750210      -0.433906197137864     
 -0.416788411525520      -0.399670625913174      -0.382552840300830     
 -0.365435054688485      -0.558638081714680      -0.541520296102334     
 -0.524402510489988      -0.507284724877644      -0.490166939265298     
 -0.473049153652954      -0.455931368040608      -0.438813582428264     
 -0.421695796815918      -0.404578011203573      -0.387460225591229     
 -0.578971987606439      -0.561854201994095      -0.544736416381748     
 -0.527618630769403      -0.510500845157060      -0.493383059544713     
 -0.476265273932368      -0.459147488320024      -0.442029702707679     
 -0.424911917095333      -0.407794131482989      -0.597293950644417     
 -0.580176165032070      -0.563058379419725      -0.545940593807381     
 -0.528822808195036      -0.511705022582690      -0.494587236970345     
 -0.477469451358000      -0.460351665745655      -0.443233880133311     
 -0.426116094520965      -0.613315022526488      -0.596197236914144     
 -0.579079451301799      -0.561961665689454      -0.544843880077108     
 -0.527726094464763      -0.510608308852420      -0.493490523240074     
 -0.476372737627729      -0.459254952015383      -0.442137166403038     
 -0.626782541378554      -0.609664755766212      -0.592546970153865     
 -0.575429184541520      -0.558311398929175      -0.541193613316829     
 -0.524075827704484      -0.506958042092139      -0.489840256479793     
 -0.472722470867450      -0.455604685255103      -0.637484116383213     
 -0.620366330770865      -0.603248545158521      -0.586130759546175     
 -0.569012973933830      -0.551895188321485      -0.534777402709138     
 -0.517659617096795      -0.500541831484449      -0.483424045872105     
 -0.466306260259759      -0.645250977309822      -0.628133191697478     
 -0.611015406085131      -0.593897620472786      -0.576779834860440     
 -0.559662049248095      -0.542544263635751      -0.525426478023406     
 -0.508308692411061      -0.491190906798714      -0.474073121186369     
 -0.649960636121876      -0.632842850509532      -0.615725064897186     
 -0.598607279284840      -0.581489493672495      -0.564371708060151     
 -0.547253922447805      -0.530136136835460      -0.513018351223115     
 -0.495900565610770      -0.478782779998425      -0.651538818686496     
 -0.634421033074152      -0.617303247461806      -0.600185461849462     
 -0.583067676237116      -0.565949890624771      -0.548832105012425     
 -0.531714319400080      -0.514596533787736      -0.497478748175390     
 -0.480360962563045     
  2.651247573289247E-002  2.386122815960322E-002  2.120998058631397E-002
  1.855873301302472E-002  1.590748543973548E-002  1.325623786644623E-002
  1.060499029315698E-002  7.953742719867740E-003  5.302495146578492E-003
  2.651247573289244E-003  0.000000000000000E+000  2.651247573289247E-002
  2.386122815960322E-002  2.120998058631397E-002  1.855873301302472E-002
  1.590748543973548E-002  1.325623786644623E-002  1.060499029315698E-002
  7.953742719867740E-003  5.302495146578492E-003  2.651247573289244E-003
  0.000000000000000E+000  2.651247573289247E-002  2.386122815960322E-002
  2.120998058631397E-002  1.855873301302472E-002  1.590748543973548E-002
  1.325623786644623E-002  1.060499029315698E-002  7.953742719867740E-003
  5.302495146578492E-003  2.651247573289244E-003  0.000000000000000E+000
  2.651247573289247E-002  2.386122815960322E-002  2.120998058631397E-002
  1.855873301302472E-002  1.590748543973548E-002  1.325623786644623E-002
  1.060499029315698E-002  7.953742719867740E-003  5.302495146578492E-003
  2.651247573289244E-003  0.000000000000000E+000  2.651247573289247E-002
  2.386122815960322E-002  2.120998058631397E-002  1.855873301302472E-002
  1.590748543973548E-002  1.325623786644623E-002  1.060499029315698E-002
  7.953742719867740E-003  5.302495146578492E-003  2.651247573289244E-003
  0.000000000000000E+000  2.651247573289247E-002  2.386122815960322E-002
  2.120998058631397E-002  1.855873301302472E-002  1.590748543973548E-002
  1.325623786644623E-002  1.060499029315698E-002  7.953742719867740E-003
  5.302495146578492E-003  2.651247573289244E-003  0.000000000000000E+000
  2.651247573289247E-002  2.386122815960322E-002  2.120998058631397E-002
  1.855873301302472E-002  1.590748543973548E-002  1.325623786644623E-002
  1.060499029315698E-002  7.953742719867740E-003  5.302495146578492E-003
  2.651247573289244E-003  0.000000000000000E+000  2.651247573289247E-002
  2.386122815960322E-002  2.120998058631397E-002  1.855873301302472E-002
  1.590748543973548E-002  1.325623786644623E-002  1.060499029315698E-002
  7.953742719867740E-003  5.302495146578492E-003  2.651247573289244E-003
  0.000000000000000E+000  2.651247573289247E-002  2.386122815960322E-002
  2.120998058631397E-002  1.855873301302472E-002  1.590748543973548E-002
  1.325623786644623E-002  1.060499029315698E-002  7.953742719867740E-003
  5.302495146578492E-003  2.651247573289244E-003  0.000000000000000E+000
  2.651247573289247E-002  2.386122815960322E-002  2.120998058631397E-002
  1.855873301302472E-002  1.590748543973548E-002  1.325623786644623E-002
  1.060499029315698E-002  7.953742719867740E-003  5.302495146578492E-003
  2.651247573289244E-003  0.000000000000000E+000  2.651247573289247E-002
  2.386122815960322E-002  2.120998058631397E-002  1.855873301302472E-002
  1.590748543973548E-002  1.325623786644623E-002  1.060499029315698E-002
  7.953742719867740E-003  5.302495146578492E-003  2.651247573289244E-003
  0.000000000000000E+000  2.651247573289247E-002  2.386122815960322E-002
  2.120998058631397E-002  1.855873301302472E-002  1.590748543973548E-002
  1.325623786644623E-002  1.060499029315698E-002  7.953742719867740E-003
  5.302495146578492E-003  2.651247573289244E-003  0.000000000000000E+000
  2.651247573289247E-002  2.386122815960322E-002  2.120998058631397E-002
  1.855873301302472E-002  1.590748543973548E-002  1.325623786644623E-002
  1.060499029315698E-002  7.953742719867740E-003  5.302495146578492E-003
  2.651247573289244E-003  0.000000000000000E+000  2.651247573289247E-002
  2.386122815960322E-002  2.120998058631397E-002  1.855873301302472E-002
  1.590748543973548E-002  1.325623786644623E-002  1.060499029315698E-002
  7.953742719867740E-003  5.302495146578492E-003  2.651247573289244E-003
  0.000000000000000E+000  2.651247573289247E-002  2.386122815960322E-002
  2.120998058631397E-002  1.855873301302472E-002  1.590748543973548E-002
  1.325623786644623E-002  1.060499029315698E-002  7.953742719867740E-003
  5.302495146578492E-003  2.651247573289244E-003  0.000000000000000E+000
  2.651247573289247E-002  2.386122815960322E-002  2.120998058631397E-002
  1.855873301302472E-002  1.590748543973548E-002  1.325623786644623E-002
  1.060499029315698E-002  7.953742719867740E-003  5.302495146578492E-003
  2.651247573289244E-003  0.000000000000000E+000  2.651247573289247E-002
  2.386122815960322E-002  2.120998058631397E-002  1.855873301302472E-002
  1.590748543973548E-002  1.325623786644623E-002  1.060499029315698E-002
  7.953742719867740E-003  5.302495146578492E-003  2.651247573289244E-003
  0.000000000000000E+000  2.651247573289247E-002  2.386122815960322E-002
  2.120998058631397E-002  1.855873301302472E-002  1.590748543973548E-002
  1.325623786644623E-002  1.060499029315698E-002  7.953742719867740E-003
  5.302495146578492E-003  2.651247573289244E-003  0.000000000000000E+000
  2.651247573289247E-002  2.386122815960322E-002  2.120998058631397E-002
  1.855873301302472E-002  1.590748543973548E-002  1.325623786644623E-002
  1.060499029315698E-002  7.953742719867740E-003  5.302495146578492E-003
  2.651247573289244E-003  0.000000000000000E+000  2.651247573289247E-002
  2.386122815960322E-002  2.120998058631397E-002  1.855873301302472E-002
  1.590748543973548E-002  1.325623786644623E-002  1.060499029315698E-002
  7.953742719867740E-003  5.302495146578492E-003  2.651247573289244E-003
  0.000000000000000E+000  2.651247573289247E-002  2.386122815960322E-002
  2.120998058631397E-002  1.855873301302472E-002  1.590748543973548E-002
  1.325623786644623E-002  1.060499029315698E-002  7.953742719867740E-003
  5.302495146578492E-003  2.651247573289244E-003  0.000000000000000E+000
  2.651247573289247E-002  2.386122815960322E-002  2.120998058631397E-002
  1.855873301302472E-002  1.590748543973548E-002  1.325623786644623E-002
  1.060499029315698E-002  7.953742719867740E-003  5.302495146578492E-003
  2.651247573289244E-003  0.000000000000000E+000  2.651247573289247E-002
  2.386122815960322E-002  2.120998058631397E-002  1.855873301302472E-002
  1.590748543973548E-002  1.325623786644623E-002  1.060499029315698E-002
  7.953742719867740E-003  5.302495146578492E-003  2.651247573289244E-003
  0.000000000000000E+000  2.651247573289247E-002  2.386122815960322E-002
  2.120998058631397E-002  1.855873301302472E-002  1.590748543973548E-002
  1.325623786644623E-002  1.060499029315698E-002  7.953742719867740E-003
  5.302495146578492E-003  2.651247573289244E-003  0.000000000000000E+000
  2.651247573289247E-002  2.386122815960322E-002  2.120998058631397E-002
  1.855873301302472E-002  1.590748543973548E-002  1.325623786644623E-002
  1.060499029315698E-002  7.953742719867740E-003  5.302495146578492E-003
  2.651247573289244E-003  0.000000000000000E+000  2.651247573289247E-002
  2.386122815960322E-002  2.120998058631397E-002  1.855873301302472E-002
  1.590748543973548E-002  1.325623786644623E-002  1.060499029315698E-002
  7.953742719867740E-003  5.302495146578492E-003  2.651247573289244E-003
  0.000000000000000E+000
  5.200629573481742E-002  0.116798827138462       0.187901553621570     
  0.244672746559300       0.278750905963633       0.297637872353182     
  0.308510463860065       0.318058690747995       0.326002432356583     
  0.330656711798560       8.937541963689509E-002  0.196732554232149     
  0.313848288534121       0.408612363509051       0.467447882134532     
  0.500934923472203       0.519681345446662       0.535154375926940     
  0.547537774897602       0.555660473466290       0.128270984079940     
  0.268789984269575       0.419783974208495       0.545500480837685     
  0.628616959207986       0.678536208692297       0.705345681313019     
  0.723633929576506       0.735469780203562       0.739831868970093     
  0.167574439807999       0.327194898771220       0.493487070229120     
  0.635342107407662       0.735330883881898       0.797465341881738     
  0.827083177230053       0.841656916245762       0.844907349540329     
  0.836394734002648       0.204534463103032       0.372877582217929     
  0.539023537405744       0.683477020254773       0.788449230637973     
  0.849524044678835       0.872973766895076       0.874381444535721     
  0.859719903906288       0.831367960387410       0.234375249884805     
  0.399750910091942       0.551999651659980       0.678574631066238     
  0.767280595532869       0.816611969257568       0.831683081402374     
  0.821048212675562       0.792338171491541       0.752653470056487     
  0.258676362168117       0.415284625427687       0.544281174072547     
  0.645393628976915       0.711074332794888       0.743691603496620     
  0.751337483494852       0.742366830100566       0.723111512034635     
  0.698534355583366       0.292443088776191       0.447238212722056     
  0.562216727787043       0.648102361087500       0.704868675771866     
  0.740067094250540       0.760545447858124       0.772184274493663     
  0.778392758624969       0.778703078358221       0.348732896828741     
  0.521933058559807       0.645394473273342       0.738252378456526     
  0.808590010885570       0.862776741946007       0.905596431737469     
  0.939386910101785       0.964190403293163       0.977754701427555     
  0.422673877440288       0.628194039273911       0.775291219916951     
  0.890089466430884       0.982595422334445        1.05799115170048     
   1.11915488361586        1.16743181545614        1.20278995714865     
   1.22321183932491       0.512679060014868       0.759257039366681     
  0.935367586951456        1.07352089220276        1.18575609997345     
   1.27787483692619        1.35293850168512        1.41240432672195     
   1.45633488788554        1.48256296829358       0.610808189934310     
  0.902229018675703        1.10916212602707        1.27084907274630     
   1.40186291628105        1.50924979865351        1.59676569155051     
   1.66625577411878        1.71793009935723        1.74944695387563     
  0.714527339918970        1.05311857965414        1.29210082974297     
   1.47785777055554        1.62771388609413        1.75010847827125     
   1.84960326845319        1.92853366918327        1.98737529167143     
   2.02372379096608       0.822860776647722        1.21049910994914     
   1.48257709310628        1.69295365597942        1.86185719630642     
   1.99921622162830        2.11046202799787        2.19847317502407     
   2.26405161454086        2.30482541229590       0.935413717737952     
   1.37372128779296        1.67972696518893        1.91508607367038     
   2.10306390347146        2.25517329160698        2.37779899717424     
   2.47442974982593        2.54624649846335        2.59098002983222     
   1.05355578970720        1.54451987227733        1.88528387471529     
   2.14575816287378        2.35247292992979        2.51868047936743     
   2.65185078064983        2.75620076921314        2.83340001990827     
   2.88141519793033        1.18553545909175        1.73359484349256     
   2.11067274217038        2.39631434822086        2.62098920941420     
   2.80007749833732        2.94237242642309        3.05299681424972     
   3.13427109947653        3.18458791350949        1.36005985630182     
   1.97589656445618        2.39202895557883        2.70286621317904     
   2.94474675773866        3.13580976676555        3.28638643241284     
   3.40261289523164        3.48752891549350        3.53997320651752     
   1.58903507935213        2.28604763185291        2.74451521873011     
   3.08015408033613        3.33748386915233        3.53834479254279     
   3.69513685109675        3.81530796071857        3.90275406298712     
   3.95683150880639        1.74633947148489        2.49537943526535     
   2.97706965327641        3.32183563647142        3.58060957146324     
   3.77894853317102        3.93139030714700        4.04658085241004     
   4.12917599554573        4.17943048092132        1.77977190710729     
   2.52339700156872        2.98972219242211        3.31620745239839     
   3.55684619414977        3.73860390861016        3.87654715784068     
   3.97937822616345        4.05169466695894        4.09434819862141     
   1.67757211581627        2.34913641505845        2.75615848248052     
   3.03444237270778        3.23637291398165        3.38730634295628     
   3.50085081989100        3.58448012850532        3.64182650484803     
   3.67352501653207        1.45511253280467        1.99257840856949     
   2.30603456620294        2.51720222739288        2.66955057270646     
   2.78313704191121        2.86846064500813        2.93122718698461     
   2.97432151888299        2.99855890753365        1.11410344780279     
   1.47753086728451        1.68664747915231        1.82787165835822     
   1.93013400035599        2.00663202238728        2.06432762579099     
   2.10716072784820        2.13768548900699        2.15959493175845     
  0.677552257380650       0.881087059637749       0.999318167229864     
   1.07962177408221        1.13797915672856        1.18173933608630     
   1.21479996080348        1.23934697017228        1.25657462624456     
   1.26681593674478     
  0.000000000000000E+000  0.000000000000000E+000  0.000000000000000E+000
  0.000000000000000E+000  0.000000000000000E+000  0.000000000000000E+000
  0.000000000000000E+000  0.000000000000000E+000  0.000000000000000E+000
  0.000000000000000E+000  0.000000000000000E+000  0.000000000000000E+000
  0.000000000000000E+000  0.000000000000000E+000  0.000000000000000E+000
  0.000000000000000E+000  0.000000000000000E+000  0.000000000000000E+000
  0.000000000000000E+000  0.000000000000000E+000  0.000000000000000E+000
  0.000000000000000E+000  0.000000000000000E+000  0.000000000000000E+000
  0.000000000000000E+000  0.000000000000000E+000  0.000000000000000E+000
  0.000000000000000E+000  0.000000000000000E+000  0.000000000000000E+000
  0.000000000000000E+000  0.000000000000000E+000  0.000000000000000E+000
  0.000000000000000E+000  0.000000000000000E+000  0.000000000000000E+000
  0.000000000000000E+000  0.000000000000000E+000  0.000000000000000E+000
  0.000000000000000E+000  0.000000000000000E+000  0.000000000000000E+000
  0.000000000000000E+000  0.000000000000000E+000  0.000000000000000E+000
  0.000000000000000E+000  0.000000000000000E+000  0.000000000000000E+000
  0.000000000000000E+000  0.000000000000000E+000  0.000000000000000E+000
  0.000000000000000E+000  0.000000000000000E+000  0.000000000000000E+000
  0.000000000000000E+000  0.000000000000000E+000  0.000000000000000E+000
  0.000000000000000E+000  0.000000000000000E+000  0.000000000000000E+000
  0.000000000000000E+000  0.000000000000000E+000  0.000000000000000E+000
  0.000000000000000E+000  0.000000000000000E+000  0.000000000000000E+000
  0.000000000000000E+000  0.000000000000000E+000  0.000000000000000E+000
  0.000000000000000E+000  0.000000000000000E+000  0.000000000000000E+000
  0.000000000000000E+000  0.000000000000000E+000  0.000000000000000E+000
  0.000000000000000E+000  0.000000000000000E+000  0.000000000000000E+000
  0.000000000000000E+000  0.000000000000000E+000  0.000000000000000E+000
  0.000000000000000E+000  0.000000000000000E+000  0.000000000000000E+000
  0.000000000000000E+000  0.000000000000000E+000  0.000000000000000E+000
  0.000000000000000E+000  0.000000000000000E+000  0.000000000000000E+000
  0.000000000000000E+000  0.000000000000000E+000  0.000000000000000E+000
  0.000000000000000E+000  0.000000000000000E+000  0.000000000000000E+000
  0.000000000000000E+000  0.000000000000000E+000  0.000000000000000E+000
  0.000000000000000E+000  0.000000000000000E+000  0.000000000000000E+000
  0.000000000000000E+000  0.000000000000000E+000  0.000000000000000E+000
  0.000000000000000E+000  0.000000000000000E+000  0.000000000000000E+000
  0.000000000000000E+000  0.000000000000000E+000  0.000000000000000E+000
  0.000000000000000E+000  0.000000000000000E+000  0.000000000000000E+000
  0.000000000000000E+000  0.000000000000000E+000  0.000000000000000E+000