 Title = "Wing and Wake"
 VARIABLES = "X" "Y" "Z" "GAM" "skew"
 Zone I=   11 J=   26 K=1  T="Blade"
 DATAPACKING=BLOCK
 VARLOCATION=([4]=CELLCENTERED,[5]=CELLCENTERED)
 -0.170766301307722      -0.151977970706907      -0.133189640106092     
 -0.114401309505277      -9.561297890446153E-002 -7.682464830364653E-002
 -5.803631770283127E-002 -3.924798710201608E-002 -2.045965650120101E-002
 -1.671325900386127E-003  1.711700470042914E-002 -0.170428950538484     
 -0.151640619937669      -0.132852289336854      -0.114063958736039     
 -9.527562813522389E-002 -7.648729753440893E-002 -5.769896693359368E-002
 -3.891063633277866E-002 -2.012230573196341E-002 -1.333975131148430E-003
  1.745435546966677E-002 -0.169422218453926      -0.150633887853111     
 -0.131845557252296      -0.113057226651481      -9.426889605066557E-002
 -7.548056544985039E-002 -5.669223484903541E-002 -3.790390424822029E-002
 -1.911557364740520E-002 -3.272430465900391E-004  1.846108755422503E-002
 -0.167761981820413      -0.148973651219598      -0.130185320618783     
 -0.111396990017968      -9.260865941715263E-002 -7.382032881633743E-002
 -5.503199821552240E-002 -3.624366761470733E-002 -1.745533701389200E-002
  1.332993586922883E-003  2.012132418773796E-002 -0.165474423561433     
 -0.146686092960618      -0.127897762359803      -0.109109431758988     
 -9.032110115817259E-002 -7.153277055735736E-002 -5.274443995654229E-002
 -3.395610935572727E-002 -1.516777875491221E-002  3.620551845902878E-003
  2.240888244671800E-002 -0.162595619837252      -0.143807289236436     
 -0.125018958635621      -0.106230628034806      -8.744229743399091E-002
 -6.865396683317593E-002 -4.986563623236053E-002 -3.107730563154560E-002
 -1.228897503073056E-002  6.499355570084582E-003  2.528768617089987E-002
 -0.159170971102312      -0.140382640501497      -0.121594309900682     
 -0.102805979299867      -8.401764869905175E-002 -6.522931809823709E-002
 -4.644098749742180E-002 -2.765265689660647E-002 -8.864326295791281E-003
  9.924004305023564E-003  2.871233490583862E-002 -0.155254486112952     
 -0.136466155512137      -0.117677824911321      -9.888949431050663E-002
 -8.010116370969157E-002 -6.131283310887628E-002 -4.252450250806086E-002
 -2.373617190724602E-002 -4.947841306431037E-003  1.384048929438401E-002
  3.262881989519929E-002 -0.150907930177047      -0.132119599576232     
 -0.113331268975417      -9.454293837460188E-002 -7.575460777378616E-002
 -5.696627717297153E-002 -3.817794657215628E-002 -1.938961597134110E-002
 -6.012853705264792E-004  1.818704523028911E-002  3.697537583110378E-002
 -0.146199851078214      -0.127411520477398      -0.108623189876583     
 -8.983485927576848E-002 -7.104652867495306E-002 -5.225819807413792E-002
 -3.346986747332295E-002 -1.468153687250770E-002  4.106793728307578E-003
  2.289512432912217E-002  4.168345492993742E-002 -0.141204498036310     
 -0.122416167435495      -0.103627836834680      -8.483950623386505E-002
 -6.605117563304970E-002 -4.726284503223471E-002 -2.847451443141944E-002
 -9.686183830604539E-003  9.102146770210696E-003  2.789047737102562E-002
  4.667880797184060E-002 -0.136000650752887      -0.117212320152071     
 -9.842398955125642E-002 -7.963565895044226E-002 -6.084732834962675E-002
 -4.205899774881146E-002 -2.327066714799620E-002 -4.482336547181570E-003
  1.430599405363355E-002  3.309432465444890E-002  5.188265525526371E-002
 -0.130670377008231      -0.111882046407417      -9.309371580660117E-002
 -7.430538520578690E-002 -5.551705460497119E-002 -3.672872400415621E-002
 -1.794039340334086E-002  8.479371974741262E-004  1.963626779828914E-002
  3.842459839910376E-002  5.721292899991983E-002 -0.125297738403448     
 -0.106509407802633      -8.772107720181764E-002 -6.893274660100258E-002
 -5.014441600018746E-002 -3.135608539937250E-002 -1.256775479855721E-002
  6.220575802257080E-003  2.500890640307332E-002  4.379723700388844E-002
  6.258556760470334E-002 -0.119967464658793      -0.101179134057977     
 -8.239080345716222E-002 -6.360247285634688E-002 -4.481414225553267E-002
 -2.602581165471705E-002 -7.237481053901458E-003  1.155084954691303E-002
  3.033918014772846E-002  4.912751074854325E-002  6.791584134935905E-002
 -0.114763617375369      -9.597528677455382E-002 -7.718695617373959E-002
 -5.839862557292364E-002 -3.961029497210915E-002 -2.082196437129375E-002
 -2.033633770478101E-003  1.675469683033616E-002  3.554302743115106E-002
  5.433135803196655E-002  7.311968863278193E-002 -0.109768264333465     
 -9.097993373265113E-002 -7.219160313183595E-002 -5.340327253102088E-002
 -3.461494193020551E-002 -1.582661132939086E-002  2.961719271424818E-003
  2.175004987223939E-002  4.053838047305532E-002  5.932671107386991E-002
  7.811504167468498E-002 -0.105060185234632      -8.627185463381734E-002
 -6.748352403300241E-002 -4.869519343218665E-002 -2.990686283137166E-002
 -1.111853223055670E-002  7.669798370258503E-003  2.645812897107357E-002
  4.524645957188922E-002  6.403479017270440E-002  8.282312077351836E-002
 -0.100713629298727      -8.192529869791285E-002 -6.313696809709725E-002
 -4.434863749628166E-002 -2.556030689546739E-002 -6.771976294651802E-003
  1.201635430616363E-002  3.080468490697817E-002  4.959301550779327E-002
  6.838134610860801E-002  8.716967670942323E-002 -9.679714430936738E-002
 -7.800881370855198E-002 -5.922048310773775E-002 -4.043215250692187E-002
 -2.164382190610689E-002 -2.855491305291736E-003  1.593283929552353E-002
  3.472116989633835E-002  5.350950049715356E-002  7.229783109796785E-002
  9.108616169878393E-002 -9.337249557442838E-002 -7.458416497361273E-002
 -5.579583437279839E-002 -3.700750377198304E-002 -1.821917317116686E-002
  5.691574296477326E-004  1.935748803046253E-002  3.814581863127721E-002
  5.693414923209261E-002  7.572247983290861E-002  9.451081043372279E-002
 -9.049369185024607E-002 -7.170536124943158E-002 -5.291703064861560E-002
 -3.412870004780125E-002 -1.534036944698691E-002  3.447961153829272E-003
  2.223629175464401E-002  4.102462235545941E-002  5.981295295627480E-002
  7.860128355708933E-002  9.738961415790562E-002 -8.820613359126754E-002
 -6.941780299045094E-002 -5.062947238963577E-002 -3.184114178882146E-002
 -1.305281118800633E-002  5.735519412809067E-003  2.452385001362497E-002
  4.331218061443904E-002  6.210051121525478E-002  8.088884181607013E-002
  9.967717241688502E-002 -8.654589695775365E-002 -6.775756635693846E-002
 -4.896923575612346E-002 -3.018090515530798E-002 -1.139257455449330E-002
  7.395756046322648E-003  2.618408664713739E-002  4.497241724795190E-002
  6.376074784876741E-002  8.254907844958248E-002  0.101337409050398     
 -8.553916487319441E-002 -6.675083427238018E-002 -4.796250367156542E-002
 -2.917417307074976E-002 -1.038584246993386E-002  8.402488130880483E-003
  2.719081873169561E-002  4.597914933251045E-002  6.476747993332585E-002
  8.355581053414114E-002  0.102344141134956      -8.520181410395700E-002
 -6.641348350314279E-002 -4.762515290232639E-002 -2.883682230151288E-002
 -1.004849170069681E-002  8.739838900118087E-003  2.752816950093349E-002
  4.631650010174889E-002  6.510483070256307E-002  8.389316130337963E-002
  0.102681491904194     
  0.206714722552127       0.205020019174069       0.203325315796011     
  0.201630612417953       0.199935909039895       0.198241205661838     
  0.196546502283779       0.194851798905722       0.193157095527664     
  0.191462392149606       0.189767688771549       0.210454762173774     
  0.208760058795716       0.207065355417658       0.205370652039600     
  0.203675948661543       0.201981245283485       0.200286541905427     
  0.198591838527370       0.196897135149311       0.195202431771254     
  0.193507728393196       0.221615898379690       0.219921195001633     
  0.218226491623575       0.216531788245517       0.214837084867459     
  0.213142381489401       0.211447678111344       0.209752974733286     
  0.208058271355228       0.206363567977170       0.204668864599112     
  0.240022113384570       0.238327410006512       0.236632706628455     
  0.234938003250396       0.233243299872339       0.231548596494281     
  0.229853893116223       0.228159189738165       0.226464486360107     
  0.224769782982050       0.223075079603992       0.265383130182446     
  0.263688426804387       0.261993723426330       0.260299020048272     
  0.258604316670214       0.256909613292156       0.255214909914098     
  0.253520206536041       0.251825503157982       0.250130799779925     
  0.248436096401867       0.297298990388477       0.295604287010419     
  0.293909583632361       0.292214880254304       0.290520176876245     
  0.288825473498188       0.287130770120130       0.285436066742072     
  0.283741363364014       0.282046659985956       0.280351956607899     
  0.335266361821605       0.333571658443547       0.331876955065489     
  0.330182251687432       0.328487548309374       0.326792844931316     
  0.325098141553257       0.323403438175200       0.321708734797142     
  0.320014031419084       0.318319328041026       0.378686476353720     
  0.376991772975663       0.375297069597605       0.373602366219547     
  0.371907662841489       0.370212959463431       0.368518256085373     
  0.366823552707316       0.365128849329258       0.363434145951201     
  0.361739442573143       0.426874572840733       0.425179869462675     
  0.423485166084618       0.421790462706560       0.420095759328502     
  0.418401055950444       0.416706352572386       0.415011649194328     
  0.413316945816270       0.411622242438213       0.409927539060155     
  0.479070696214869       0.477375992836811       0.475681289458754     
  0.473986586080695       0.472291882702638       0.470597179324580     
  0.468902475946522       0.467207772568465       0.465513069190406     
  0.463818365812348       0.462123662434291       0.534451682430066     
  0.532756979052008       0.531062275673950       0.529367572295892     
  0.527672868917834       0.525978165539776       0.524283462161719     
  0.522588758783661       0.520894055405604       0.519199352027545     
  0.517504648649487       0.592144140250711       0.590449436872653     
  0.588754733494596       0.587060030116537       0.585365326738480     
  0.583670623360423       0.581975919982364       0.580281216604307     
  0.578586513226248       0.576891809848191       0.575197106470133     
  0.651238225153171       0.649543521775113       0.647848818397055     
  0.646154115018998       0.644459411640939       0.642764708262882     
  0.641070004884824       0.639375301506766       0.637680598128708     
  0.635985894750651       0.634291191372593       0.710801988117438     
  0.709107284739380       0.707412581361322       0.705717877983263     
  0.704023174605207       0.702328471227149       0.700633767849090     
  0.698939064471032       0.697244361092975       0.695549657714917     
  0.693854954336859       0.769896073019897       0.768201369641840     
  0.766506666263782       0.764811962885724       0.763117259507666     
  0.761422556129607       0.759727852751550       0.758033149373491     
  0.756338445995435       0.754643742617378       0.752949039239320     
  0.827588530840542       0.825893827462484       0.824199124084427     
  0.822504420706369       0.820809717328312       0.819115013950253     
  0.817420310572196       0.815725607194138       0.814030903816079     
  0.812336200438023       0.810641497059965       0.882969517055740     
  0.881274813677682       0.879580110299624       0.877885406921566     
  0.876190703543508       0.874496000165449       0.872801296787392     
  0.871106593409334       0.869411890031276       0.867717186653219     
  0.866022483275162       0.935165640429875       0.933470937051817     
  0.931776233673759       0.930081530295703       0.928386826917644     
  0.926692123539587       0.924997420161528       0.923302716783471     
  0.921608013405413       0.919913310027355       0.918218606649297     
  0.983353736916888       0.981659033538831       0.979964330160772     
  0.978269626782714       0.976574923404657       0.974880220026598     
  0.973185516648541       0.971490813270483       0.969796109892426     
  0.968101406514367       0.966406703136310        1.02677385144900     
   1.02507914807095        1.02338444469289        1.02168974131483     
   1.01999503793677        1.01830033455871        1.01660563118066     
   1.01491092780260        1.01321622442454        1.01152152104648     
   1.00982681766842        1.06474122288213        1.06304651950407     
   1.06135181612601        1.05965711274796        1.05796240936990     
   1.05626770599184        1.05457300261379        1.05287829923573     
   1.05118359585767        1.04948889247961        1.04779418910155     
   1.09665708308816        1.09496237971011        1.09326767633205     
   1.09157297295399        1.08987826957593        1.08818356619787     
   1.08648886281982        1.08479415944176        1.08309945606370     
   1.08140475268564        1.07971004930759        1.12201809988604     
   1.12032339650798        1.11862869312992        1.11693398975186     
   1.11523928637381        1.11354458299575        1.11184987961769     
   1.11015517623963        1.10846047286158        1.10676576948352     
   1.10507106610546        1.14042431489092        1.13872961151286     
   1.13703490813480        1.13534020475674        1.13364550137869     
   1.13195079800063        1.13025609462257        1.12856139124451     
   1.12686668786646        1.12517198448840        1.12347728111034     
   1.15158545109683        1.14989074771878        1.14819604434072     
   1.14650134096266        1.14480663758460        1.14311193420655     
   1.14141723082849        1.13972252745043        1.13802782407237     
   1.13633312069431        1.13463841731626        1.15532549071848     
   1.15363078734042        1.15193608396237        1.15024138058431     
   1.14854667720625        1.14685197382819        1.14515727045013     
   1.14346256707208        1.14176786369402        1.14007316031596     
   1.13837845693790     
  2.651247573289247E-002  2.386122815960322E-002  2.120998058631397E-002
  1.855873301302472E-002  1.590748543973548E-002  1.325623786644623E-002
  1.060499029315698E-002  7.953742719867740E-003  5.302495146578492E-003
  2.651247573289244E-003  0.000000000000000E+000  2.651247573289247E-002
  2.386122815960322E-002  2.120998058631397E-002  1.855873301302472E-002
  1.590748543973548E-002  1.325623786644623E-002  1.060499029315698E-002
  7.953742719867740E-003  5.302495146578492E-003  2.651247573289244E-003
  0.000000000000000E+000  2.651247573289247E-002  2.386122815960322E-002
  2.120998058631397E-002  1.855873301302472E-002  1.590748543973548E-002
  1.325623786644623E-002  1.060499029315698E-002  7.953742719867740E-003
  5.302495146578492E-003  2.651247573289244E-003  0.000000000000000E+000
  2.651247573289247E-002  2.386122815960322E-002  2.120998058631397E-002
  1.855873301302472E-002  1.590748543973548E-002  1.325623786644623E-002
  1.060499029315698E-002  7.953742719867740E-003  5.302495146578492E-003
  2.651247573289244E-003  0.000000000000000E+000  2.651247573289247E-002
  2.386122815960322E-002  2.120998058631397E-002  1.855873301302472E-002
  1.590748543973548E-002  1.325623786644623E-002  1.060499029315698E-002
  7.953742719867740E-003  5.302495146578492E-003  2.651247573289244E-003
  0.000000000000000E+000  2.651247573289247E-002  2.386122815960322E-002
  2.120998058631397E-002  1.855873301302472E-002  1.590748543973548E-002
  1.325623786644623E-002  1.060499029315698E-002  7.953742719867740E-003
  5.302495146578492E-003  2.651247573289244E-003  0.000000000000000E+000
  2.651247573289247E-002  2.386122815960322E-002  2.120998058631397E-002
  1.855873301302472E-002  1.590748543973548E-002  1.325623786644623E-002
  1.060499029315698E-002  7.953742719867740E-003  5.302495146578492E-003
  2.651247573289244E-003  0.000000000000000E+000  2.651247573289247E-002
  2.386122815960322E-002  2.120998058631397E-002  1.855873301302472E-002
  1.590748543973548E-002  1.325623786644623E-002  1.060499029315698E-002
  7.953742719867740E-003  5.302495146578492E-003  2.651247573289244E-003
  0.000000000000000E+000  2.651247573289247E-002  2.386122815960322E-002
  2.120998058631397E-002  1.855873301302472E-002  1.590748543973548E-002
  1.325623786644623E-002  1.060499029315698E-002  7.953742719867740E-003
  5.302495146578492E-003  2.651247573289244E-003  0.000000000000000E+000
  2.651247573289247E-002  2.386122815960322E-002  2.120998058631397E-002
  1.855873301302472E-002  1.590748543973548E-002  1.325623786644623E-002
  1.060499029315698E-002  7.953742719867740E-003  5.302495146578492E-003
  2.651247573289244E-003  0.000000000000000E+000  2.651247573289247E-002
  2.386122815960322E-002  2.120998058631397E-002  1.855873301302472E-002
  1.590748543973548E-002  1.325623786644623E-002  1.060499029315698E-002
  7.953742719867740E-003  5.302495146578492E-003  2.651247573289244E-003
  0.000000000000000E+000  2.651247573289247E-002  2.386122815960322E-002
  2.120998058631397E-002  1.855873301302472E-002  1.590748543973548E-002
  1.325623786644623E-002  1.060499029315698E-002  7.953742719867740E-003
  5.302495146578492E-003  2.651247573289244E-003  0.000000000000000E+000
  2.651247573289247E-002  2.386122815960322E-002  2.120998058631397E-002
  1.855873301302472E-002  1.590748543973548E-002  1.325623786644623E-002
  1.060499029315698E-002  7.953742719867740E-003  5.302495146578492E-003
  2.651247573289244E-003  0.000000000000000E+000  2.651247573289247E-002
  2.386122815960322E-002  2.120998058631397E-002  1.855873301302472E-002
  1.590748543973548E-002  1.325623786644623E-002  1.060499029315698E-002
  7.953742719867740E-003  5.302495146578492E-003  2.651247573289244E-003
  0.000000000000000E+000  2.651247573289247E-002  2.386122815960322E-002
  2.120998058631397E-002  1.855873301302472E-002  1.590748543973548E-002
  1.325623786644623E-002  1.060499029315698E-002  7.953742719867740E-003
  5.302495146578492E-003  2.651247573289244E-003  0.000000000000000E+000
  2.651247573289247E-002  2.386122815960322E-002  2.120998058631397E-002
  1.855873301302472E-002  1.590748543973548E-002  1.325623786644623E-002
  1.060499029315698E-002  7.953742719867740E-003  5.302495146578492E-003
  2.651247573289244E-003  0.000000000000000E+000  2.651247573289247E-002
  2.386122815960322E-002  2.120998058631397E-002  1.855873301302472E-002
  1.590748543973548E-002  1.325623786644623E-002  1.060499029315698E-002
  7.953742719867740E-003  5.302495146578492E-003  2.651247573289244E-003
  0.000000000000000E+000  2.651247573289247E-002  2.386122815960322E-002
  2.120998058631397E-002  1.855873301302472E-002  1.590748543973548E-002
  1.325623786644623E-002  1.060499029315698E-002  7.953742719867740E-003
  5.302495146578492E-003  2.651247573289244E-003  0.000000000000000E+000
  2.651247573289247E-002  2.386122815960322E-002  2.120998058631397E-002
  1.855873301302472E-002  1.590748543973548E-002  1.325623786644623E-002
  1.060499029315698E-002  7.953742719867740E-003  5.302495146578492E-003
  2.651247573289244E-003  0.000000000000000E+000  2.651247573289247E-002
  2.386122815960322E-002  2.120998058631397E-002  1.855873301302472E-002
  1.590748543973548E-002  1.325623786644623E-002  1.060499029315698E-002
  7.953742719867740E-003  5.302495146578492E-003  2.651247573289244E-003
  0.000000000000000E+000  2.651247573289247E-002  2.386122815960322E-002
  2.120998058631397E-002  1.855873301302472E-002  1.590748543973548E-002
  1.325623786644623E-002  1.060499029315698E-002  7.953742719867740E-003
  5.302495146578492E-003  2.651247573289244E-003  0.000000000000000E+000
  2.651247573289247E-002  2.386122815960322E-002  2.120998058631397E-002
  1.855873301302472E-002  1.590748543973548E-002  1.325623786644623E-002
  1.060499029315698E-002  7.953742719867740E-003  5.302495146578492E-003
  2.651247573289244E-003  0.000000000000000E+000  2.651247573289247E-002
  2.386122815960322E-002  2.120998058631397E-002  1.855873301302472E-002
  1.590748543973548E-002  1.325623786644623E-002  1.060499029315698E-002
  7.953742719867740E-003  5.302495146578492E-003  2.651247573289244E-003
  0.000000000000000E+000  2.651247573289247E-002  2.386122815960322E-002
  2.120998058631397E-002  1.855873301302472E-002  1.590748543973548E-002
  1.325623786644623E-002  1.060499029315698E-002  7.953742719867740E-003
  5.302495146578492E-003  2.651247573289244E-003  0.000000000000000E+000
  2.651247573289247E-002  2.386122815960322E-002  2.120998058631397E-002
  1.855873301302472E-002  1.590748543973548E-002  1.325623786644623E-002
  1.060499029315698E-002  7.953742719867740E-003  5.302495146578492E-003
  2.651247573289244E-003  0.000000000000000E+000  2.651247573289247E-002
  2.386122815960322E-002  2.120998058631397E-002  1.855873301302472E-002
  1.590748543973548E-002  1.325623786644623E-002  1.060499029315698E-002
  7.953742719867740E-003  5.302495146578492E-003  2.651247573289244E-003
  0.000000000000000E+000
  4.727989862295156E-002  7.226192557091343E-002  9.268464953739820E-002
  0.110906441213031       0.127573321444160       0.142274395662531     
  0.154446020189031       0.163769586533372       0.170331125465160     
  0.174212051473202       7.985186002839545E-002  0.122998307126453     
  0.157822353041160       0.188456578941632       0.216100999890185     
  0.240310187515977       0.260312836865865       0.275765466695540     
  0.286930989525702       0.294363797481540       0.111093016304094     
  0.172901983713616       0.222050741096853       0.264119884154612     
  0.301264854687694       0.333386293515874       0.359775118450551     
  0.380419179831597       0.395689771998271       0.405557675565306     
  0.140543620728217       0.219003618221133       0.280804036815552     
  0.332879805914504       0.378007379167106       0.416853029075752     
  0.448734446897067       0.474093617199738       0.493103795012694     
  0.504908123349291       0.170142907066199       0.263395293206635     
  0.336352554649118       0.397546285679698       0.450276024163463     
  0.496011452971154       0.534288092991351       0.564800088747887     
  0.587717749609826       0.601956961259814       0.202330886644530     
  0.310742431697531       0.395037519448166       0.465789415548791     
  0.526721113086508       0.579345836006138       0.623898577651614     
  0.660127761299515       0.687655018311096       0.705106267438078     
  0.242863141238432       0.369402211431645       0.466292753114021     
  0.547086561293193       0.616399995454553       0.676172752565958     
  0.727092064796588       0.769118173480709       0.801706183690197     
  0.823094014105655       0.296113398021565       0.446132012938908     
  0.558664513707705       0.651181785243959       0.729822487082550     
  0.797273438960621       0.854706403285310       0.902405033274368     
  0.939874672255102       0.965035952902741       0.362582765762225     
  0.542245228435629       0.674547620271011       0.781663888913958     
  0.871583147583679       0.947959541912652        1.01254977540273     
   1.06602813445227        1.10805285961934        1.13638954933927     
  0.440802561733531       0.655709901004792       0.811686391111801     
  0.936332252129933        1.03974205595037        1.12666078067098     
   1.19949140152968        1.25929854022638        1.30596264835338     
   1.33720463458128       0.528969145506659       0.783886823346682     
  0.966901852946641        1.11166590914844        1.23059717844920     
   1.32962484237760        1.41186190772810        1.47880596311188     
   1.53055692747449        1.56480019174374       0.625792053624398     
  0.924781732203158        1.13766162291521        1.30468678836671     
   1.44081875165929        1.55329028485870        1.64597232753597     
   1.72082143930359        1.77817940137842        1.81569289168534     
  0.730348169781868        1.07686879064764        1.32190382338318     
   1.51286160072964        1.66746638204713        1.79436273009688     
   1.89824326481467        1.98156501039591        2.04494213080393     
   2.08599235266860       0.841770412027723        1.23870912107559     
   1.51768321160112        1.73376733778915        1.90765775809457     
   2.04953271029809        2.16498877288382        2.25704015186118     
   2.32660957120446        2.37131926209043       0.959424405706394     
   1.40918374756716        1.72338435920277        1.96526849169040     
   2.15872243893150        2.31559533601865        2.44249357038171     
   2.54306886156941        2.61862087608563        2.66684891035133     
   1.08444998203646        1.58946944460442        1.93982120142396     
   2.20759153396153        2.42018559819618        2.59132997728951     
   2.72879625171101        2.83700767974735        2.91776093587855     
   2.96897600243477        1.22401504199814        1.78825083811982     
   2.17560391494854        2.46861478996981        2.69896946552419     
   2.88269621684943        3.02897748734615        3.14317676760002     
   3.22774312459345        3.28101047711735        1.39372193015707     
   2.02366156840927        2.44846646896752        2.76498549883461     
   3.01074693879261        3.20472456943081        3.35776191232896     
   3.47626593670230        3.56340674142330        3.61801998396188     
   1.57402858328281        2.26867517346959        2.72703147468620     
   3.06218912070718        3.31833837719082        3.51784210451424     
   3.67345734366115        3.79276061936827        3.87970648156490     
   3.93378352274419        1.68466055492071        2.41254885113512     
   2.88287284359465        3.22001321364105        3.47303103254093     
   3.66693486801697        3.81601056334781        3.92871908713905     
   4.00960330259291        4.05896445222460        1.68891369292806     
   2.39927135004525        2.84675340031934        3.16057994461561     
   3.39192034699694        3.56662938054426        3.69919166953637     
   3.79795032756605        3.86730050908151        3.90808586813295     
   1.58313282787256        2.21933248718587        2.60612142825691     
   2.87103668596149        3.06335980799426        3.20705934928435     
   3.31504860871300        3.39443583509995        3.44869012432350     
   3.47846589311920        1.37263075723354        1.88049707504855     
   2.17726240995715        2.37746547146688        2.52198972776621     
   2.62972630419600        2.71058451207202        2.76996172496678     
   2.81060607676780        2.83335555112138        1.05161320631125     
   1.39478852456375        1.59250197722248        1.72616737724693     
   1.82300290057670        1.89542892886586        1.95000582354346     
   1.99045348203265        2.01919797676288        2.03978074285410     
  0.639771827759328       0.831928271554711       0.943668977543216     
   1.01963552989120        1.07486371352790        1.11626854123106     
   1.14752154616023        1.17068558262434        1.18689552749671     
   1.19649458415036     
  0.000000000000000E+000  0.000000000000000E+000  0.000000000000000E+000
  0.000000000000000E+000  0.000000000000000E+000  0.000000000000000E+000
  0.000000000000000E+000  0.000000000000000E+000  0.000000000000000E+000
  0.000000000000000E+000  0.000000000000000E+000  0.000000000000000E+000
  0.000000000000000E+000  0.000000000000000E+000  0.000000000000000E+000
  0.000000000000000E+000  0.000000000000000E+000  0.000000000000000E+000
  0.000000000000000E+000  0.000000000000000E+000  0.000000000000000E+000
  0.000000000000000E+000  0.000000000000000E+000  0.000000000000000E+000
  0.000000000000000E+000  0.000000000000000E+000  0.000000000000000E+000
  0.000000000000000E+000  0.000000000000000E+000  0.000000000000000E+000
  0.000000000000000E+000  0.000000000000000E+000  0.000000000000000E+000
  0.000000000000000E+000  0.000000000000000E+000  0.000000000000000E+000
  0.000000000000000E+000  0.000000000000000E+000  0.000000000000000E+000
  0.000000000000000E+000  0.000000000000000E+000  0.000000000000000E+000
  0.000000000000000E+000  0.000000000000000E+000  0.000000000000000E+000
  0.000000000000000E+000  0.000000000000000E+000  0.000000000000000E+000
  0.000000000000000E+000  0.000000000000000E+000  0.000000000000000E+000
  0.000000000000000E+000  0.000000000000000E+000  0.000000000000000E+000
  0.000000000000000E+000  0.000000000000000E+000  0.000000000000000E+000
  0.000000000000000E+000  0.000000000000000E+000  0.000000000000000E+000
  0.000000000000000E+000  0.000000000000000E+000  0.000000000000000E+000
  0.000000000000000E+000  0.000000000000000E+000  0.000000000000000E+000
  0.000000000000000E+000  0.000000000000000E+000  0.000000000000000E+000
  0.000000000000000E+000  0.000000000000000E+000  0.000000000000000E+000
  0.000000000000000E+000  0.000000000000000E+000  0.000000000000000E+000
  0.000000000000000E+000  0.000000000000000E+000  0.000000000000000E+000
  0.000000000000000E+000  0.000000000000000E+000  0.000000000000000E+000
  0.000000000000000E+000  0.000000000000000E+000  0.000000000000000E+000
  0.000000000000000E+000  0.000000000000000E+000  0.000000000000000E+000
  0.000000000000000E+000  0.000000000000000E+000  0.000000000000000E+000
  0.000000000000000E+000  0.000000000000000E+000  0.000000000000000E+000
  0.000000000000000E+000  0.000000000000000E+000  0.000000000000000E+000
  0.000000000000000E+000  0.000000000000000E+000  0.000000000000000E+000
  0.000000000000000E+000  0.000000000000000E+000  0.000000000000000E+000
  0.000000000000000E+000  0.000000000000000E+000  0.000000000000000E+000
  0.000000000000000E+000  0.000000000000000E+000  0.000000000000000E+000
  0.000000000000000E+000  0.000000000000000E+000  0.000000000000000E+000
  0.000000000000000E+000  0.000000000000000E+000  0.000000000000000E+000
  0.000000000000000E+000  0.000000000000000E+000  0.000000000000000E+000