 Title = "Wing and Wake"
 VARIABLES = "X" "Y" "Z" "GAM" "skew"
 Zone I=   11 J=   26 K=1  T="Blade"
 DATAPACKING=BLOCK
 VARLOCATION=([4]=CELLCENTERED,[5]=CELLCENTERED)
  6.006163525832237E-002  7.015354264888607E-002  8.024545003944973E-002
  9.033735743001341E-002  0.100429264820577       0.110521172211141     
  0.120613079601704       0.130704986992268       0.140796894382832     
  0.150888801773395       0.160980709163959       6.323432621794578E-002
  7.332623360850926E-002  8.341814099907288E-002  9.351004838963660E-002
  0.103601955780200       0.113693863170764       0.123785770561328     
  0.133877677951891       0.143969585342455       0.154061492733019     
  0.164153400123582       7.270236386510766E-002  8.279427125567157E-002
  9.288617864623511E-002  0.102978086036799       0.113069993427362     
  0.123161900817926       0.133253808208490       0.143345715599054     
  0.153437622989617       0.163529530380181       0.173621437770745     
  8.831643159018228E-002  9.840833898074591E-002  0.108500246371310     
  0.118592153761873       0.128684061152437       0.138775968543001     
  0.148867875933564       0.158959783324128       0.169051690714692     
  0.179143598105255       0.189235505495819       0.109830286217752     
  0.119922193608316       0.130014100998880       0.140106008389443     
  0.150197915780007       0.160289823170571       0.170381730561134     
  0.180473637951698       0.190565545342261       0.200657452732825     
  0.210749360123389       0.136904641408587       0.146996548799151     
  0.157088456189715       0.167180363580278       0.177272270970842     
  0.187364178361406       0.197456085751969       0.207547993142533     
  0.217639900533097       0.227731807923660       0.237823715314224     
  0.169112518407892       0.179204425798456       0.189296333189019     
  0.199388240579583       0.209480147970147       0.219572055360710     
  0.229663962751274       0.239755870141838       0.249847777532401     
  0.259939684922965       0.270031592313528       0.205945979755334     
  0.216037887145898       0.226129794536462       0.236221701927025     
  0.246313609317589       0.256405516708153       0.266497424098716     
  0.276589331489280       0.286681238879844       0.296773146270407     
  0.306865053660971       0.246824139762222       0.256916047152786     
  0.267007954543349       0.277099861933913       0.287191769324477     
  0.297283676715040       0.307375584105604       0.317467491496168     
  0.327559398886731       0.337651306277295       0.347743213667858     
  0.291102325425817       0.301194232816380       0.311286140206944     
  0.321378047597507       0.331469954988071       0.341561862378635     
  0.351653769769199       0.361745677159762       0.371837584550326     
  0.381929491940890       0.392021399331453       0.338082243307698     
  0.348174150698262       0.358266058088825       0.368357965479389     
  0.378449872869953       0.388541780260516       0.398633687651080     
  0.408725595041644       0.418817502432208       0.428909409822771     
  0.439001317213335       0.387022992038426       0.397114899428990     
  0.407206806819554       0.417298714210117       0.427390621600681     
  0.437482528991244       0.447574436381808       0.457666343772372     
  0.467758251162935       0.477850158553499       0.487942065944063     
  0.437152746774731       0.447244654165295       0.457336561555858     
  0.467428468946422       0.477520376336986       0.487612283727549     
  0.497704191118113       0.507796098508677       0.517888005899240     
  0.527979913289804       0.538071820680368       0.487680931338357     
  0.497772838728921       0.507864746119484       0.517956653510048     
  0.528048560900612       0.538140468291175       0.548232375681739     
  0.558324283072302       0.568416190462867       0.578508097853430     
  0.588600005243994       0.537810686074662       0.547902593465226     
  0.557994500855789       0.568086408246353       0.578178315636916     
  0.588270223027480       0.598362130418044       0.608454037808607     
  0.618545945199171       0.628637852589735       0.638729759980298     
  0.586751434805390       0.596843342195954       0.606935249586517     
  0.617027156977081       0.627119064367644       0.637210971758208     
  0.647302879148772       0.657394786539335       0.667486693929898     
  0.677578601320463       0.687670508711027       0.633731352687272     
  0.643823260077835       0.653915167468398       0.664007074858962     
  0.674098982249526       0.684190889640089       0.694282797030653     
  0.704374704421217       0.714466611811780       0.724558519202344     
  0.734650426592908       0.678009538350866       0.688101445741430     
  0.698193353131993       0.708285260522557       0.718377167913121     
  0.728469075303685       0.738560982694248       0.748652890084812     
  0.758744797475376       0.768836704865939       0.778928612256502     
  0.718887698357754       0.728979605748317       0.739071513138881     
  0.749163420529444       0.759255327920008       0.769347235310572     
  0.779439142701135       0.789531050091699       0.799622957482263     
  0.809714864872826       0.819806772263390       0.755721159705196     
  0.765813067095759       0.775904974486323       0.785996881876887     
  0.796088789267451       0.806180696658014       0.816272604048578     
  0.826364511439141       0.836456418829706       0.846548326220269     
  0.856640233610832       0.787929036704500       0.798020944095065     
  0.808112851485627       0.818204758876191       0.828296666266755     
  0.838388573657319       0.848480481047883       0.858572388438447     
  0.868664295829010       0.878756203219573       0.888848110610137     
  0.815003391895336       0.825095299285900       0.835187206676463     
  0.845279114067027       0.855371021457589       0.865462928848154     
  0.875554836238718       0.885646743629281       0.895738651019844     
  0.905830558410408       0.915922465800972       0.836517246522906     
  0.846609153913469       0.856701061304033       0.866792968694596     
  0.876884876085160       0.886976783475724       0.897068690866288     
  0.907160598256851       0.917252505647415       0.927344413037979     
  0.937436320428542       0.852131314247980       0.862223221638543     
  0.872315129029108       0.882407036419671       0.892498943810234     
  0.902590851200798       0.912682758591362       0.922774665981926     
  0.932866573372489       0.942958480763053       0.953050388153616     
  0.861599351895142       0.871691259285705       0.881783166676270     
  0.891875074066834       0.901966981457397       0.912058888847960     
  0.922150796238524       0.932242703629087       0.942334611019652     
  0.952426518410216       0.962518425800779       0.864772042854766     
  0.874863950245329       0.884955857635893       0.895047765026456     
  0.905139672417021       0.915231579807584       0.925323487198147     
  0.935415394588711       0.945507301979275       0.955599209369839     
  0.965691116760403     
  0.261313425128176       0.245375207174923       0.229436989221669     
  0.213498771268416       0.197560553315162       0.181622335361908     
  0.165684117408655       0.149745899455401       0.133807681502148     
  0.117869463548894       0.101931245595641       0.263322338761890     
  0.247384120808637       0.231445902855383       0.215507684902130     
  0.199569466948876       0.183631248995622       0.167693031042369     
  0.151754813089115       0.135816595135862       0.119878377182608     
  0.103940159229355       0.269317397894961       0.253379179941708     
  0.237440961988454       0.221502744035201       0.205564526081947     
  0.189626308128693       0.173688090175440       0.157749872222186     
  0.141811654268933       0.125873436315679       0.109935218362426     
  0.279204056863587       0.263265838910333       0.247327620957080     
  0.231389403003826       0.215451185050573       0.199512967097319     
  0.183574749144065       0.167636531190812       0.151698313237558     
  0.135760095284305       0.119821877331051       0.292826397149827     
  0.276888179196573       0.260949961243320       0.245011743290066     
  0.229073525336813       0.213135307383559       0.197197089430306     
  0.181258871477052       0.165320653523799       0.149382435570545     
  0.133444217617292       0.309969586309777       0.294031368356523     
  0.278093150403270       0.262154932450016       0.246216714496762     
  0.230278496543509       0.214340278590256       0.198402060637002     
  0.182463842683748       0.166525624730495       0.150587406777241     
  0.330363266009539       0.314425048056285       0.298486830103032     
  0.282548612149778       0.266610394196524       0.250672176243271     
  0.234733958290018       0.218795740336764       0.202857522383510     
  0.186919304430257       0.170981086477003       0.353685815737654     
  0.337747597784400       0.321809379831147       0.305871161877893     
  0.289932943924640       0.273994725971386       0.258056508018133     
  0.242118290064879       0.226180072111625       0.210241854158372     
  0.194303636205119       0.379569424952694       0.363631206999441     
  0.347692989046187       0.331754771092934       0.315816553139680     
  0.299878335186426       0.283940117233173       0.268001899279919     
  0.252063681326666       0.236125463373412       0.220187245420159     
  0.407605893675220       0.391667675721966       0.375729457768712     
  0.359791239815459       0.343853021862205       0.327914803908952     
  0.311976585955698       0.296038368002445       0.280100150049191     
  0.264161932095937       0.248223714142684       0.437353070045301     
  0.421414852092047       0.405476634138794       0.389538416185540     
  0.373600198232287       0.357661980279033       0.341723762325780     
  0.325785544372526       0.309847326419273       0.293909108466019     
  0.277970890512765       0.468341823321481       0.452403605368227     
  0.436465387414974       0.420527169461720       0.404588951508466     
  0.388650733555213       0.372712515601959       0.356774297648706     
  0.340836079695452       0.324897861742199       0.308959643788945     
  0.500083442352809       0.484145224399556       0.468207006446302     
  0.452268788493049       0.436330570539795       0.420392352586542     
  0.404454134633288       0.388515916680034       0.372577698726781     
  0.356639480773528       0.340701262820274       0.532077342845639     
  0.516139124892385       0.500200906939131       0.484262688985878     
  0.468324471032625       0.452386253079371       0.436448035126117     
  0.420509817172864       0.404571599219610       0.388633381266357     
  0.372695163313103       0.563818961876967       0.547880743923714     
  0.531942525970460       0.516004308017207       0.500066090063954     
  0.484127872110700       0.468189654157446       0.452251436204192     
  0.436313218250939       0.420375000297686       0.404436782344432     
  0.594807715153147       0.578869497199893       0.562931279246640     
  0.546993061293386       0.531054843340133       0.515116625386880     
  0.499178407433626       0.483240189480373       0.467301971527118     
  0.451363753573865       0.435425535620612       0.624554891523229     
  0.608616673569975       0.592678455616722       0.576740237663468     
  0.560802019710215       0.544863801756961       0.528925583803707     
  0.512987365850454       0.497049147897200       0.481110929943947     
  0.465172711990693       0.652591360245754       0.636653142292500     
  0.620714924339247       0.604776706385993       0.588838488432739     
  0.572900270479486       0.556962052526232       0.541023834572979     
  0.525085616619725       0.509147398666471       0.493209180713218     
  0.678474969460794       0.662536751507540       0.646598533554287     
  0.630660315601033       0.614722097647780       0.598783879694526     
  0.582845661741272       0.566907443788019       0.550969225834766     
  0.535031007881512       0.519092789928258       0.701797519188910     
  0.685859301235656       0.669921083282402       0.653982865329148     
  0.638044647375895       0.622106429422641       0.606168211469388     
  0.590229993516134       0.574291775562881       0.558353557609628     
  0.542415339656374       0.722191198888672       0.706252980935417     
  0.690314762982164       0.674376545028910       0.658438327075657     
  0.642500109122403       0.626561891169150       0.610623673215897     
  0.594685455262643       0.578747237309389       0.562809019356135     
  0.739334388048620       0.723396170095368       0.707457952142114     
  0.691519734188860       0.675581516235607       0.659643298282353     
  0.643705080329100       0.627766862375846       0.611828644422592     
  0.595890426469339       0.579952208516086       0.752956728334862     
  0.737018510381608       0.721080292428354       0.705142074475101     
  0.689203856521847       0.673265638568593       0.657327420615340     
  0.641389202662087       0.625450984708833       0.609512766755579     
  0.593574548802325       0.762843387303487       0.746905169350233     
  0.730966951396980       0.715028733443726       0.699090515490472     
  0.683152297537219       0.667214079583965       0.651275861630712     
  0.635337643677458       0.619399425724205       0.603461207770951     
  0.768838446436558       0.752900228483304       0.736962010530051     
  0.721023792576797       0.705085574623544       0.689147356670290     
  0.673209138717036       0.657270920763783       0.641332702810530     
  0.625394484857276       0.609456266904022       0.770847360070272     
  0.754909142117018       0.738970924163765       0.723032706210511     
  0.707094488257258       0.691156270304004       0.675218052350750     
  0.659279834397497       0.643341616444243       0.627403398490990     
  0.611465180537736     
  2.651247573289247E-002  2.386122815960322E-002  2.120998058631397E-002
  1.855873301302472E-002  1.590748543973548E-002  1.325623786644623E-002
  1.060499029315698E-002  7.953742719867740E-003  5.302495146578492E-003
  2.651247573289244E-003  0.000000000000000E+000  2.651247573289247E-002
  2.386122815960322E-002  2.120998058631397E-002  1.855873301302472E-002
  1.590748543973548E-002  1.325623786644623E-002  1.060499029315698E-002
  7.953742719867740E-003  5.302495146578492E-003  2.651247573289244E-003
  0.000000000000000E+000  2.651247573289247E-002  2.386122815960322E-002
  2.120998058631397E-002  1.855873301302472E-002  1.590748543973548E-002
  1.325623786644623E-002  1.060499029315698E-002  7.953742719867740E-003
  5.302495146578492E-003  2.651247573289244E-003  0.000000000000000E+000
  2.651247573289247E-002  2.386122815960322E-002  2.120998058631397E-002
  1.855873301302472E-002  1.590748543973548E-002  1.325623786644623E-002
  1.060499029315698E-002  7.953742719867740E-003  5.302495146578492E-003
  2.651247573289244E-003  0.000000000000000E+000  2.651247573289247E-002
  2.386122815960322E-002  2.120998058631397E-002  1.855873301302472E-002
  1.590748543973548E-002  1.325623786644623E-002  1.060499029315698E-002
  7.953742719867740E-003  5.302495146578492E-003  2.651247573289244E-003
  0.000000000000000E+000  2.651247573289247E-002  2.386122815960322E-002
  2.120998058631397E-002  1.855873301302472E-002  1.590748543973548E-002
  1.325623786644623E-002  1.060499029315698E-002  7.953742719867740E-003
  5.302495146578492E-003  2.651247573289244E-003  0.000000000000000E+000
  2.651247573289247E-002  2.386122815960322E-002  2.120998058631397E-002
  1.855873301302472E-002  1.590748543973548E-002  1.325623786644623E-002
  1.060499029315698E-002  7.953742719867740E-003  5.302495146578492E-003
  2.651247573289244E-003  0.000000000000000E+000  2.651247573289247E-002
  2.386122815960322E-002  2.120998058631397E-002  1.855873301302472E-002
  1.590748543973548E-002  1.325623786644623E-002  1.060499029315698E-002
  7.953742719867740E-003  5.302495146578492E-003  2.651247573289244E-003
  0.000000000000000E+000  2.651247573289247E-002  2.386122815960322E-002
  2.120998058631397E-002  1.855873301302472E-002  1.590748543973548E-002
  1.325623786644623E-002  1.060499029315698E-002  7.953742719867740E-003
  5.302495146578492E-003  2.651247573289244E-003  0.000000000000000E+000
  2.651247573289247E-002  2.386122815960322E-002  2.120998058631397E-002
  1.855873301302472E-002  1.590748543973548E-002  1.325623786644623E-002
  1.060499029315698E-002  7.953742719867740E-003  5.302495146578492E-003
  2.651247573289244E-003  0.000000000000000E+000  2.651247573289247E-002
  2.386122815960322E-002  2.120998058631397E-002  1.855873301302472E-002
  1.590748543973548E-002  1.325623786644623E-002  1.060499029315698E-002
  7.953742719867740E-003  5.302495146578492E-003  2.651247573289244E-003
  0.000000000000000E+000  2.651247573289247E-002  2.386122815960322E-002
  2.120998058631397E-002  1.855873301302472E-002  1.590748543973548E-002
  1.325623786644623E-002  1.060499029315698E-002  7.953742719867740E-003
  5.302495146578492E-003  2.651247573289244E-003  0.000000000000000E+000
  2.651247573289247E-002  2.386122815960322E-002  2.120998058631397E-002
  1.855873301302472E-002  1.590748543973548E-002  1.325623786644623E-002
  1.060499029315698E-002  7.953742719867740E-003  5.302495146578492E-003
  2.651247573289244E-003  0.000000000000000E+000  2.651247573289247E-002
  2.386122815960322E-002  2.120998058631397E-002  1.855873301302472E-002
  1.590748543973548E-002  1.325623786644623E-002  1.060499029315698E-002
  7.953742719867740E-003  5.302495146578492E-003  2.651247573289244E-003
  0.000000000000000E+000  2.651247573289247E-002  2.386122815960322E-002
  2.120998058631397E-002  1.855873301302472E-002  1.590748543973548E-002
  1.325623786644623E-002  1.060499029315698E-002  7.953742719867740E-003
  5.302495146578492E-003  2.651247573289244E-003  0.000000000000000E+000
  2.651247573289247E-002  2.386122815960322E-002  2.120998058631397E-002
  1.855873301302472E-002  1.590748543973548E-002  1.325623786644623E-002
  1.060499029315698E-002  7.953742719867740E-003  5.302495146578492E-003
  2.651247573289244E-003  0.000000000000000E+000  2.651247573289247E-002
  2.386122815960322E-002  2.120998058631397E-002  1.855873301302472E-002
  1.590748543973548E-002  1.325623786644623E-002  1.060499029315698E-002
  7.953742719867740E-003  5.302495146578492E-003  2.651247573289244E-003
  0.000000000000000E+000  2.651247573289247E-002  2.386122815960322E-002
  2.120998058631397E-002  1.855873301302472E-002  1.590748543973548E-002
  1.325623786644623E-002  1.060499029315698E-002  7.953742719867740E-003
  5.302495146578492E-003  2.651247573289244E-003  0.000000000000000E+000
  2.651247573289247E-002  2.386122815960322E-002  2.120998058631397E-002
  1.855873301302472E-002  1.590748543973548E-002  1.325623786644623E-002
  1.060499029315698E-002  7.953742719867740E-003  5.302495146578492E-003
  2.651247573289244E-003  0.000000000000000E+000  2.651247573289247E-002
  2.386122815960322E-002  2.120998058631397E-002  1.855873301302472E-002
  1.590748543973548E-002  1.325623786644623E-002  1.060499029315698E-002
  7.953742719867740E-003  5.302495146578492E-003  2.651247573289244E-003
  0.000000000000000E+000  2.651247573289247E-002  2.386122815960322E-002
  2.120998058631397E-002  1.855873301302472E-002  1.590748543973548E-002
  1.325623786644623E-002  1.060499029315698E-002  7.953742719867740E-003
  5.302495146578492E-003  2.651247573289244E-003  0.000000000000000E+000
  2.651247573289247E-002  2.386122815960322E-002  2.120998058631397E-002
  1.855873301302472E-002  1.590748543973548E-002  1.325623786644623E-002
  1.060499029315698E-002  7.953742719867740E-003  5.302495146578492E-003
  2.651247573289244E-003  0.000000000000000E+000  2.651247573289247E-002
  2.386122815960322E-002  2.120998058631397E-002  1.855873301302472E-002
  1.590748543973548E-002  1.325623786644623E-002  1.060499029315698E-002
  7.953742719867740E-003  5.302495146578492E-003  2.651247573289244E-003
  0.000000000000000E+000  2.651247573289247E-002  2.386122815960322E-002
  2.120998058631397E-002  1.855873301302472E-002  1.590748543973548E-002
  1.325623786644623E-002  1.060499029315698E-002  7.953742719867740E-003
  5.302495146578492E-003  2.651247573289244E-003  0.000000000000000E+000
  2.651247573289247E-002  2.386122815960322E-002  2.120998058631397E-002
  1.855873301302472E-002  1.590748543973548E-002  1.325623786644623E-002
  1.060499029315698E-002  7.953742719867740E-003  5.302495146578492E-003
  2.651247573289244E-003  0.000000000000000E+000  2.651247573289247E-002
  2.386122815960322E-002  2.120998058631397E-002  1.855873301302472E-002
  1.590748543973548E-002  1.325623786644623E-002  1.060499029315698E-002
  7.953742719867740E-003  5.302495146578492E-003  2.651247573289244E-003
  0.000000000000000E+000
  0.262965439445795       0.366941611268554       0.442271177101223     
  0.502579488436365       0.552294922182418       0.594100541679186     
  0.629677560268311       0.659904035522699       0.685266579152595     
  0.705719557695043       0.429624731410891       0.610876049783878     
  0.741197453275787       0.845472819401677       0.931661949241736     
   1.00421496660464        1.06599749637844        1.11861208285919     
   1.16322881548520        1.20156894407677       0.548726638890837     
  0.805572461329698       0.992048260367536        1.14254356387766     
   1.26826494660761        1.37451318601974        1.46516860683597     
   1.54230529050118        1.60676655603829        1.65765189301874     
  0.604695707997641       0.910107592191687        1.14009649822874     
   1.33062630754642        1.49295315762190        1.63134370192587     
   1.74953643191130        1.84868472872415        1.92822393192984     
   1.98609464070993       0.602114510367364       0.922892824077707     
   1.17350605922954        1.38696279200394        1.57345913330272     
   1.73604074087580        1.87537730901179        1.99030395458271     
   2.07931534423594        2.13993718147878       0.566034427734947     
  0.876181318056389        1.12364854346185        1.33795189877123     
   1.52779082235343        1.69565961093646        1.84077691539664     
   1.96090340647221        2.05322690906439        2.11410045467139     
  0.545511867856491       0.839005534220945        1.07042448664314     
   1.26867480553631        1.44193261713414        1.59348927398353     
   1.72437579288791        1.83449601579014        1.92156198762993     
   1.98144271395667       0.563469369363410       0.854251660184486     
   1.07648057736555        1.26219491362218        1.42199214870840     
   1.56039009131483        1.67969490270896        1.78068261573795     
   1.86217573005222        1.91960119925516       0.615730722438057     
  0.922969996368905        1.15118837759993        1.33768645963378     
   1.49568785255971        1.63116890895169        1.74704848175866     
   1.84446843587496        1.92280209049611        1.97793249475995     
  0.684752142628012        1.01982026410834        1.26420880978972     
   1.46063454783967        1.62463386648307        1.76352338955133     
   1.88109478233440        1.97908201973484        2.05734801612769     
   2.11226881981750       0.759120485995780        1.12603967919116     
   1.39047706662654        1.60062921791855        1.77427455236170     
   1.91994771463522        2.04218408219231        2.14322711006325     
   2.22334540678567        2.27923554776608       0.833577612559706     
   1.23306417128672        1.51856517929573        1.74362308761108     
   1.92815320860659        2.08182913879683        2.20988488563111     
   2.31501810586511        2.39780734834820        2.45515479513825     
  0.904644173406480        1.33535907327879        1.64118586520313     
   1.88073572463399        2.07593023124612        2.23749907267286     
   2.37132189836041        2.48053383282627        2.56601591887469     
   2.62484352068535       0.969125093536193        1.42805204114626     
   1.75213238849418        2.00458012783380        2.20914233086642     
   2.37751562016242        2.51617444118189        2.62865959551942     
   2.71615899148415        2.77598921065928        1.02482350223072     
   1.50781255401685        1.84713511598190        2.10999532941810     
   2.32174193894968        2.49494723196555        2.63665069894012     
   2.75080509680373        2.83893750260914        2.89871336181156     
   1.07274420056068        1.57582739551727        1.92716345285352     
   2.19743672179672        2.41345197230141        2.58863805986878     
   2.73063613507248        2.84387839322200        2.93033483709438     
   2.98821114311180        1.12167107958107        1.64300390380800     
   2.00339444439894        2.27751918960101        2.49394215430998     
   2.66715162877099        2.80554651743577        2.91417607267423     
   2.99559718113723        3.04881262176633        1.18666252486971     
   1.72760134140596        2.09450223978126        2.36835166481044     
   2.58046727129092        2.74691451959365        2.87711811198961     
   2.97686406857289        3.04936612102592        3.09461400018900     
   1.27730236428596        1.84136061849955        2.21255254998441     
   2.48183066929505        2.68474573046686        2.83966615174122     
   2.95743425463838        3.04465463984948        3.10502027905228     
   3.13917568259762        1.36856173259747        1.94992060731530     
   2.31839175950565        2.57687779623266        2.76600672051592     
   2.90651002871045        3.01013899145379        3.08368245790883     
   3.13097249883420        3.15333511179846        1.41907146660491     
   1.99595988071570        2.34657528559039        2.58405792163739     
   2.75312856279863        2.87577678138379        2.96358234546962     
   3.02270768050443        3.05644233948215        3.06636584074951     
   1.39244488552267        1.92514476068704        2.23310416701585     
   2.43433830305841        2.57415676123313        2.67405832114083     
   2.74462896934225        2.79076170818991        2.81438621557766     
   2.81592832623544        1.25750948985163        1.69396863349493     
   1.93375208356639        2.08674298848337        2.19167015322514     
   2.26622012617984        2.31885049214640        2.35315707823145     
   2.37034096495224        2.37072706012383       0.989603288789365     
   1.28769788210971        1.44835856034613        1.55088038246581     
   1.62133547992321        1.67156673070564        1.70725842199894     
   1.73086503277838        1.74359892034864        1.74810662286955     
  0.608215340948820       0.775174901906990       0.866019967236460     
  0.924357960707672       0.964614908743380       0.993414464697842     
   1.01393979240654        1.02752867452624        1.03466380894998     
   1.03546640876453     
  0.000000000000000E+000  0.000000000000000E+000  0.000000000000000E+000
  0.000000000000000E+000  0.000000000000000E+000  0.000000000000000E+000
  0.000000000000000E+000  0.000000000000000E+000  0.000000000000000E+000
  0.000000000000000E+000  0.000000000000000E+000  0.000000000000000E+000
  0.000000000000000E+000  0.000000000000000E+000  0.000000000000000E+000
  0.000000000000000E+000  0.000000000000000E+000  0.000000000000000E+000
  0.000000000000000E+000  0.000000000000000E+000  0.000000000000000E+000
  0.000000000000000E+000  0.000000000000000E+000  0.000000000000000E+000
  0.000000000000000E+000  0.000000000000000E+000  0.000000000000000E+000
  0.000000000000000E+000  0.000000000000000E+000  0.000000000000000E+000
  0.000000000000000E+000  0.000000000000000E+000  0.000000000000000E+000
  0.000000000000000E+000  0.000000000000000E+000  0.000000000000000E+000
  0.000000000000000E+000  0.000000000000000E+000  0.000000000000000E+000
  0.000000000000000E+000  0.000000000000000E+000  0.000000000000000E+000
  0.000000000000000E+000  0.000000000000000E+000  0.000000000000000E+000
  0.000000000000000E+000  0.000000000000000E+000  0.000000000000000E+000
  0.000000000000000E+000  0.000000000000000E+000  0.000000000000000E+000
  0.000000000000000E+000  0.000000000000000E+000  0.000000000000000E+000
  0.000000000000000E+000  0.000000000000000E+000  0.000000000000000E+000
  0.000000000000000E+000  0.000000000000000E+000  0.000000000000000E+000
  0.000000000000000E+000  0.000000000000000E+000  0.000000000000000E+000
  0.000000000000000E+000  0.000000000000000E+000  0.000000000000000E+000
  0.000000000000000E+000  0.000000000000000E+000  0.000000000000000E+000
  0.000000000000000E+000  0.000000000000000E+000  0.000000000000000E+000
  0.000000000000000E+000  0.000000000000000E+000  0.000000000000000E+000
  0.000000000000000E+000  0.000000000000000E+000  0.000000000000000E+000
  0.000000000000000E+000  0.000000000000000E+000  0.000000000000000E+000
  0.000000000000000E+000  0.000000000000000E+000  0.000000000000000E+000
  0.000000000000000E+000  0.000000000000000E+000  0.000000000000000E+000
  0.000000000000000E+000  0.000000000000000E+000  0.000000000000000E+000
  0.000000000000000E+000  0.000000000000000E+000  0.000000000000000E+000
  0.000000000000000E+000  0.000000000000000E+000  0.000000000000000E+000
  0.000000000000000E+000  0.000000000000000E+000  0.000000000000000E+000
  0.000000000000000E+000  0.000000000000000E+000  0.000000000000000E+000
  0.000000000000000E+000  0.000000000000000E+000  0.000000000000000E+000
  0.000000000000000E+000  0.000000000000000E+000  0.000000000000000E+000
  0.000000000000000E+000  0.000000000000000E+000  0.000000000000000E+000
  0.000000000000000E+000  0.000000000000000E+000  0.000000000000000E+000
  0.000000000000000E+000  0.000000000000000E+000  0.000000000000000E+000