 Title = "Wing and Wake"
 VARIABLES = "X" "Y" "Z" "GAM" "skew"
 Zone I=   11 J=   26 K=1  T="Blade"
 DATAPACKING=BLOCK
 VARLOCATION=([4]=CELLCENTERED,[5]=CELLCENTERED)
  0.251247494588784       0.234129155708775       0.217010816828766     
  0.199892477948756       0.182774139068747       0.165655800188738     
  0.148537461308728       0.131419122428719       0.114300783548710     
  9.718244466870084E-002  8.006410578869148E-002  0.252825439337228     
  0.235707100457219       0.218588761577210       0.201470422697200     
  0.184352083817191       0.167233744937182       0.150115406057173     
  0.132997067177164       0.115878728297154       9.876038941714513E-002
  8.164205053713564E-002  0.257534388451259       0.240416049571250     
  0.223297710691241       0.206179371811232       0.189061032931222     
  0.171942694051213       0.154824355171204       0.137706016291195     
  0.120587677411185       0.103469338531176       8.635099965116681E-002
  0.265300078990359       0.248181740110350       0.231063401230341     
  0.213945062350331       0.196826723470322       0.179708384590313     
  0.162590045710304       0.145471706830295       0.128353367950285     
  0.111235029070276       9.411669019026681E-002  0.276000041375728     
  0.258881702495718       0.241763363615709       0.224645024735700     
  0.207526685855691       0.190408346975681       0.173290008095672     
  0.156171669215663       0.139053330335654       0.121934991455645     
  0.104816652575635       0.289465530808700       0.272347191928691     
  0.255228853048681       0.238110514168672       0.220992175288663     
  0.203873836408654       0.186755497528644       0.169637158648635     
  0.152518819768626       0.135400480888616       0.118282142008607     
  0.305484188477024       0.288365849597015       0.271247510717006     
  0.254129171836996       0.237010832956987       0.219892494076978     
  0.202774155196968       0.185655816316959       0.168537477436949     
  0.151419138556940       0.134300799676931       0.323803390580188     
  0.306685051700179       0.289566712820169       0.272448373940160     
  0.255330035060151       0.238211696180142       0.221093357300132     
  0.203975018420123       0.186856679540114       0.169738340660105     
  0.152620001780096       0.344134232357665       0.327015893477656     
  0.309897554597647       0.292779215717638       0.275660876837628     
  0.258542537957619       0.241424199077610       0.224305860197600     
  0.207187521317591       0.190069182437582       0.172950843557573     
  0.366156084289568       0.349037745409558       0.331919406529549     
  0.314801067649540       0.297682728769531       0.280564389889521     
  0.263446051009512       0.246327712129503       0.229209373249493     
  0.212091034369485       0.194972695489475       0.389521648615714     
  0.372403309735704       0.355284970855695       0.338166631975686     
  0.321048293095676       0.303929954215667       0.286811615335657     
  0.269693276455649       0.252574937575639       0.235456598695630     
  0.218338259815621       0.413862436428767       0.396744097548757     
  0.379625758668748       0.362507419788739       0.345389080908729     
  0.328270742028720       0.311152403148710       0.294034064268702     
  0.276915725388693       0.259797386508683       0.242679047628674     
  0.438794578964434       0.421676240084425       0.404557901204415     
  0.387439562324407       0.370321223444397       0.353202884564388     
  0.336084545684378       0.318966206804369       0.301847867924360     
  0.284729529044351       0.267611190164341       0.463924881441188     
  0.446806542561179       0.429688203681170       0.412569864801160     
  0.395451525921151       0.378333187041142       0.361214848161132     
  0.344096509281124       0.326978170401114       0.309859831521105     
  0.292741492641096       0.488857023976856       0.471738685096847     
  0.454620346216838       0.437502007336828       0.420383668456820     
  0.403265329576810       0.386146990696800       0.369028651816791     
  0.351910312936782       0.334791974056773       0.317673635176764     
  0.513197811789908       0.496079472909899       0.478961134029891     
  0.461842795149881       0.444724456269872       0.427606117389863     
  0.410487778509854       0.393369439629844       0.376251100749835     
  0.359132761869826       0.342014422989817       0.536563376116054     
  0.519445037236045       0.502326698356036       0.485208359476027     
  0.468090020596017       0.450971681716008       0.433853342835999     
  0.416735003955990       0.399616665075980       0.382498326195972     
  0.365379987315962       0.558585228047957       0.541466889167947     
  0.524348550287938       0.507230211407930       0.490111872527920     
  0.472993533647911       0.455875194767901       0.438756855887892     
  0.421638517007882       0.404520178127873       0.387401839247865     
  0.578916069825434       0.561797730945425       0.544679392065415     
  0.527561053185406       0.510442714305398       0.493324375425387     
  0.476206036545378       0.459087697665369       0.441969358785360     
  0.424851019905351       0.407732681025342       0.597235271928599     
  0.580116933048589       0.562998594168580       0.545880255288571     
  0.528761916408562       0.511643577528552       0.494525238648543     
  0.477406899768534       0.460288560888525       0.443170222008516     
  0.426051883128506       0.613253929596922       0.596135590716913     
  0.579017251836904       0.561898912956895       0.544780574076885     
  0.527662235196876       0.510543896316868       0.493425557436859     
  0.476307218556849       0.459188879676839       0.442070540796830     
  0.626719419029894       0.609601080149886       0.592482741269876     
  0.575364402389867       0.558246063509858       0.541127724629848     
  0.524009385749840       0.506891046869830       0.489772707989820     
  0.472654369109811       0.455536030229801       0.637419381415265     
  0.620301042535253       0.603182703655245       0.586064364775234     
  0.568946025895226       0.551827687015216       0.534709348135206     
  0.517591009255198       0.500472670375189       0.483354331495180     
  0.466235992615169       0.645185071954363       0.628066733074354     
  0.610948394194345       0.593830055314335       0.576711716434326     
  0.559593377554315       0.542475038674307       0.525356699794299     
  0.508238360914289       0.491120022034280       0.474001683154270     
  0.649894021068393       0.632775682188385       0.615657343308376     
  0.598539004428366       0.581420665548357       0.564302326668348     
  0.547183987788338       0.530065648908328       0.512947310028320     
  0.495828971148310       0.478710632268301       0.651471965816838     
  0.634353626936830       0.617235288056820       0.600116949176811     
  0.582998610296801       0.565880271416792       0.548761932536782     
  0.531643593656772       0.514525254776765       0.497406915896754     
  0.480288577016746     
 -9.363120550853346E-002 -0.101558112868550      -0.109485020228567     
 -0.117411927588584      -0.125338834948601      -0.133265742308618     
 -0.141192649668634      -0.149119557028651      -0.157046464388668     
 -0.164973371748685      -0.172900279108702      -9.703881350885507E-002
 -0.104965720868872      -0.112892628228888      -0.120819535588905     
 -0.128746442948922      -0.136673350308939      -0.144600257668956     
 -0.152527165028973      -0.160454072388989      -0.168380979749007     
 -0.176307887109023      -0.107207897496047      -0.115134804856064     
 -0.123061712216080      -0.130988619576097      -0.138915526936114     
 -0.146842434296131      -0.154769341656148      -0.162696249016165     
 -0.170623156376182      -0.178550063736198      -0.186476971096215     
 -0.123978084940916      -0.131904992300933      -0.139831899660950     
 -0.147758807020966      -0.155685714380983      -0.163612621741000     
 -0.171539529101017      -0.179466436461034      -0.187393343821051     
 -0.195320251181067      -0.203247158541084      -0.147084899969432     
 -0.155011807329449      -0.162938714689466      -0.170865622049482     
 -0.178792529409499      -0.186719436769516      -0.194646344129533     
 -0.202573251489549      -0.210500158849566      -0.218427066209583     
 -0.226353973569600      -0.176163934305252      -0.184090841665269     
 -0.192017749025286      -0.199944656385303      -0.207871563745319     
 -0.215798471105337      -0.223725378465353      -0.231652285825370     
 -0.239579193185386      -0.247506100545403      -0.255433007905421     
 -0.210756594205929      -0.218683501565946      -0.226610408925962     
 -0.234537316285979      -0.242464223645996      -0.250391131006013     
 -0.258318038366029      -0.266244945726047      -0.274171853086063     
 -0.282098760446080      -0.290025667806096      -0.250317332760173     
 -0.258244240120191      -0.266171147480207      -0.274098054840224     
 -0.282024962200241      -0.289951869560258      -0.297878776920275     
 -0.305805684280292      -0.313732591640308      -0.321659499000326     
 -0.329586406360343      -0.294222253488548      -0.302149160848564     
 -0.310076068208581      -0.318002975568598      -0.325929882928615     
 -0.333856790288631      -0.341783697648648      -0.349710605008665     
 -0.357637512368682      -0.365564419728699      -0.373491327088716     
 -0.341778949563635      -0.349705856923652      -0.357632764283669     
 -0.365559671643685      -0.373486579003702      -0.381413486363719     
 -0.389340393723736      -0.397267301083753      -0.405194208443770     
 -0.413121115803786      -0.421048023163803      -0.392237423479339     
 -0.400164330839357      -0.408091238199373      -0.416018145559389     
 -0.423945052919407      -0.431871960279423      -0.439798867639440     
 -0.447725774999457      -0.455652682359474      -0.463579589719491     
 -0.471506497079507      -0.444801914959578      -0.452728822319595     
 -0.460655729679612      -0.468582637039628      -0.476509544399645     
 -0.484436451759662      -0.492363359119679      -0.500290266479696     
 -0.508217173839712      -0.516144081199730      -0.524070988559746     
 -0.498643450573203      -0.506570357933219      -0.514497265293236     
 -0.522424172653253      -0.530351080013269      -0.538277987373287     
 -0.546204894733303      -0.554131802093321      -0.562058709453337     
 -0.569985616813354      -0.577912524173371      -0.552912917140213     
 -0.560839824500230      -0.568766731860246      -0.576693639220263     
 -0.584620546580280      -0.592547453940296      -0.600474361300313     
 -0.608401268660329      -0.616328176020347      -0.624255083380364     
 -0.632181990740381      -0.606754452753837      -0.614681360113855     
 -0.622608267473871      -0.630535174833889      -0.638462082193904     
 -0.646388989553920      -0.654315896913938      -0.662242804273954     
 -0.670169711633972      -0.678096618993989      -0.686023526354006     
 -0.659318944234075      -0.667245851594092      -0.675172758954109     
 -0.683099666314126      -0.691026573674143      -0.698953481034159     
 -0.706880388394177      -0.714807295754194      -0.722734203114209     
 -0.730661110474227      -0.738588017834244      -0.709777418149781     
 -0.717704325509797      -0.725631232869814      -0.733558140229830     
 -0.741485047589847      -0.749411954949863      -0.757338862309880     
 -0.765265769669897      -0.773192677029914      -0.781119584389932     
 -0.789046491749949      -0.757334114224867      -0.765261021584884     
 -0.773187928944900      -0.781114836304919      -0.789041743664935     
 -0.796968651024952      -0.804895558384969      -0.812822465744985     
 -0.820749373105002      -0.828676280465019      -0.836603187825035     
 -0.801239034953242      -0.809165942313258      -0.817092849673275     
 -0.825019757033292      -0.832946664393309      -0.840873571753324     
 -0.848800479113342      -0.856727386473359      -0.864654293833376     
 -0.872581201193393      -0.880508108553409      -0.840799773507486     
 -0.848726680867503      -0.856653588227519      -0.864580495587536     
 -0.872507402947553      -0.880434310307570      -0.888361217667588     
 -0.896288125027604      -0.904215032387622      -0.912141939747637     
 -0.920068847107654      -0.875392433408161      -0.883319340768180     
 -0.891246248128195      -0.899173155488214      -0.907100062848231     
 -0.915026970208247      -0.922953877568264      -0.930880784928281     
 -0.938807692288298      -0.946734599648315      -0.954661507008331     
 -0.904471467743983      -0.912398375104001      -0.920325282464017     
 -0.928252189824034      -0.936179097184050      -0.944106004544067     
 -0.952032911904084      -0.959959819264101      -0.967886726624117     
 -0.975813633984134      -0.983740541344152      -0.927578282772499     
 -0.935505190132516      -0.943432097492534      -0.951359004852548     
 -0.959285912212566      -0.967212819572582      -0.975139726932598     
 -0.983066634292616      -0.990993541652633      -0.998920449012652     
  -1.00684735637267      -0.944348470217368      -0.952275377577384     
 -0.960202284937402      -0.968129192297418      -0.976056099657435     
 -0.983983007017451      -0.991909914377469      -0.999836821737487     
  -1.00776372909750       -1.01569063645752       -1.02361754381754     
 -0.954517554204561      -0.962444461564576      -0.970371368924593     
 -0.978298276284611      -0.986225183644629      -0.994152091004644     
  -1.00207899836466       -1.01000590572468       -1.01793281308469     
  -1.02585972044471       -1.03378662780473      -0.957925162204882     
 -0.965852069564898      -0.973778976924916      -0.981705884284932     
 -0.989632791644948      -0.997559699004965       -1.00548660636498     
  -1.01341351372500       -1.02134042108502       -1.02926732844503     
  -1.03719423580505     
  2.651247573289247E-002  2.386122815960322E-002  2.120998058631397E-002
  1.855873301302472E-002  1.590748543973548E-002  1.325623786644623E-002
  1.060499029315698E-002  7.953742719867740E-003  5.302495146578492E-003
  2.651247573289244E-003  0.000000000000000E+000  2.651247573289247E-002
  2.386122815960322E-002  2.120998058631397E-002  1.855873301302472E-002
  1.590748543973548E-002  1.325623786644623E-002  1.060499029315698E-002
  7.953742719867740E-003  5.302495146578492E-003  2.651247573289244E-003
  0.000000000000000E+000  2.651247573289247E-002  2.386122815960322E-002
  2.120998058631397E-002  1.855873301302472E-002  1.590748543973548E-002
  1.325623786644623E-002  1.060499029315698E-002  7.953742719867740E-003
  5.302495146578492E-003  2.651247573289244E-003  0.000000000000000E+000
  2.651247573289247E-002  2.386122815960322E-002  2.120998058631397E-002
  1.855873301302472E-002  1.590748543973548E-002  1.325623786644623E-002
  1.060499029315698E-002  7.953742719867740E-003  5.302495146578492E-003
  2.651247573289244E-003  0.000000000000000E+000  2.651247573289247E-002
  2.386122815960322E-002  2.120998058631397E-002  1.855873301302472E-002
  1.590748543973548E-002  1.325623786644623E-002  1.060499029315698E-002
  7.953742719867740E-003  5.302495146578492E-003  2.651247573289244E-003
  0.000000000000000E+000  2.651247573289247E-002  2.386122815960322E-002
  2.120998058631397E-002  1.855873301302472E-002  1.590748543973548E-002
  1.325623786644623E-002  1.060499029315698E-002  7.953742719867740E-003
  5.302495146578492E-003  2.651247573289244E-003  0.000000000000000E+000
  2.651247573289247E-002  2.386122815960322E-002  2.120998058631397E-002
  1.855873301302472E-002  1.590748543973548E-002  1.325623786644623E-002
  1.060499029315698E-002  7.953742719867740E-003  5.302495146578492E-003
  2.651247573289244E-003  0.000000000000000E+000  2.651247573289247E-002
  2.386122815960322E-002  2.120998058631397E-002  1.855873301302472E-002
  1.590748543973548E-002  1.325623786644623E-002  1.060499029315698E-002
  7.953742719867740E-003  5.302495146578492E-003  2.651247573289244E-003
  0.000000000000000E+000  2.651247573289247E-002  2.386122815960322E-002
  2.120998058631397E-002  1.855873301302472E-002  1.590748543973548E-002
  1.325623786644623E-002  1.060499029315698E-002  7.953742719867740E-003
  5.302495146578492E-003  2.651247573289244E-003  0.000000000000000E+000
  2.651247573289247E-002  2.386122815960322E-002  2.120998058631397E-002
  1.855873301302472E-002  1.590748543973548E-002  1.325623786644623E-002
  1.060499029315698E-002  7.953742719867740E-003  5.302495146578492E-003
  2.651247573289244E-003  0.000000000000000E+000  2.651247573289247E-002
  2.386122815960322E-002  2.120998058631397E-002  1.855873301302472E-002
  1.590748543973548E-002  1.325623786644623E-002  1.060499029315698E-002
  7.953742719867740E-003  5.302495146578492E-003  2.651247573289244E-003
  0.000000000000000E+000  2.651247573289247E-002  2.386122815960322E-002
  2.120998058631397E-002  1.855873301302472E-002  1.590748543973548E-002
  1.325623786644623E-002  1.060499029315698E-002  7.953742719867740E-003
  5.302495146578492E-003  2.651247573289244E-003  0.000000000000000E+000
  2.651247573289247E-002  2.386122815960322E-002  2.120998058631397E-002
  1.855873301302472E-002  1.590748543973548E-002  1.325623786644623E-002
  1.060499029315698E-002  7.953742719867740E-003  5.302495146578492E-003
  2.651247573289244E-003  0.000000000000000E+000  2.651247573289247E-002
  2.386122815960322E-002  2.120998058631397E-002  1.855873301302472E-002
  1.590748543973548E-002  1.325623786644623E-002  1.060499029315698E-002
  7.953742719867740E-003  5.302495146578492E-003  2.651247573289244E-003
  0.000000000000000E+000  2.651247573289247E-002  2.386122815960322E-002
  2.120998058631397E-002  1.855873301302472E-002  1.590748543973548E-002
  1.325623786644623E-002  1.060499029315698E-002  7.953742719867740E-003
  5.302495146578492E-003  2.651247573289244E-003  0.000000000000000E+000
  2.651247573289247E-002  2.386122815960322E-002  2.120998058631397E-002
  1.855873301302472E-002  1.590748543973548E-002  1.325623786644623E-002
  1.060499029315698E-002  7.953742719867740E-003  5.302495146578492E-003
  2.651247573289244E-003  0.000000000000000E+000  2.651247573289247E-002
  2.386122815960322E-002  2.120998058631397E-002  1.855873301302472E-002
  1.590748543973548E-002  1.325623786644623E-002  1.060499029315698E-002
  7.953742719867740E-003  5.302495146578492E-003  2.651247573289244E-003
  0.000000000000000E+000  2.651247573289247E-002  2.386122815960322E-002
  2.120998058631397E-002  1.855873301302472E-002  1.590748543973548E-002
  1.325623786644623E-002  1.060499029315698E-002  7.953742719867740E-003
  5.302495146578492E-003  2.651247573289244E-003  0.000000000000000E+000
  2.651247573289247E-002  2.386122815960322E-002  2.120998058631397E-002
  1.855873301302472E-002  1.590748543973548E-002  1.325623786644623E-002
  1.060499029315698E-002  7.953742719867740E-003  5.302495146578492E-003
  2.651247573289244E-003  0.000000000000000E+000  2.651247573289247E-002
  2.386122815960322E-002  2.120998058631397E-002  1.855873301302472E-002
  1.590748543973548E-002  1.325623786644623E-002  1.060499029315698E-002
  7.953742719867740E-003  5.302495146578492E-003  2.651247573289244E-003
  0.000000000000000E+000  2.651247573289247E-002  2.386122815960322E-002
  2.120998058631397E-002  1.855873301302472E-002  1.590748543973548E-002
  1.325623786644623E-002  1.060499029315698E-002  7.953742719867740E-003
  5.302495146578492E-003  2.651247573289244E-003  0.000000000000000E+000
  2.651247573289247E-002  2.386122815960322E-002  2.120998058631397E-002
  1.855873301302472E-002  1.590748543973548E-002  1.325623786644623E-002
  1.060499029315698E-002  7.953742719867740E-003  5.302495146578492E-003
  2.651247573289244E-003  0.000000000000000E+000  2.651247573289247E-002
  2.386122815960322E-002  2.120998058631397E-002  1.855873301302472E-002
  1.590748543973548E-002  1.325623786644623E-002  1.060499029315698E-002
  7.953742719867740E-003  5.302495146578492E-003  2.651247573289244E-003
  0.000000000000000E+000  2.651247573289247E-002  2.386122815960322E-002
  2.120998058631397E-002  1.855873301302472E-002  1.590748543973548E-002
  1.325623786644623E-002  1.060499029315698E-002  7.953742719867740E-003
  5.302495146578492E-003  2.651247573289244E-003  0.000000000000000E+000
  2.651247573289247E-002  2.386122815960322E-002  2.120998058631397E-002
  1.855873301302472E-002  1.590748543973548E-002  1.325623786644623E-002
  1.060499029315698E-002  7.953742719867740E-003  5.302495146578492E-003
  2.651247573289244E-003  0.000000000000000E+000  2.651247573289247E-002
  2.386122815960322E-002  2.120998058631397E-002  1.855873301302472E-002
  1.590748543973548E-002  1.325623786644623E-002  1.060499029315698E-002
  7.953742719867740E-003  5.302495146578492E-003  2.651247573289244E-003
  0.000000000000000E+000
  4.273331280554766E-003  1.599161240354088E-002  2.907585673456788E-002
  4.282751428430717E-002  5.736119555487648E-002  7.297254745975941E-002
  8.994393447949443E-002  0.108513889416384       0.128796185748384     
  0.149841499535027       9.661021500184927E-003  2.932128352102721E-002
  5.126085110870141E-002  7.431318353397466E-002  9.858288758945746E-002
  0.124499542450700       0.152538789472313       0.183105936440831     
  0.216439501270540       0.251377066582182       2.172752006615486E-002
  4.944219408057595E-002  7.957677428741287E-002  0.111017320889458     
  0.143753866573654       0.178204697340276       0.214957947832854     
  0.254490881097552       0.296897741129605       0.339762485868956     
  4.237242431524801E-002  7.988001207968648E-002  0.118024853074423     
  0.156834294167424       0.196368675994345       0.236934645170401     
  0.279008272873430       0.323052121066552       0.369161278873530     
  0.414475191399922       7.297142539158122E-002  0.123992909438109     
  0.171690950782173       0.218211921036812       0.264131174627719     
  0.309789895244614       0.355546014314060       0.401686747245448     
  0.448003385764069       0.491894876537772       0.114630305493956     
  0.184119425584978       0.244246707723906       0.300117526434749     
  0.353309191861604       0.404473312475311       0.453922878904193     
  0.501700554598897       0.547331131352603       0.588230632453032     
  0.168496062915803       0.262018703864919       0.338080257249135     
  0.405534398715315       0.467358552512100       0.524799732396046     
  0.578336202695213       0.627911256003718       0.672773000872642     
  0.710117151629052       0.234903991726042       0.358004583224519     
  0.453540867032143       0.534930947075451       0.606855672595899     
  0.671343501517720       0.729215502013250       0.780510781319720     
  0.824399955913670       0.857956321583294       0.312716556141215     
  0.470408828703347       0.588655975102647       0.686236942725859     
  0.769853706860320       0.842526279513176       0.905619688287424     
  0.959465413920270        1.00338007878178        1.03461531273795     
  0.400343032088754       0.597162408818286       0.741272209676917     
  0.857511413131104       0.954908003771123        1.03765800180460     
   1.10782079685272        1.16618268642210        1.21236525614062     
   1.24382719019295       0.496529838007812       0.736632213296752     
  0.909659095122219        1.04708588398282        1.16050714664663     
   1.25543532858007        1.33472020054233        1.39966474315433     
   1.45020598867284        1.48388905458300       0.600040474451126     
  0.886984570734372        1.09153156359974        1.25227861447976     
   1.38357419375879        1.49234797897361        1.58229294205589     
   1.65524107017285        1.71143728913125        1.74845582225929     
  0.709667934304707        1.04632265864786        1.28440823845812     
   1.47004947772081        1.62051184040007        1.74422179778264     
   1.84575060582514        1.92747743656485        1.98996056213729     
   2.03077943463459       0.824408015943447        1.21299918321867     
   1.48606067407302        1.69760654359208        1.86795891436540     
   2.00712142453177        2.12059521988925        2.21133702269424     
   2.28023369596768        2.32488731806939       0.943628697957915     
   1.38587429929946        1.69481003764037        1.93269261481619     
   2.12305394769023        2.27757468862908        2.40276516787023     
   2.50221773940912        2.57720089455982        2.62540861944010     
   1.06844183329539        1.56612514852476        1.91150846542829     
   2.17560887324021        2.38542615538930        2.55448414577985     
   2.69043740249105        2.79763713909482        2.87784539379398     
   2.92898260940505        1.20636183492249        1.76310403089752     
   2.14570240106256        2.43537474343562        2.66329005881792     
   2.84521391248676        2.99017948571229        3.10346659750359     
   3.18748790597681        3.24058348472673        1.37866621622127     
   2.00226732133942        2.42314355988167        2.73707546474200     
   2.98112600273591        3.17395948045617        3.32622575288966     
   3.44423311296057        3.53111529131623        3.58570717235969     
   1.57829293022364        2.27329050791546        2.73133062699224     
   3.06637223258409        3.32279750914023        3.52283557993879     
   3.67910752980583        3.79913404922868        3.88685918275124     
   3.94173235658223        1.70846542183187        2.44449032696108     
   2.91914154651297        3.25916208184405        3.51441791328515     
   3.71017543577185        3.86082402929492        3.97489939141659     
   4.05700788721035        4.10745760402649        1.72500324568790     
   2.44866534019660        2.90373414651092        3.22270314450906     
   3.45793936117208        3.63578648343267        3.77096671019149     
   3.87196520745314        3.94326415240754        3.98569733378867     
   1.62125274917961        2.27176192704453        2.66681089965924     
   2.93728203523013        3.13372624181815        3.28068446388465     
   3.39135397782342        3.47299284005848        3.52914086168271     
   3.56042848987665        1.40625385784750        1.92619763440463     
   2.22983640005393        2.43464453031225        2.58256300833355     
   2.69295932028654        2.77598186243842        2.83715306992395     
   2.87927811175720        2.90317282097670        1.07718685960045     
   1.42866138722437        1.63109466413453        1.76795229313815     
   1.86715419461599        1.94143827925983        1.99752770093230     
   2.03923166555681        2.06902986363752        2.09052168441204     
  0.655247255594293       0.852073165246236       0.966505343498312     
   1.04430725063641        1.10090236476167        1.14338312630828     
   1.17551276828828        1.19940404160068        1.21621637164404     
   1.22628449375665     
  0.000000000000000E+000  0.000000000000000E+000  0.000000000000000E+000
  0.000000000000000E+000  0.000000000000000E+000  0.000000000000000E+000
  0.000000000000000E+000  0.000000000000000E+000  0.000000000000000E+000
  0.000000000000000E+000  0.000000000000000E+000  0.000000000000000E+000
  0.000000000000000E+000  0.000000000000000E+000  0.000000000000000E+000
  0.000000000000000E+000  0.000000000000000E+000  0.000000000000000E+000
  0.000000000000000E+000  0.000000000000000E+000  0.000000000000000E+000
  0.000000000000000E+000  0.000000000000000E+000  0.000000000000000E+000
  0.000000000000000E+000  0.000000000000000E+000  0.000000000000000E+000
  0.000000000000000E+000  0.000000000000000E+000  0.000000000000000E+000
  0.000000000000000E+000  0.000000000000000E+000  0.000000000000000E+000
  0.000000000000000E+000  0.000000000000000E+000  0.000000000000000E+000
  0.000000000000000E+000  0.000000000000000E+000  0.000000000000000E+000
  0.000000000000000E+000  0.000000000000000E+000  0.000000000000000E+000
  0.000000000000000E+000  0.000000000000000E+000  0.000000000000000E+000
  0.000000000000000E+000  0.000000000000000E+000  0.000000000000000E+000
  0.000000000000000E+000  0.000000000000000E+000  0.000000000000000E+000
  0.000000000000000E+000  0.000000000000000E+000  0.000000000000000E+000
  0.000000000000000E+000  0.000000000000000E+000  0.000000000000000E+000
  0.000000000000000E+000  0.000000000000000E+000  0.000000000000000E+000
  0.000000000000000E+000  0.000000000000000E+000  0.000000000000000E+000
  0.000000000000000E+000  0.000000000000000E+000  0.000000000000000E+000
  0.000000000000000E+000  0.000000000000000E+000  0.000000000000000E+000
  0.000000000000000E+000  0.000000000000000E+000  0.000000000000000E+000
  0.000000000000000E+000  0.000000000000000E+000  0.000000000000000E+000
  0.000000000000000E+000  0.000000000000000E+000  0.000000000000000E+000
  0.000000000000000E+000  0.000000000000000E+000  0.000000000000000E+000
  0.000000000000000E+000  0.000000000000000E+000  0.000000000000000E+000
  0.000000000000000E+000  0.000000000000000E+000  0.000000000000000E+000
  0.000000000000000E+000  0.000000000000000E+000  0.000000000000000E+000
  0.000000000000000E+000  0.000000000000000E+000  0.000000000000000E+000
  0.000000000000000E+000  0.000000000000000E+000  0.000000000000000E+000
  0.000000000000000E+000  0.000000000000000E+000  0.000000000000000E+000
  0.000000000000000E+000  0.000000000000000E+000  0.000000000000000E+000
  0.000000000000000E+000  0.000000000000000E+000  0.000000000000000E+000
  0.000000000000000E+000  0.000000000000000E+000  0.000000000000000E+000
  0.000000000000000E+000  0.000000000000000E+000  0.000000000000000E+000
  0.000000000000000E+000  0.000000000000000E+000  0.000000000000000E+000
  0.000000000000000E+000  0.000000000000000E+000  0.000000000000000E+000