 Title = "Wing and Wake"
 VARIABLES = "X" "Y" "Z" "GAM" "skew"
 Zone I=   11 J=   26 K=1  T="Blade"
 DATAPACKING=BLOCK
 VARLOCATION=([4]=CELLCENTERED,[5]=CELLCENTERED)
 -9.677025411640042E-003  4.198947721539461E-003  1.807492085471899E-002
  3.195089398789843E-002  4.582686712107781E-002  5.970284025425729E-002
  7.357881338743663E-002  8.745478652061635E-002  0.101330759653796     
  0.115206732786975       0.129082705920155      -7.132996774646538E-003
  6.742976358532578E-003  2.061894949171208E-002  3.449492262489133E-002
  4.837089575807102E-002  6.224686889125034E-002  7.612284202442987E-002
  8.999881515760949E-002  0.103874788290789       0.117750761423968     
  0.131626734557148       4.589682849977788E-004  1.433494141817709E-002
  2.821091455135668E-002  4.208688768453617E-002  5.596286081771570E-002
  6.983883395089520E-002  8.371480708407440E-002  9.759078021725423E-002
  0.111466753350434       0.125342726483613       0.139218699616792     
  1.297913994308377E-002  2.685511307626336E-002  4.073108620944289E-002
  5.460705934262221E-002  6.848303247580155E-002  8.235900560898103E-002
  9.623497874216042E-002  0.110110951875340       0.123986925008519     
  0.137862898141699       0.151738871274878       3.023006761337472E-002
  4.410604074655390E-002  5.798201387973359E-002  7.185798701291272E-002
  8.573396014609212E-002  9.960993327927187E-002  0.113485906412451     
  0.127361879545631       0.141237852678810       0.155113825811990     
  0.168989798945169       5.193969386130478E-002  6.581566699448435E-002
  7.969164012766371E-002  9.356761326084324E-002  0.107443586394023     
  0.121319559527202       0.135195532660382       0.149071505793561     
  0.162947478926740       0.176823452059920       0.190699425193100     
  7.776564491224380E-002  9.164161804542310E-002  0.105517591178602     
  0.119393564311782       0.133269537444961       0.147145510578140     
  0.161021483711320       0.174897456844500       0.188773429977680     
  0.202649403110858       0.216525376244037       0.107300630090441     
  0.121176603223620       0.135052576356801       0.148928549489979     
  0.162804522623159       0.176680495756338       0.190556468889518     
  0.204432442022697       0.218308415155877       0.232184388289057     
  0.246060361422236       0.140078865036293       0.153954838169473     
  0.167830811302652       0.181706784435831       0.195582757569011     
  0.209458730702190       0.223334703835369       0.237210676968550     
  0.251086650101728       0.264962623234908       0.278838596368087     
  0.175583417403935       0.189459390537113       0.203335363670293     
  0.217211336803472       0.231087309936652       0.244963283069831     
  0.258839256203011       0.272715229336191       0.286591202469370     
  0.300467175602549       0.314343148735728       0.213254359193136     
  0.227130332326316       0.241006305459495       0.254882278592674     
  0.268758251725854       0.282634224859033       0.296510197992213     
  0.310386171125392       0.324262144258572       0.338138117391751     
  0.352014090524930       0.252497597148352       0.266373570281531     
  0.280249543414712       0.294125516547890       0.308001489681070     
  0.321877462814250       0.335753435947429       0.349629409080608     
  0.363505382213788       0.377381355346968       0.391257328480146     
  0.292694241964256       0.306570215097435       0.320446188230615     
  0.334322161363794       0.348198134496973       0.362074107630152     
  0.375950080763333       0.389826053896512       0.403702027029691     
  0.417578000162870       0.431453973296050       0.333210368539789     
  0.347086341672968       0.360962314806146       0.374838287939326     
  0.388714261072506       0.402590234205685       0.416466207338864     
  0.430342180472043       0.444218153605223       0.458094126738403     
  0.471970099871582       0.373407013355690       0.387282986488871     
  0.401158959622050       0.415034932755231       0.428910905888409     
  0.442786879021588       0.456662852154768       0.470538825287946     
  0.484414798421127       0.498290771554306       0.512166744687486     
  0.412650251310906       0.426526224444087       0.440402197577266     
  0.454278170710446       0.468154143843626       0.482030116976804     
  0.495906090109984       0.509782063243164       0.523658036376341     
  0.537534009509523       0.551409982642703       0.450321193100111     
  0.464197166233288       0.478073139366468       0.491949112499648     
  0.505825085632827       0.519701058766005       0.533577031899185     
  0.547453005032365       0.561328978165545       0.575204951298724     
  0.589080924431904       0.485825745467749       0.499701718600930     
  0.513577691734108       0.527453664867290       0.541329638000468     
  0.555205611133648       0.569081584266828       0.582957557400007     
  0.596833530533186       0.610709503666365       0.624585476799544     
  0.518603980413603       0.532479953546782       0.546355926679962     
  0.560231899813141       0.574107872946319       0.587983846079498     
  0.601859819212679       0.615735792345859       0.629611765479039     
  0.643487738612217       0.657363711745396       0.548138965591800     
  0.562014938724979       0.575890911858157       0.589766884991337     
  0.603642858124518       0.617518831257697       0.631394804390877     
  0.645270777524056       0.659146750657237       0.673022723790414     
  0.686898696923593       0.573964916642738       0.587840889775918     
  0.601716862909096       0.615592836042277       0.629468809175457     
  0.643344782308636       0.657220755441816       0.671096728574994     
  0.684972701708174       0.698848674841354       0.712724647974532     
  0.595674542890669       0.609550516023848       0.623426489157029     
  0.637302462290208       0.651178435423387       0.665054408556566     
  0.678930381689745       0.692806354822924       0.706682327956104     
  0.720558301089283       0.734434274222465       0.612925470560959     
  0.626801443694140       0.640677416827320       0.654553389960497     
  0.668429363093678       0.682305336226857       0.696181309360035     
  0.710057282493215       0.723933255626395       0.737809228759577     
  0.751685201892754       0.625445642219046       0.639321615352224     
  0.653197588485405       0.667073561618584       0.680949534751764     
  0.694825507884944       0.708701481018122       0.722577454151302     
  0.736453427284482       0.750329400417660       0.764205373550840     
  0.633037607278692       0.646913580411869       0.660789553545047     
  0.674665526678229       0.688541499811410       0.702417472944587     
  0.716293446077767       0.730169419210943       0.744045392344126     
  0.757921365477306       0.771797338610483       0.635581635915686     
  0.649457609048863       0.663333582182042       0.677209555315222     
  0.691085528448402       0.704961501581579       0.718837474714760     
  0.732713447847940       0.746589420981120       0.760465394114300     
  0.774341367247480     
  0.267952349049798       0.255172256878283       0.242392164706768     
  0.229612072535254       0.216831980363739       0.204051888192225     
  0.191271796020710       0.178491703849196       0.165711611677681     
  0.152931519506167       0.140151427334653       0.270714525765208     
  0.257934433593694       0.245154341422179       0.232374249250664     
  0.219594157079150       0.206814064907635       0.194033972736121     
  0.181253880564606       0.168473788393092       0.155693696221578     
  0.142913604050063       0.278957494734592       0.266177402563078     
  0.253397310391563       0.240617218220048       0.227837126048534     
  0.215057033877020       0.202276941705505       0.189496849533991     
  0.176716757362476       0.163936665190962       0.151156573019447     
  0.292551259413193       0.279771167241678       0.266991075070164     
  0.254210982898649       0.241430890727135       0.228650798555620     
  0.215870706384106       0.203090614212592       0.190310522041077     
  0.177530429869563       0.164750337698048       0.311281438011507     
  0.298501345839992       0.285721253668477       0.272941161496963     
  0.260161069325449       0.247380977153934       0.234600884982420     
  0.221820792810905       0.209040700639391       0.196260608467877     
  0.183480516296362       0.334852644424171       0.322072552252657     
  0.309292460081142       0.296512367909628       0.283732275738114     
  0.270952183566599       0.258172091395084       0.245391999223570     
  0.232611907052055       0.219831814880541       0.207051722709027     
  0.362893146645304       0.350113054473790       0.337332962302275     
  0.324552870130761       0.311772777959246       0.298992685787732     
  0.286212593616217       0.273432501444703       0.260652409273188     
  0.247872317101674       0.235092224930159       0.394960729204292     
  0.382180637032778       0.369400544861264       0.356620452689749     
  0.343840360518235       0.331060268346721       0.318280176175205     
  0.305500084003691       0.292719991832177       0.279939899660663     
  0.267159807489149       0.430549667167937       0.417769574996423     
  0.404989482824908       0.392209390653394       0.379429298481879     
  0.366649206310364       0.353869114138850       0.341089021967336     
  0.328308929795821       0.315528837624307       0.302748745452792     
  0.469098701724749       0.456318609553234       0.443538517381720     
  0.430758425210205       0.417978333038691       0.405198240867177     
  0.392418148695662       0.379638056524148       0.366857964352633     
  0.354077872181119       0.341297780009604       0.509999891571692     
  0.497219799400178       0.484439707228662       0.471659615057148     
  0.458879522885633       0.446099430714119       0.433319338542604     
  0.420539246371090       0.407759154199576       0.394979062028061     
  0.382198969856546       0.552608200511691       0.539828108340174     
  0.527048016168661       0.514267923997147       0.501487831825632     
  0.488707739654119       0.475927647482602       0.463147555311089     
  0.450367463139575       0.437587370968060       0.424807278796545     
  0.596251670059792       0.583471577888278       0.570691485716763     
  0.557911393545250       0.545131301373734       0.532351209202221     
  0.519571117030705       0.506791024859191       0.494010932687677     
  0.481230840516163       0.468450748344648       0.640242016629879     
  0.627461924458365       0.614681832286850       0.601901740115336     
  0.589121647943822       0.576341555772308       0.563561463600792     
  0.550781371429279       0.538001279257764       0.525221187086249     
  0.512441094914735       0.683885486177983       0.671105394006468     
  0.658325301834954       0.645545209663439       0.632765117491925     
  0.619985025320410       0.607204933148895       0.594424840977381     
  0.581644748805867       0.568864656634353       0.556084564462838     
  0.726493795117980       0.713713702946466       0.700933610774952     
  0.688153518603438       0.675373426431924       0.662593334260409     
  0.649813242088894       0.637033149917380       0.624253057745864     
  0.611472965574351       0.598692873402837       0.767394984964923     
  0.754614892793408       0.741834800621894       0.729054708450381     
  0.716274616278866       0.703494524107350       0.690714431935836     
  0.677934339764322       0.665154247592807       0.652374155421294     
  0.639594063249780       0.805944019521735       0.793163927350220     
  0.780383835178705       0.767603743007193       0.754823650835677     
  0.742043558664163       0.729263466492648       0.716483374321134     
  0.703703282149619       0.690923189978104       0.678143097806591     
  0.841532957485380       0.828752865313865       0.815972773142349     
  0.803192680970836       0.790412588799322       0.777632496627806     
  0.764852404456291       0.752072312284779       0.739292220113264     
  0.726512127941749       0.713732035770234       0.873600540044369     
  0.860820447872853       0.848040355701338       0.835260263529825     
  0.822480171358310       0.809700079186795       0.796919987015282     
  0.784139894843767       0.771359802672254       0.758579710500738     
  0.745799618329223       0.901641042265499       0.888860950093986     
  0.876080857922471       0.863300765750958       0.850520673579442     
  0.837740581407927       0.824960489236416       0.812180397064899     
  0.799400304893385       0.786620212721870       0.773840120550355     
  0.925212248678165       0.912432156506653       0.899652064335137     
  0.886871972163622       0.874091879992109       0.861311787820592     
  0.848531695649078       0.835751603477564       0.822971511306048     
  0.810191419134536       0.797411326963022       0.943942427276482     
  0.931162335104965       0.918382242933451       0.905602150761935     
  0.892822058590421       0.880041966418907       0.867261874247390     
  0.854481782075878       0.841701689904363       0.828921597732851     
  0.816141505561333       0.957536191955082       0.944756099783567     
  0.931976007612051       0.919195915440536       0.906415823269023     
  0.893635731097507       0.880855638925993       0.868075546754479     
  0.855295454582965       0.842515362411449       0.829735270239934     
  0.965779160924465       0.952999068752950       0.940218976581434     
  0.927438884409920       0.914658792238406       0.901878700066892     
  0.889098607895378       0.876318515723861       0.863538423552349     
  0.850758331380836       0.837978239209319       0.968541337639875     
  0.955761245468362       0.942981153296846       0.930201061125332     
  0.917420968953816       0.904640876782301       0.891860784610787     
  0.879080692439273       0.866300600267761       0.853520508096244     
  0.840740415924732     
  2.651247573289247E-002  2.386122815960322E-002  2.120998058631397E-002
  1.855873301302472E-002  1.590748543973548E-002  1.325623786644623E-002
  1.060499029315698E-002  7.953742719867740E-003  5.302495146578492E-003
  2.651247573289244E-003  0.000000000000000E+000  2.651247573289247E-002
  2.386122815960322E-002  2.120998058631397E-002  1.855873301302472E-002
  1.590748543973548E-002  1.325623786644623E-002  1.060499029315698E-002
  7.953742719867740E-003  5.302495146578492E-003  2.651247573289244E-003
  0.000000000000000E+000  2.651247573289247E-002  2.386122815960322E-002
  2.120998058631397E-002  1.855873301302472E-002  1.590748543973548E-002
  1.325623786644623E-002  1.060499029315698E-002  7.953742719867740E-003
  5.302495146578492E-003  2.651247573289244E-003  0.000000000000000E+000
  2.651247573289247E-002  2.386122815960322E-002  2.120998058631397E-002
  1.855873301302472E-002  1.590748543973548E-002  1.325623786644623E-002
  1.060499029315698E-002  7.953742719867740E-003  5.302495146578492E-003
  2.651247573289244E-003  0.000000000000000E+000  2.651247573289247E-002
  2.386122815960322E-002  2.120998058631397E-002  1.855873301302472E-002
  1.590748543973548E-002  1.325623786644623E-002  1.060499029315698E-002
  7.953742719867740E-003  5.302495146578492E-003  2.651247573289244E-003
  0.000000000000000E+000  2.651247573289247E-002  2.386122815960322E-002
  2.120998058631397E-002  1.855873301302472E-002  1.590748543973548E-002
  1.325623786644623E-002  1.060499029315698E-002  7.953742719867740E-003
  5.302495146578492E-003  2.651247573289244E-003  0.000000000000000E+000
  2.651247573289247E-002  2.386122815960322E-002  2.120998058631397E-002
  1.855873301302472E-002  1.590748543973548E-002  1.325623786644623E-002
  1.060499029315698E-002  7.953742719867740E-003  5.302495146578492E-003
  2.651247573289244E-003  0.000000000000000E+000  2.651247573289247E-002
  2.386122815960322E-002  2.120998058631397E-002  1.855873301302472E-002
  1.590748543973548E-002  1.325623786644623E-002  1.060499029315698E-002
  7.953742719867740E-003  5.302495146578492E-003  2.651247573289244E-003
  0.000000000000000E+000  2.651247573289247E-002  2.386122815960322E-002
  2.120998058631397E-002  1.855873301302472E-002  1.590748543973548E-002
  1.325623786644623E-002  1.060499029315698E-002  7.953742719867740E-003
  5.302495146578492E-003  2.651247573289244E-003  0.000000000000000E+000
  2.651247573289247E-002  2.386122815960322E-002  2.120998058631397E-002
  1.855873301302472E-002  1.590748543973548E-002  1.325623786644623E-002
  1.060499029315698E-002  7.953742719867740E-003  5.302495146578492E-003
  2.651247573289244E-003  0.000000000000000E+000  2.651247573289247E-002
  2.386122815960322E-002  2.120998058631397E-002  1.855873301302472E-002
  1.590748543973548E-002  1.325623786644623E-002  1.060499029315698E-002
  7.953742719867740E-003  5.302495146578492E-003  2.651247573289244E-003
  0.000000000000000E+000  2.651247573289247E-002  2.386122815960322E-002
  2.120998058631397E-002  1.855873301302472E-002  1.590748543973548E-002
  1.325623786644623E-002  1.060499029315698E-002  7.953742719867740E-003
  5.302495146578492E-003  2.651247573289244E-003  0.000000000000000E+000
  2.651247573289247E-002  2.386122815960322E-002  2.120998058631397E-002
  1.855873301302472E-002  1.590748543973548E-002  1.325623786644623E-002
  1.060499029315698E-002  7.953742719867740E-003  5.302495146578492E-003
  2.651247573289244E-003  0.000000000000000E+000  2.651247573289247E-002
  2.386122815960322E-002  2.120998058631397E-002  1.855873301302472E-002
  1.590748543973548E-002  1.325623786644623E-002  1.060499029315698E-002
  7.953742719867740E-003  5.302495146578492E-003  2.651247573289244E-003
  0.000000000000000E+000  2.651247573289247E-002  2.386122815960322E-002
  2.120998058631397E-002  1.855873301302472E-002  1.590748543973548E-002
  1.325623786644623E-002  1.060499029315698E-002  7.953742719867740E-003
  5.302495146578492E-003  2.651247573289244E-003  0.000000000000000E+000
  2.651247573289247E-002  2.386122815960322E-002  2.120998058631397E-002
  1.855873301302472E-002  1.590748543973548E-002  1.325623786644623E-002
  1.060499029315698E-002  7.953742719867740E-003  5.302495146578492E-003
  2.651247573289244E-003  0.000000000000000E+000  2.651247573289247E-002
  2.386122815960322E-002  2.120998058631397E-002  1.855873301302472E-002
  1.590748543973548E-002  1.325623786644623E-002  1.060499029315698E-002
  7.953742719867740E-003  5.302495146578492E-003  2.651247573289244E-003
  0.000000000000000E+000  2.651247573289247E-002  2.386122815960322E-002
  2.120998058631397E-002  1.855873301302472E-002  1.590748543973548E-002
  1.325623786644623E-002  1.060499029315698E-002  7.953742719867740E-003
  5.302495146578492E-003  2.651247573289244E-003  0.000000000000000E+000
  2.651247573289247E-002  2.386122815960322E-002  2.120998058631397E-002
  1.855873301302472E-002  1.590748543973548E-002  1.325623786644623E-002
  1.060499029315698E-002  7.953742719867740E-003  5.302495146578492E-003
  2.651247573289244E-003  0.000000000000000E+000  2.651247573289247E-002
  2.386122815960322E-002  2.120998058631397E-002  1.855873301302472E-002
  1.590748543973548E-002  1.325623786644623E-002  1.060499029315698E-002
  7.953742719867740E-003  5.302495146578492E-003  2.651247573289244E-003
  0.000000000000000E+000  2.651247573289247E-002  2.386122815960322E-002
  2.120998058631397E-002  1.855873301302472E-002  1.590748543973548E-002
  1.325623786644623E-002  1.060499029315698E-002  7.953742719867740E-003
  5.302495146578492E-003  2.651247573289244E-003  0.000000000000000E+000
  2.651247573289247E-002  2.386122815960322E-002  2.120998058631397E-002
  1.855873301302472E-002  1.590748543973548E-002  1.325623786644623E-002
  1.060499029315698E-002  7.953742719867740E-003  5.302495146578492E-003
  2.651247573289244E-003  0.000000000000000E+000  2.651247573289247E-002
  2.386122815960322E-002  2.120998058631397E-002  1.855873301302472E-002
  1.590748543973548E-002  1.325623786644623E-002  1.060499029315698E-002
  7.953742719867740E-003  5.302495146578492E-003  2.651247573289244E-003
  0.000000000000000E+000  2.651247573289247E-002  2.386122815960322E-002
  2.120998058631397E-002  1.855873301302472E-002  1.590748543973548E-002
  1.325623786644623E-002  1.060499029315698E-002  7.953742719867740E-003
  5.302495146578492E-003  2.651247573289244E-003  0.000000000000000E+000
  2.651247573289247E-002  2.386122815960322E-002  2.120998058631397E-002
  1.855873301302472E-002  1.590748543973548E-002  1.325623786644623E-002
  1.060499029315698E-002  7.953742719867740E-003  5.302495146578492E-003
  2.651247573289244E-003  0.000000000000000E+000  2.651247573289247E-002
  2.386122815960322E-002  2.120998058631397E-002  1.855873301302472E-002
  1.590748543973548E-002  1.325623786644623E-002  1.060499029315698E-002
  7.953742719867740E-003  5.302495146578492E-003  2.651247573289244E-003
  0.000000000000000E+000
  1.631895824615380E-003  1.482587358452747E-002  3.126002846916340E-002
  5.004484109333417E-002  7.068511404316033E-002  9.235638325151502E-002
  0.114054726694414       0.134869991270531       0.153901832322973     
  0.170006829600205       5.216847250292445E-003  2.704004391945749E-002
  5.416714078368065E-002  8.503281257246714E-002  0.118883367342060     
  0.154512358031760       0.190430285017479       0.225261987043766     
  0.257521288027427       0.285553888591285       1.546435819218128E-002
  4.512467625191204E-002  8.072607726258520E-002  0.120367914647978     
  0.163238338939833       0.208332063452972       0.254317568857319     
  0.299720019181144       0.342454870557889       0.379066234099102     
  3.402803125834925E-002  7.211454472661230E-002  0.114005305801343     
  0.158441249711699       0.204644212967616       0.252096894625379     
  0.300182397529307       0.347627385306329       0.391962118644951     
  0.429081111501948       6.215857701741666E-002  0.111277773668386     
  0.159518494867996       0.207458751784473       0.254725576716247     
  0.300872254803513       0.345404676978226       0.387486618201261     
  0.425547584260039       0.456308692997120       0.101027000094719     
  0.165442056785218       0.222328870268084       0.275225287257965     
  0.324816494961288       0.371053605094364       0.413592034574739     
  0.451832405352091       0.484724558349712       0.509792440284424     
  0.151651922439657       0.236867445433602       0.306243153206971     
  0.367195691206653       0.421970538245836       0.471319876529215     
  0.515373203738863       0.553883333980542       0.586155939990917     
  0.610144743821931       0.214599501567675       0.326776781949638     
  0.413234214958918       0.486036828296570       0.549306337428555     
  0.604802522886062       0.653277906361863       0.694895064112836     
  0.729213663049671       0.754280223410806       0.289543328710607     
  0.434788717997340       0.542942985713428       0.631415970700127     
  0.706446683057594       0.770909310082359       0.826222441680705     
  0.872947646927690       0.910839824791437       0.937938339740780     
  0.375304518129699       0.559089604105866       0.693039630923664     
  0.800531433575538       0.890120503157032       0.965873062285968     
   1.02990925792411        1.08321248435811        1.12574886459397     
   1.15550055486257       0.470242949298662       0.697084974052706     
  0.860126806610268       0.989270781538346        1.09558626853163     
   1.18441660929909        1.25862306794676        1.31962767600357     
   1.36759431872631        1.40043765131499       0.572673685715123     
  0.846144420283831        1.04080602165186        1.19356665860957     
   1.31818961449632        1.42137905166642        1.50677008881494     
   1.57624543008660        1.63020010619947        1.66647308475679     
  0.681137595185028        1.00398658626545        1.23212680036709     
   1.40988104627522        1.55386184636918        1.67221484556337     
   1.76940390880102        1.84780557860174        1.90806653990359     
   1.94796588122023       0.794423821383167        1.16870957201551     
   1.43160966783487        1.63520847094472        1.79911310136678     
   1.93299510599863        2.04220310209717        2.12964473327384     
   2.19625066932742        2.23978591255206       0.911744032863462     
   1.33903818220176        1.63753373045583        1.86738291392814     
   2.05132017710294        2.20063341495242        2.32162948183854     
   2.41781384923471        2.49046035173669        2.53739206082779     
   1.03422777697376        1.51637481359850        1.85123821212502     
   2.10745929525683        2.31110905132083        2.47523899734573     
   2.60724211814454        2.71133673509324        2.78925417758499     
   2.83901645868909        1.17060187158378        1.71215707605658     
   2.08505958184076        2.36781741675153        2.59052061831068     
   2.76837354793212        2.91008748548187        3.02076250660866     
   3.10274332349563        3.15444391835970        1.35389430564326     
   1.96671662359681        2.38090835031732        2.69067304488818     
   2.93219455203260        3.12342689006436        3.27457978628615     
   3.39173197145880        3.47789410912287        3.53181711500662     
   1.59808890875058        2.29792681186658        2.75786863697831     
   3.09481083437933        3.35356611109105        3.55591737192617     
   3.71421789878079        3.83589981676712        3.92483500158412     
   3.98026850226389        1.76362065206243        2.51903923174483     
   3.00449825614871        3.35207483915707        3.61316777769168     
   3.81347707488433        3.96762925582768        4.08432932678459     
   4.16824775445565        4.21955803685757        1.80169529352696     
   2.55353834349652        3.02467219210045        3.35455007604701     
   3.59777610863292        3.78154170372032        3.92105268312086     
   4.02510087596730        4.09832822995188        4.14157795656410     
   1.69835076979800        2.37793820729841        2.78964760046291     
   3.07106083564413        3.27523563461788        3.42783136970922     
   3.54261137343204        3.62713287643393        3.68506612623285     
   3.71704967215730        1.47223006298584        2.01608205384401     
   2.33321711788910        2.54680607440066        2.70085300943723     
   2.81566475733409        2.90187135775874        2.96525025464382     
   3.00872050868235        3.03310237549901        1.12668263975614     
   1.49438301851739        1.70595561043497        1.84880455080478     
   1.95220779342649        2.02952665562040        2.08781098576150     
   2.13105056564154        2.16182906423435        2.18387634350151     
  0.685080277101669       0.891003004162949        1.01062216799047     
   1.09184977261204        1.15085813874015        1.19508738221182     
   1.22848435516836        1.25326258365846        1.27062997261427     
   1.28092031951819     
  0.000000000000000E+000  0.000000000000000E+000  0.000000000000000E+000
  0.000000000000000E+000  0.000000000000000E+000  0.000000000000000E+000
  0.000000000000000E+000  0.000000000000000E+000  0.000000000000000E+000
  0.000000000000000E+000  0.000000000000000E+000  0.000000000000000E+000
  0.000000000000000E+000  0.000000000000000E+000  0.000000000000000E+000
  0.000000000000000E+000  0.000000000000000E+000  0.000000000000000E+000
  0.000000000000000E+000  0.000000000000000E+000  0.000000000000000E+000
  0.000000000000000E+000  0.000000000000000E+000  0.000000000000000E+000
  0.000000000000000E+000  0.000000000000000E+000  0.000000000000000E+000
  0.000000000000000E+000  0.000000000000000E+000  0.000000000000000E+000
  0.000000000000000E+000  0.000000000000000E+000  0.000000000000000E+000
  0.000000000000000E+000  0.000000000000000E+000  0.000000000000000E+000
  0.000000000000000E+000  0.000000000000000E+000  0.000000000000000E+000
  0.000000000000000E+000  0.000000000000000E+000  0.000000000000000E+000
  0.000000000000000E+000  0.000000000000000E+000  0.000000000000000E+000
  0.000000000000000E+000  0.000000000000000E+000  0.000000000000000E+000
  0.000000000000000E+000  0.000000000000000E+000  0.000000000000000E+000
  0.000000000000000E+000  0.000000000000000E+000  0.000000000000000E+000
  0.000000000000000E+000  0.000000000000000E+000  0.000000000000000E+000
  0.000000000000000E+000  0.000000000000000E+000  0.000000000000000E+000
  0.000000000000000E+000  0.000000000000000E+000  0.000000000000000E+000
  0.000000000000000E+000  0.000000000000000E+000  0.000000000000000E+000
  0.000000000000000E+000  0.000000000000000E+000  0.000000000000000E+000
  0.000000000000000E+000  0.000000000000000E+000  0.000000000000000E+000
  0.000000000000000E+000  0.000000000000000E+000  0.000000000000000E+000
  0.000000000000000E+000  0.000000000000000E+000  0.000000000000000E+000
  0.000000000000000E+000  0.000000000000000E+000  0.000000000000000E+000
  0.000000000000000E+000  0.000000000000000E+000  0.000000000000000E+000
  0.000000000000000E+000  0.000000000000000E+000  0.000000000000000E+000
  0.000000000000000E+000  0.000000000000000E+000  0.000000000000000E+000
  0.000000000000000E+000  0.000000000000000E+000  0.000000000000000E+000
  0.000000000000000E+000  0.000000000000000E+000  0.000000000000000E+000
  0.000000000000000E+000  0.000000000000000E+000  0.000000000000000E+000
  0.000000000000000E+000  0.000000000000000E+000  0.000000000000000E+000
  0.000000000000000E+000  0.000000000000000E+000  0.000000000000000E+000
  0.000000000000000E+000  0.000000000000000E+000  0.000000000000000E+000
  0.000000000000000E+000  0.000000000000000E+000  0.000000000000000E+000
  0.000000000000000E+000  0.000000000000000E+000  0.000000000000000E+000
  0.000000000000000E+000  0.000000000000000E+000  0.000000000000000E+000