 Title = "Wing and Wake"
 VARIABLES = "X" "Y" "Z" "GAM" "skew"
 Zone I=   11 J=   26 K=1  T="Blade"
 DATAPACKING=BLOCK
 VARLOCATION=([4]=CELLCENTERED,[5]=CELLCENTERED)
 -0.182621382194919      -0.183396944787114      -0.184172507379309     
 -0.184948069971504      -0.185723632563698      -0.186499195155893     
 -0.187274757748088      -0.188050320340283      -0.188825882932478     
 -0.189601445524673      -0.190377008116868      -0.186373430596926     
 -0.187148993189120      -0.187924555781315      -0.188700118373510     
 -0.189475680965705      -0.190251243557900      -0.191026806150094     
 -0.191802368742290      -0.192577931334484      -0.193353493926679     
 -0.194129056518874      -0.197570403758279      -0.198345966350474     
 -0.199121528942669      -0.199897091534864      -0.200672654127059     
 -0.201448216719254      -0.202223779311449      -0.202999341903644     
 -0.203774904495838      -0.204550467088033      -0.205326029680228     
 -0.216035718723480      -0.216811281315675      -0.217586843907870     
 -0.218362406500064      -0.219137969092259      -0.219913531684454     
 -0.220689094276649      -0.221464656868844      -0.222240219461039     
 -0.223015782053234      -0.223791344645428      -0.241478166444881     
 -0.242253729037075      -0.243029291629270      -0.243804854221465     
 -0.244580416813660      -0.245355979405855      -0.246131541998049     
 -0.246907104590244      -0.247682667182439      -0.248458229774634     
 -0.249233792366829      -0.273496504323333      -0.274272066915528     
 -0.275047629507722      -0.275823192099917      -0.276598754692112     
 -0.277374317284307      -0.278149879876501      -0.278925442468697     
 -0.279701005060891      -0.280476567653086      -0.281252130245282     
 -0.311585784043667      -0.312361346635862      -0.313136909228056     
 -0.313912471820252      -0.314688034412446      -0.315463597004640     
 -0.316239159596835      -0.317014722189031      -0.317790284781226     
 -0.318565847373420      -0.319341409965614      -0.355145314911258     
 -0.355920877503453      -0.356696440095649      -0.357472002687843     
 -0.358247565280038      -0.359023127872233      -0.359798690464427     
 -0.360574253056622      -0.361349815648817      -0.362125378241013     
 -0.362900940833208      -0.403488137103125      -0.404263699695321     
 -0.405039262287515      -0.405814824879710      -0.406590387471904     
 -0.407365950064099      -0.408141512656294      -0.408917075248490     
 -0.409692637840683      -0.410468200432879      -0.411243763025074     
 -0.455851855434698      -0.456627418026892      -0.457402980619088     
 -0.458178543211282      -0.458954105803477      -0.459729668395672     
 -0.460505230987867      -0.461280793580062      -0.462056356172256     
 -0.462831918764451      -0.463607481356646      -0.511410662787319     
 -0.512186225379515      -0.512961787971709      -0.513737350563903     
 -0.514512913156098      -0.515288475748293      -0.516064038340488     
 -0.516839600932683      -0.517615163524879      -0.518390726117072     
 -0.519166288709267      -0.569288363579815      -0.570063926172008     
 -0.570839488764204      -0.571615051356398      -0.572390613948594     
 -0.573166176540789      -0.573941739132982      -0.574717301725178     
 -0.575492864317373      -0.576268426909568      -0.577043989501762     
 -0.628572191896224      -0.629347754488419      -0.630123317080614     
 -0.630898879672810      -0.631674442265003      -0.632450004857198     
 -0.633225567449393      -0.634001130041588      -0.634776692633783     
 -0.635552255225978      -0.636327817818173      -0.688327206349557     
 -0.689102768941751      -0.689878331533946      -0.690653894126141     
 -0.691429456718336      -0.692205019310532      -0.692980581902724     
 -0.693756144494920      -0.694531707087114      -0.695307269679310     
 -0.696082832271505      -0.747611034665966      -0.748386597258162     
 -0.749162159850356      -0.749937722442553      -0.750713285034747     
 -0.751488847626941      -0.752264410219136      -0.753039972811330     
 -0.753815535403526      -0.754591097995722      -0.755366660587916     
 -0.805488735458460      -0.806264298050657      -0.807039860642851     
 -0.807815423235047      -0.808590985827243      -0.809366548419436     
 -0.810142111011631      -0.810917673603826      -0.811693236196019     
 -0.812468798788216      -0.813244361380412      -0.861047542811084     
 -0.861823105403276      -0.862598667995473      -0.863374230587669     
 -0.864149793179863      -0.864925355772056      -0.865700918364251     
 -0.866476480956447      -0.867252043548641      -0.868027606140838     
 -0.868803168733033      -0.913411261142655      -0.914186823734850     
 -0.914962386327044      -0.915737948919241      -0.916513511511434     
 -0.917289074103630      -0.918064636695825      -0.918840199288020     
 -0.919615761880214      -0.920391324472409      -0.921166887064603     
 -0.961754083334522      -0.962529645926717      -0.963305208518911     
 -0.964080771111107      -0.964856333703301      -0.965631896295495     
 -0.966407458887689      -0.967183021479887      -0.967958584072082     
 -0.968734146664275      -0.969509709256469       -1.00531361420211     
  -1.00608917679431       -1.00686473938650       -1.00764030197870     
  -1.00841586457089       -1.00919142716309       -1.00996698975528     
  -1.01074255234748       -1.01151811493968       -1.01229367753187     
  -1.01306924012406       -1.04340289392245       -1.04417845651464     
  -1.04495401910684       -1.04572958169903       -1.04650514429123     
  -1.04728070688342       -1.04805626947562       -1.04883183206781     
  -1.04960739466001       -1.05038295725220       -1.05115851984439     
  -1.07542123180090       -1.07619679439310       -1.07697235698529     
  -1.07774791957748       -1.07852348216968       -1.07929904476187     
  -1.08007460735407       -1.08085016994626       -1.08162573253846     
  -1.08240129513065       -1.08317685772285       -1.10086367952230     
  -1.10163924211450       -1.10241480470669       -1.10319036729888     
  -1.10396592989108       -1.10474149248327       -1.10551705507547     
  -1.10629261766766       -1.10706818025986       -1.10784374285206     
  -1.10861930544425       -1.11932899448750       -1.12010455707970     
  -1.12088011967189       -1.12165568226409       -1.12243124485628     
  -1.12320680744848       -1.12398237004067       -1.12475793263287     
  -1.12553349522506       -1.12630905781725       -1.12708462040945     
  -1.13052596764886       -1.13130153024105       -1.13207709283324     
  -1.13285265542544       -1.13362821801764       -1.13440378060983     
  -1.13517934320202       -1.13595490579422       -1.13673046838642     
  -1.13750603097861       -1.13828159357080       -1.13427801605086     
  -1.13505357864306       -1.13582914123525       -1.13660470382745     
  -1.13738026641964       -1.13815582901183       -1.13893139160403     
  -1.13970695419622       -1.14048251678842       -1.14125807938062     
  -1.14203364197281     
 -0.196319986112823      -0.177471328628251      -0.158622671143679     
 -0.139774013659107      -0.120925356174535      -0.102076698689963     
 -8.322804120539111E-002 -6.437938372081908E-002 -4.553072623624715E-002
 -2.668206875167565E-002 -7.833411267103543E-003 -0.196474371027880     
 -0.177625713543309      -0.158777056058737      -0.139928398574165     
 -0.121079741089593      -0.102231083605021      -8.338242612044856E-002
 -6.453376863587669E-002 -4.568511115130466E-002 -2.683645366673305E-002
 -7.987796182160794E-003 -0.196935091030717      -0.178086433546145     
 -0.159237776061573      -0.140389118577001      -0.121540461092429     
 -0.102691803607857      -8.384314612328525E-002 -6.499448863871336E-002
 -4.614583115414125E-002 -2.729717366956936E-002 -8.448516184997453E-003
 -0.197694880291667      -0.178846222807095      -0.159997565322523     
 -0.141148907837951      -0.122300250353379      -0.103451592868807     
 -8.460293538423531E-002 -6.575427789966377E-002 -4.690562041509146E-002
 -2.805696293051966E-002 -9.208305445947791E-003 -0.198741756480209     
 -0.179893098995637      -0.161044441511065      -0.142195784026494     
 -0.123347126541922      -0.104498469057349      -8.564981157277800E-002
 -6.680115408820586E-002 -4.795249660363399E-002 -2.910383911906217E-002
 -1.025518163449012E-002 -0.200059209733478      -0.181210552248906     
 -0.162361894764334      -0.143513237279762      -0.124664579795190     
 -0.105815922310618      -8.696726482604544E-002 -6.811860734147399E-002
 -4.926994985690230E-002 -3.042129237233008E-002 -1.157263488775768E-002
 -0.201626463026658      -0.182777805542087      -0.163929148057515     
 -0.145080490572943      -0.126231833088371      -0.107383175603799     
 -8.853451811922718E-002 -6.968586063465497E-002 -5.083720315008273E-002
 -3.198854566551108E-002 -1.313988818093932E-002 -0.203418799839088     
 -0.184570142354516      -0.165721484869944      -0.146872827385372     
 -0.128024169900800      -0.109175512416228      -9.032685493165526E-002
 -7.147819744708368E-002 -5.262953996251172E-002 -3.378088247793965E-002
 -1.493222499336826E-002 -0.205407953948542      -0.186559296463971     
 -0.167710638979398      -0.148861981494827      -0.130013324010254     
 -0.111164666525682      -9.231600904111076E-002 -7.346735155653850E-002
 -5.461869407196693E-002 -3.577003658739462E-002 -1.692137910282299E-002
 -0.207562555206453      -0.188713897721881      -0.169865240237309     
 -0.151016582752738      -0.132167925268166      -0.113319267783594     
 -9.447061029902154E-002 -7.562195281444983E-002 -5.677329532987739E-002
 -3.792463784530633E-002 -1.907598036073399E-002 -0.209848624263888     
 -0.190999966779316      -0.172151309294744      -0.153302651810172     
 -0.134453994325599      -0.115605336841028      -9.675667935645586E-002
 -7.790802187188407E-002 -5.905936438731214E-002 -4.021070690274030E-002
 -2.136204941816810E-002 -0.212230108446178      -0.193381450961605     
 -0.174532793477033      -0.155684135992462      -0.136835478507889     
 -0.117986821023318      -9.913816353874480E-002 -8.028950605417411E-002
 -6.144084856960219E-002 -4.259219108502960E-002 -2.374353360045874E-002
 -0.214669450325138      -0.195820792840567      -0.176972135355994     
 -0.158123477871423      -0.139274820386851      -0.120426162902279     
 -0.101577505417706      -8.272884793313515E-002 -6.388019044856318E-002
 -4.503153296399160E-002 -2.618287547941925E-002 -0.217128180022147     
 -0.198279522537575      -0.179430865053004      -0.160582207568431     
 -0.141733550083859      -0.122884892599288      -0.104036235114716     
 -8.518757763014473E-002 -6.633892014557213E-002 -4.749026266099941E-002
 -2.864160517642811E-002 -0.219567521901109      -0.200718864416537     
 -0.181870206931966      -0.163021549447393      -0.144172891962822     
 -0.125324234478250      -0.106475576993676      -8.762691950910602E-002
 -6.877826202453322E-002 -4.992960453996167E-002 -3.108094705538929E-002
 -0.221949006083399      -0.203100348598826      -0.184251691114255     
 -0.165403033629682      -0.146554376145111      -0.127705718660539     
 -0.108857061175967      -9.000840369139435E-002 -7.115974620682350E-002
 -5.231108872225068E-002 -3.346243123767914E-002 -0.224235075140832     
 -0.205386417656261      -0.186537760171688      -0.167689102687118     
 -0.148840445202545      -0.129991787717973      -0.111143130233401     
 -9.229447274882951E-002 -7.344581526425678E-002 -5.459715777968587E-002
 -3.574850029511390E-002 -0.226389676398744      -0.207541018914171     
 -0.188692361429600      -0.169843703945028      -0.150995046460456     
 -0.132146388975884      -0.113297731491311      -9.444907400674038E-002
 -7.560041652216784E-002 -5.675175903759562E-002 -3.790310155302507E-002
 -0.228378830508198      -0.209530173023627      -0.190681515539053     
 -0.171832858054483      -0.152984200569912      -0.134135543085339     
 -0.115286885600766      -9.643822811619469E-002 -7.758957063162310E-002
 -5.874091314705100E-002 -3.989225566247919E-002 -0.230171167320628     
 -0.211322509836055      -0.192473852351484      -0.173625194866913     
 -0.154776537382340      -0.135927879897767      -0.117079222413196     
 -9.823056492862345E-002 -7.938190744405174E-002 -6.053324995948095E-002
 -4.168459247490909E-002 -0.231738420613808      -0.212889763129236     
 -0.194041105644665      -0.175192448160092      -0.156343790675520     
 -0.137495133190948      -0.118646475706377      -9.979781822180527E-002
 -8.094916073723339E-002 -6.210050325266055E-002 -4.325184576808896E-002
 -0.233055873867076      -0.214207216382505      -0.195358558897932     
 -0.176509901413360      -0.157661243928789      -0.138812586444217     
 -0.119963928959645      -0.101115271475073      -8.226661399050027E-002
 -6.341795650592975E-002 -4.456929902135572E-002 -0.234102750055621     
 -0.215254092571046      -0.196405435086474      -0.177556777601903     
 -0.158708120117331      -0.139859462632759      -0.121010805148187     
 -0.102162147663616      -8.331349017904328E-002 -6.446483269447020E-002
 -4.561617520989911E-002 -0.234862539316570      -0.216013881831999     
 -0.197165224347425      -0.178316566862853      -0.159467909378281     
 -0.140619251893709      -0.121770594409138      -0.102921936924566     
 -8.407327943999333E-002 -6.522462195542129E-002 -4.637596447084900E-002
 -0.235323259319405      -0.216474601834833      -0.197625944350262     
 -0.178777286865689      -0.159928629381116      -0.141079971896546     
 -0.122231314411974      -0.103382656927402      -8.453399944283045E-002
 -6.568534195825830E-002 -4.683668447368662E-002 -0.235477644234462     
 -0.216628986749892      -0.197780329265319      -0.178931671780747     
 -0.160083014296174      -0.141234356811604      -0.122385699327031     
 -0.103537041842459      -8.468838435788792E-002 -6.583972687331432E-002
 -4.699106938874298E-002
  2.651247573289247E-002  2.386122815960322E-002  2.120998058631397E-002
  1.855873301302472E-002  1.590748543973548E-002  1.325623786644623E-002
  1.060499029315698E-002  7.953742719867740E-003  5.302495146578492E-003
  2.651247573289244E-003  0.000000000000000E+000  2.651247573289247E-002
  2.386122815960322E-002  2.120998058631397E-002  1.855873301302472E-002
  1.590748543973548E-002  1.325623786644623E-002  1.060499029315698E-002
  7.953742719867740E-003  5.302495146578492E-003  2.651247573289244E-003
  0.000000000000000E+000  2.651247573289247E-002  2.386122815960322E-002
  2.120998058631397E-002  1.855873301302472E-002  1.590748543973548E-002
  1.325623786644623E-002  1.060499029315698E-002  7.953742719867740E-003
  5.302495146578492E-003  2.651247573289244E-003  0.000000000000000E+000
  2.651247573289247E-002  2.386122815960322E-002  2.120998058631397E-002
  1.855873301302472E-002  1.590748543973548E-002  1.325623786644623E-002
  1.060499029315698E-002  7.953742719867740E-003  5.302495146578492E-003
  2.651247573289244E-003  0.000000000000000E+000  2.651247573289247E-002
  2.386122815960322E-002  2.120998058631397E-002  1.855873301302472E-002
  1.590748543973548E-002  1.325623786644623E-002  1.060499029315698E-002
  7.953742719867740E-003  5.302495146578492E-003  2.651247573289244E-003
  0.000000000000000E+000  2.651247573289247E-002  2.386122815960322E-002
  2.120998058631397E-002  1.855873301302472E-002  1.590748543973548E-002
  1.325623786644623E-002  1.060499029315698E-002  7.953742719867740E-003
  5.302495146578492E-003  2.651247573289244E-003  0.000000000000000E+000
  2.651247573289247E-002  2.386122815960322E-002  2.120998058631397E-002
  1.855873301302472E-002  1.590748543973548E-002  1.325623786644623E-002
  1.060499029315698E-002  7.953742719867740E-003  5.302495146578492E-003
  2.651247573289244E-003  0.000000000000000E+000  2.651247573289247E-002
  2.386122815960322E-002  2.120998058631397E-002  1.855873301302472E-002
  1.590748543973548E-002  1.325623786644623E-002  1.060499029315698E-002
  7.953742719867740E-003  5.302495146578492E-003  2.651247573289244E-003
  0.000000000000000E+000  2.651247573289247E-002  2.386122815960322E-002
  2.120998058631397E-002  1.855873301302472E-002  1.590748543973548E-002
  1.325623786644623E-002  1.060499029315698E-002  7.953742719867740E-003
  5.302495146578492E-003  2.651247573289244E-003  0.000000000000000E+000
  2.651247573289247E-002  2.386122815960322E-002  2.120998058631397E-002
  1.855873301302472E-002  1.590748543973548E-002  1.325623786644623E-002
  1.060499029315698E-002  7.953742719867740E-003  5.302495146578492E-003
  2.651247573289244E-003  0.000000000000000E+000  2.651247573289247E-002
  2.386122815960322E-002  2.120998058631397E-002  1.855873301302472E-002
  1.590748543973548E-002  1.325623786644623E-002  1.060499029315698E-002
  7.953742719867740E-003  5.302495146578492E-003  2.651247573289244E-003
  0.000000000000000E+000  2.651247573289247E-002  2.386122815960322E-002
  2.120998058631397E-002  1.855873301302472E-002  1.590748543973548E-002
  1.325623786644623E-002  1.060499029315698E-002  7.953742719867740E-003
  5.302495146578492E-003  2.651247573289244E-003  0.000000000000000E+000
  2.651247573289247E-002  2.386122815960322E-002  2.120998058631397E-002
  1.855873301302472E-002  1.590748543973548E-002  1.325623786644623E-002
  1.060499029315698E-002  7.953742719867740E-003  5.302495146578492E-003
  2.651247573289244E-003  0.000000000000000E+000  2.651247573289247E-002
  2.386122815960322E-002  2.120998058631397E-002  1.855873301302472E-002
  1.590748543973548E-002  1.325623786644623E-002  1.060499029315698E-002
  7.953742719867740E-003  5.302495146578492E-003  2.651247573289244E-003
  0.000000000000000E+000  2.651247573289247E-002  2.386122815960322E-002
  2.120998058631397E-002  1.855873301302472E-002  1.590748543973548E-002
  1.325623786644623E-002  1.060499029315698E-002  7.953742719867740E-003
  5.302495146578492E-003  2.651247573289244E-003  0.000000000000000E+000
  2.651247573289247E-002  2.386122815960322E-002  2.120998058631397E-002
  1.855873301302472E-002  1.590748543973548E-002  1.325623786644623E-002
  1.060499029315698E-002  7.953742719867740E-003  5.302495146578492E-003
  2.651247573289244E-003  0.000000000000000E+000  2.651247573289247E-002
  2.386122815960322E-002  2.120998058631397E-002  1.855873301302472E-002
  1.590748543973548E-002  1.325623786644623E-002  1.060499029315698E-002
  7.953742719867740E-003  5.302495146578492E-003  2.651247573289244E-003
  0.000000000000000E+000  2.651247573289247E-002  2.386122815960322E-002
  2.120998058631397E-002  1.855873301302472E-002  1.590748543973548E-002
  1.325623786644623E-002  1.060499029315698E-002  7.953742719867740E-003
  5.302495146578492E-003  2.651247573289244E-003  0.000000000000000E+000
  2.651247573289247E-002  2.386122815960322E-002  2.120998058631397E-002
  1.855873301302472E-002  1.590748543973548E-002  1.325623786644623E-002
  1.060499029315698E-002  7.953742719867740E-003  5.302495146578492E-003
  2.651247573289244E-003  0.000000000000000E+000  2.651247573289247E-002
  2.386122815960322E-002  2.120998058631397E-002  1.855873301302472E-002
  1.590748543973548E-002  1.325623786644623E-002  1.060499029315698E-002
  7.953742719867740E-003  5.302495146578492E-003  2.651247573289244E-003
  0.000000000000000E+000  2.651247573289247E-002  2.386122815960322E-002
  2.120998058631397E-002  1.855873301302472E-002  1.590748543973548E-002
  1.325623786644623E-002  1.060499029315698E-002  7.953742719867740E-003
  5.302495146578492E-003  2.651247573289244E-003  0.000000000000000E+000
  2.651247573289247E-002  2.386122815960322E-002  2.120998058631397E-002
  1.855873301302472E-002  1.590748543973548E-002  1.325623786644623E-002
  1.060499029315698E-002  7.953742719867740E-003  5.302495146578492E-003
  2.651247573289244E-003  0.000000000000000E+000  2.651247573289247E-002
  2.386122815960322E-002  2.120998058631397E-002  1.855873301302472E-002
  1.590748543973548E-002  1.325623786644623E-002  1.060499029315698E-002
  7.953742719867740E-003  5.302495146578492E-003  2.651247573289244E-003
  0.000000000000000E+000  2.651247573289247E-002  2.386122815960322E-002
  2.120998058631397E-002  1.855873301302472E-002  1.590748543973548E-002
  1.325623786644623E-002  1.060499029315698E-002  7.953742719867740E-003
  5.302495146578492E-003  2.651247573289244E-003  0.000000000000000E+000
  2.651247573289247E-002  2.386122815960322E-002  2.120998058631397E-002
  1.855873301302472E-002  1.590748543973548E-002  1.325623786644623E-002
  1.060499029315698E-002  7.953742719867740E-003  5.302495146578492E-003
  2.651247573289244E-003  0.000000000000000E+000  2.651247573289247E-002
  2.386122815960322E-002  2.120998058631397E-002  1.855873301302472E-002
  1.590748543973548E-002  1.325623786644623E-002  1.060499029315698E-002
  7.953742719867740E-003  5.302495146578492E-003  2.651247573289244E-003
  0.000000000000000E+000
 -3.840733967058317E-003  6.095199197954703E-003  2.054218686689913E-002
  3.752112529106350E-002  5.395884123337212E-002  6.812800210433870E-002
  8.008917421483969E-002  8.996597441400322E-002  9.807586195156583E-002
  0.104540201213999      -4.995232900643465E-003  1.024904258592027E-002
  3.294911820762737E-002  5.998046290231037E-002  8.684781623303185E-002
  0.110819713491605       0.131336789111781       0.148310309140537     
  0.162235528927213       0.173599926360041      -6.906488729945418E-004
  1.724997038225475E-002  4.339172866503840E-002  7.483933316736072E-002
  0.107700476624354       0.139062734617994       0.167157488012832     
  0.190857683717720       0.210264718056142       0.225163720744954     
  1.297674793215731E-002  3.479915169289594E-002  6.161723071079885E-002
  9.201520454447397E-002  0.124190748726876       0.156368149600027     
  0.186775189039557       0.213516089634844       0.235674652052966     
  0.252190792261603       3.910852424807040E-002  7.009718479736173E-002
  0.100614878793465       0.131193308892045       0.161497571609623     
  0.190927242357441       0.218787889113642       0.244071138051085     
  0.265627086574834       0.282012768020721       7.948239027112576E-002
  0.126726612968455       0.166559474246550       0.202447100088210     
  0.235425453151901       0.265730667992115       0.293235719462926     
  0.317647087767681       0.338435431632163       0.354239556521460     
  0.134082333781146       0.205080262461125       0.260191973327363     
  0.306730072687558       0.347209286793830       0.382759134304577     
  0.413858689391951       0.440610863815648       0.462751936036800     
  0.478940341121736       0.201688353673804       0.303189665503969     
  0.378768590560264       0.440406913787143       0.492382475463759     
  0.536723612107157       0.574507412086638       0.606196153169761     
  0.631648232965414       0.649458085783103       0.280634792032708     
  0.418274131077225       0.518525128299076       0.598750805817734     
  0.665290407487871       0.721168238289474       0.768003223749750     
  0.806588901250079       0.836925707804905       0.857494335520098     
  0.369368762024002       0.547870791514863       0.676207747582514     
  0.777743267940238       0.861107961209055       0.930462608452518     
  0.988031878111598        1.03492229843919        1.07125059773897     
   1.09533841089153       0.466457178685304       0.689701907139293     
  0.848809044769800       0.973698297885197        1.07549984673894     
   1.15961627417293        1.22896061619979        1.28500690299124     
   1.32799369675139        1.35606147956128       0.570409840414434     
  0.841477053226491        1.03340024121743        1.18312616025009     
   1.30446652319886        1.40416446074393        1.48588531716993     
   1.55153326112035        1.60152103963620        1.63382371235777     
  0.679910625773055        1.00118040691417        1.22741374318436     
   1.40298476339785        1.54454925642404        1.66028360570744     
   1.75466800286163        1.83008224483321        1.88717042596945     
   1.92379729458333       0.793828930403069        1.16706892305897     
   1.42861939473061        1.63062185202751        1.79271955477307     
   1.92460855306293        2.03164840148281        2.11674444661127     
   2.18081353349129        2.22167493647052       0.911342933136200     
   1.33786874358518        1.63535736973692        1.86400643326695     
   2.04657487566318        2.19436643446222        2.31369391311182     
   2.40805521733438        2.47870631494800        2.52350310692063     
   1.03345311704634        1.51484101240737        1.84885170558767     
   2.10412286269254        2.30672670860185        2.46971367100744     
   2.60047195507382        2.70320861986664        2.77963449144041     
   2.82778666765507        1.16866745763616        1.70918091426130     
   2.08122265990707        2.36317625882224        2.58508292858871     
   2.76212069525175        2.90298346853241        3.01275674910826     
   3.09376858984400        3.14443666420664        1.34996576882949     
   1.96125223728457        2.37451668725237        2.68362070864763     
   2.92460957749449        3.11537431132902        3.26610048891208     
   3.38286213882736        3.46867454891481        3.52230576903603     
   1.59538006447780        2.29398299489608        2.75321967758213     
   3.08984762673094        3.34851033759275        3.55087969500760     
   3.70929205669784        3.83119729981978        3.92049807380723     
   3.97646533958694        1.76375936111939        2.51910637040227     
   3.00457781055321        3.35228690856091        3.61359261296630     
   3.81418455035440        3.96870847917399        4.08590138608210     
   4.17047890552737        4.22265148408871        1.80418655390696     
   2.55682479296628        3.02844604390143        3.35875760578367     
   3.60239765560757        3.78658003335677        3.92655057096271     
   4.03114833441522        4.10507181891095        4.14921274911123     
   1.70192317212695        2.38276330050859        2.79520074288938     
   3.07716133820218        3.28181871230280        3.43488256033394     
   3.55015266037078        3.63522189426326        3.69380275726659     
   3.72657153969647        1.47570602402938        2.02074235431353     
   2.33855081760112        2.55262514315435        2.70708204610800     
   2.82227971456391        2.90888093658972        2.97269185022062     
   3.01666332390734        3.04164174257490        1.12943891652465     
   1.49798272777196        1.71003490058314        1.85323058876695     
   1.95692493249501        2.03451540345983        2.09307508829053     
   2.13661411035845        2.16773976117873        2.19021112864885     
  0.686771527526206       0.893172337625776        1.01306771316595     
   1.09449664198630        1.15367437000308        1.19806147311204     
   1.23161804550187        1.25656909376347        1.27413495841203     
   1.28465983906594     
  0.000000000000000E+000  0.000000000000000E+000  0.000000000000000E+000
  0.000000000000000E+000  0.000000000000000E+000  0.000000000000000E+000
  0.000000000000000E+000  0.000000000000000E+000  0.000000000000000E+000
  0.000000000000000E+000  0.000000000000000E+000  0.000000000000000E+000
  0.000000000000000E+000  0.000000000000000E+000  0.000000000000000E+000
  0.000000000000000E+000  0.000000000000000E+000  0.000000000000000E+000
  0.000000000000000E+000  0.000000000000000E+000  0.000000000000000E+000
  0.000000000000000E+000  0.000000000000000E+000  0.000000000000000E+000
  0.000000000000000E+000  0.000000000000000E+000  0.000000000000000E+000
  0.000000000000000E+000  0.000000000000000E+000  0.000000000000000E+000
  0.000000000000000E+000  0.000000000000000E+000  0.000000000000000E+000
  0.000000000000000E+000  0.000000000000000E+000  0.000000000000000E+000
  0.000000000000000E+000  0.000000000000000E+000  0.000000000000000E+000
  0.000000000000000E+000  0.000000000000000E+000  0.000000000000000E+000
  0.000000000000000E+000  0.000000000000000E+000  0.000000000000000E+000
  0.000000000000000E+000  0.000000000000000E+000  0.000000000000000E+000
  0.000000000000000E+000  0.000000000000000E+000  0.000000000000000E+000
  0.000000000000000E+000  0.000000000000000E+000  0.000000000000000E+000
  0.000000000000000E+000  0.000000000000000E+000  0.000000000000000E+000
  0.000000000000000E+000  0.000000000000000E+000  0.000000000000000E+000
  0.000000000000000E+000  0.000000000000000E+000  0.000000000000000E+000
  0.000000000000000E+000  0.000000000000000E+000  0.000000000000000E+000
  0.000000000000000E+000  0.000000000000000E+000  0.000000000000000E+000
  0.000000000000000E+000  0.000000000000000E+000  0.000000000000000E+000
  0.000000000000000E+000  0.000000000000000E+000  0.000000000000000E+000
  0.000000000000000E+000  0.000000000000000E+000  0.000000000000000E+000
  0.000000000000000E+000  0.000000000000000E+000  0.000000000000000E+000
  0.000000000000000E+000  0.000000000000000E+000  0.000000000000000E+000
  0.000000000000000E+000  0.000000000000000E+000  0.000000000000000E+000
  0.000000000000000E+000  0.000000000000000E+000  0.000000000000000E+000
  0.000000000000000E+000  0.000000000000000E+000  0.000000000000000E+000
  0.000000000000000E+000  0.000000000000000E+000  0.000000000000000E+000
  0.000000000000000E+000  0.000000000000000E+000  0.000000000000000E+000
  0.000000000000000E+000  0.000000000000000E+000  0.000000000000000E+000
  0.000000000000000E+000  0.000000000000000E+000  0.000000000000000E+000
  0.000000000000000E+000  0.000000000000000E+000  0.000000000000000E+000
  0.000000000000000E+000  0.000000000000000E+000  0.000000000000000E+000
  0.000000000000000E+000  0.000000000000000E+000  0.000000000000000E+000
  0.000000000000000E+000  0.000000000000000E+000  0.000000000000000E+000