 Title = "Wing and Wake"
 VARIABLES = "X" "Y" "Z" "GAM" "skew"
 Zone I=   11 J=   26 K=1  T="Blade"
 DATAPACKING=BLOCK
 VARLOCATION=([4]=CELLCENTERED,[5]=CELLCENTERED)
 -7.868355255777149E-002 -6.197316960091180E-002 -4.526278664405203E-002
 -2.855240368719238E-002 -1.184202073033277E-002  4.868362226526896E-003
  2.157874518338657E-002  3.828912814024646E-002  5.499951109710603E-002
  7.170989405396541E-002  8.842027701082540E-002 -7.694092007108048E-002
 -6.023053711422105E-002 -4.352015415736128E-002 -2.680977120050180E-002
 -1.009938824364202E-002  6.610994713217570E-003  2.332137767007735E-002
  4.003176062693704E-002  5.674214358379668E-002  7.345252654065632E-002
  9.016290949751612E-002 -7.174050496632207E-002 -5.503012200946245E-002
 -3.831973905260276E-002 -2.160935609574304E-002 -4.898973138883309E-003
  1.181140981797632E-002  2.852179277483577E-002  4.523217573169572E-002
  6.194255868855536E-002  7.865294164541477E-002  9.536332460227438E-002
 -6.316432089627456E-002 -4.645393793941481E-002 -2.974355498255510E-002
 -1.303317202569559E-002  3.677210931163997E-003  2.038759388802378E-002
  3.709797684488331E-002  5.380835980174265E-002  7.051874275860268E-002
  8.722912571546203E-002  0.103939508672322      -5.134761940688733E-002
 -3.463723645002768E-002 -1.792685349316803E-002 -1.216470536308458E-003
  1.549391242055108E-002  3.220429537741108E-002  4.891467833427039E-002
  6.562506129113019E-002  8.233544424798964E-002  9.904582720484945E-002
  0.115756210161709      -3.647675693960358E-002 -1.976637398274383E-002
 -3.055991025884104E-003  1.365439193097565E-002  3.036477488783524E-002
  4.707515784469506E-002  6.378554080155471E-002  8.049592375841426E-002
  9.720630671527347E-002  0.113916689672133       0.130627072628994     
 -1.878625587895355E-002 -2.075872922094179E-003  1.463451003476501E-002
  3.134489299162484E-002  4.805527594848472E-002  6.476565890534391E-002
  8.147604186220364E-002  9.818642481906394E-002  0.114896807775924     
  0.131607190732783       0.148317573689642       1.444894005541097E-003
  1.815527696240073E-002  3.486565991926087E-002  5.157604287611992E-002
  6.828642583297975E-002  8.499680878983958E-002  0.101707191746699     
  0.118417574703559       0.135127957660419       0.151838340617278     
  0.168548723574138       2.389763539470039E-002  4.060801835156035E-002
  5.731840130841976E-002  7.402878426527902E-002  9.073916722213921E-002
  0.107449550178999       0.124159933135858       0.140870316092718     
  0.157580699049577       0.174291082006437       0.191001464963297     
  4.821787514419957E-002  6.492825810105869E-002  8.163864105791857E-002
  9.834902401477788E-002  0.115059406971638       0.131769789928497     
  0.148480172885357       0.165190555842217       0.181900938799076     
  0.198611321755936       0.215321704712795       7.402206854498058E-002
  9.073245150184107E-002  0.107442834458700       0.124153217415559     
  0.140863600372420       0.157573983329279       0.174284366286139     
  0.190994749242998       0.207705132199859       0.224415515156718     
  0.241125898113577       0.100903268052437       0.117613651009297     
  0.134324033966157       0.151034416923015       0.167744799879875     
  0.184455182836735       0.201165565793595       0.217875948750455     
  0.234586331707314       0.251296714664174       0.268007097621033     
  0.128437541092285       0.145147924049144       0.161858307006004     
  0.178568689962863       0.195279072919723       0.211989455876583     
  0.228699838833443       0.245410221790302       0.262120604747162     
  0.278830987704021       0.295541370660882       0.156190655730509     
  0.172901038687369       0.189611421644228       0.206321804601088     
  0.223032187557948       0.239742570514807       0.256452953471667     
  0.273163336428525       0.289873719385386       0.306584102342246     
  0.323294485299106       0.183724928770356       0.200435311727217     
  0.217145694684076       0.233856077640937       0.250566460597795     
  0.267276843554655       0.283987226511515       0.300697609468373     
  0.317407992425234       0.334118375382094       0.350828758338954     
  0.210606128277812       0.227316511234673       0.244026894191532     
  0.260737277148392       0.277447660105252       0.294158043062111     
  0.310868426018970       0.327578808975831       0.344289191932689     
  0.360999574889550       0.377709957846410       0.236410321678596     
  0.253120704635453       0.269831087592314       0.286541470549173     
  0.303251853506033       0.319962236462892       0.336672619419752     
  0.353383002376612       0.370093385333472       0.386803768290331     
  0.403514151247191       0.260730561428092       0.277440944384953     
  0.294151327341812       0.310861710298673       0.327572093255532     
  0.344282476212391       0.360992859169252       0.377703242126111     
  0.394413625082971       0.411124008039830       0.427834390996689     
  0.283183302817253       0.299893685774112       0.316604068730972     
  0.333314451687832       0.350024834644691       0.366735217601550     
  0.383445600558410       0.400155983515270       0.416866366472130     
  0.433576749428989       0.450287132385848       0.303414452701747     
  0.320124835658608       0.336835218615466       0.353545601572326     
  0.370255984529186       0.386966367486046       0.403676750442905     
  0.420387133399766       0.437097516356625       0.453807899313483     
  0.470518282270343       0.321104953762397       0.337815336719257     
  0.354525719676115       0.371236102632976       0.387946485589836     
  0.404656868546695       0.421367251503556       0.438077634460414     
  0.454788017417274       0.471498400374135       0.488208783330993     
  0.335975816229681       0.352686199186541       0.369396582143401     
  0.386106965100260       0.402817348057119       0.419527731013979     
  0.436238113970838       0.452948496927698       0.469658879884558     
  0.486369262841417       0.503079645798279       0.347792517719067     
  0.364502900675929       0.381213283632788       0.397923666589646     
  0.414634049546507       0.431344432503365       0.448054815460226     
  0.464765198417085       0.481475581373946       0.498185964330807     
  0.514896347287665       0.356368701789116       0.373079084745974     
  0.389789467702835       0.406499850659694       0.423210233616555     
  0.439920616573415       0.456630999530273       0.473341382487134     
  0.490051765443993       0.506762148400853       0.523472531357712     
  0.361569116893875       0.378279499850733       0.394989882807593     
  0.411700265764454       0.428410648721314       0.445121031678172     
  0.461831414635033       0.478541797591890       0.495252180548752     
  0.511962563505612       0.528672946462470       0.363311749380567     
  0.380022132337424       0.396732515294285       0.413442898251144     
  0.430153281208004       0.446863664164862       0.463574047121723     
  0.480284430078583       0.496994813035442       0.513705195992303     
  0.530415578949163     
  0.256322072282140       0.247567845432199       0.238813618582259     
  0.230059391732319       0.221305164882378       0.212550938032437     
  0.203796711182497       0.195042484332556       0.186288257482616     
  0.177534030632676       0.168779803782735       0.259648471826591     
  0.250894244976651       0.242140018126710       0.233385791276770     
  0.224631564426830       0.215877337576889       0.207123110726948     
  0.198368883877008       0.189614657027067       0.180860430177127     
  0.172106203327187       0.269575211152034       0.260820984302094     
  0.252066757452153       0.243312530602213       0.234558303752272     
  0.225804076902332       0.217049850052391       0.208295623202451     
  0.199541396352511       0.190787169502570       0.182032942652630     
  0.285945739649361       0.277191512799420       0.268437285949480     
  0.259683059099539       0.250928832249599       0.242174605399658     
  0.233420378549718       0.224666151699778       0.215911924849837     
  0.207157697999897       0.198403471149956       0.308501884304888     
  0.299747657454947       0.290993430605007       0.282239203755066     
  0.273484976905126       0.264730750055185       0.255976523205245     
  0.247222296355304       0.238468069505364       0.229713842655424     
  0.220959615805483       0.336887921243009       0.328133694393069     
  0.319379467543128       0.310625240693188       0.301871013843248     
  0.293116786993307       0.284362560143366       0.275608333293426     
  0.266854106443485       0.258099879593545       0.249345652743605     
  0.370656185704216       0.361901958854276       0.353147732004335     
  0.344393505154395       0.335639278304454       0.326885051454513     
  0.318130824604573       0.309376597754633       0.300622370904692     
  0.291868144054751       0.283113917204810       0.409274131985770     
  0.400519905135830       0.391765678285889       0.383011451435948     
  0.374257224586008       0.365502997736068       0.356748770886127     
  0.347994544036187       0.339240317186246       0.330486090336306     
  0.321731863486366       0.452132732005569       0.443378505155629     
  0.434624278305688       0.425870051455748       0.417115824605807     
  0.408361597755867       0.399607370905926       0.390853144055986     
  0.382098917206045       0.373344690356105       0.364590463506165     
  0.498556080038814       0.489801853188873       0.481047626338933     
  0.472293399488992       0.463539172639052       0.454784945789112     
  0.446030718939171       0.437276492089231       0.428522265239290     
  0.419768038389350       0.411013811539409       0.547812052155057     
  0.539057825305117       0.530303598455176       0.521549371605235     
  0.512795144755295       0.504040917905354       0.495286691055414     
  0.486532464205474       0.477778237355534       0.469024010505593     
  0.460269783655652       0.599123852249933       0.590369625399991     
  0.581615398550052       0.572861171700111       0.564106944850170     
  0.555352718000231       0.546598491150289       0.537844264300350     
  0.529090037450410       0.520335810600469       0.511581583750528     
  0.651682262583761       0.642928035733821       0.634173808883880     
  0.625419582033941       0.616665355183999       0.607911128334059     
  0.599156901484119       0.590402674634179       0.581648447784238     
  0.572894220934298       0.564139994084357       0.704658405628707     
  0.695904178778767       0.687149951928826       0.678395725078885     
  0.669641498228946       0.660887271379005       0.652133044529064     
  0.643378817679124       0.634624590829183       0.625870363979242     
  0.617116137129303       0.757216815962537       0.748462589112596     
  0.739708362262656       0.730954135412716       0.722199908562775     
  0.713445681712835       0.704691454862893       0.695937228012952     
  0.687183001163014       0.678428774313073       0.669674547463132     
  0.808528616057411       0.799774389207471       0.791020162357531     
  0.782265935507590       0.773511708657651       0.764757481807710     
  0.756003254957769       0.747249028107829       0.738494801257887     
  0.729740574407948       0.720986347558008       0.857784588173655     
  0.849030361323714       0.840276134473774       0.831521907623834     
  0.822767680773893       0.814013453923951       0.805259227074011     
  0.796505000224072       0.787750773374130       0.778996546524192     
  0.770242319674251       0.904207936206900       0.895453709356959     
  0.886699482507017       0.877945255657079       0.869191028807137     
  0.860436801957198       0.851682575107257       0.842928348257317     
  0.834174121407376       0.825419894557434       0.816665667707495     
  0.947066536226699       0.938312309376759       0.929558082526817     
  0.920803855676877       0.912049628826937       0.903295401976995     
  0.894541175127054       0.885786948277116       0.877032721427175     
  0.868278494577234       0.859524267727294       0.985684482508254     
  0.976930255658312       0.968176028808371       0.959421801958432     
  0.950667575108491       0.941913348258550       0.933159121408610     
  0.924404894558670       0.915650667708730       0.906896440858789     
  0.898142214008848        1.01945274696946        1.01069852011952     
   1.00194429326958       0.993190066419638       0.984435839569698     
  0.975681612719756       0.966927385869818       0.958173159019876     
  0.949418932169936       0.940664705319995       0.931910478470053     
   1.04783878390758        1.03908455705764        1.03033033020770     
   1.02157610335776        1.01282187650782        1.00406764965788     
  0.995313422807938       0.986559195957998       0.977804969108056     
  0.969050742258117       0.960296515408177        1.07039492856311     
   1.06164070171317        1.05288647486323        1.04413224801329     
   1.03537802116335        1.02662379431340        1.01786956746346     
   1.00911534061352        1.00036111376358       0.991606886913645     
  0.982852660063702        1.08676545706044        1.07801123021050     
   1.06925700336055        1.06050277651061        1.05174854966067     
   1.04299432281073        1.03424009596079        1.02548586911085     
   1.01673164226091        1.00797741541097       0.999223188561029     
   1.09669219638588        1.08793796953594        1.07918374268600     
   1.07042951583606        1.06167528898612        1.05292106213617     
   1.04416683528623        1.03541260843629        1.02665838158635     
   1.01790415473641        1.00914992788647        1.10001859593033     
   1.09126436908039        1.08251014223045        1.07375591538051     
   1.06500168853057        1.05624746168063        1.04749323483069     
   1.03873900798074        1.02998478113081        1.02123055428087     
   1.01247632743093     
  2.651247573289247E-002  2.386122815960322E-002  2.120998058631397E-002
  1.855873301302472E-002  1.590748543973548E-002  1.325623786644623E-002
  1.060499029315698E-002  7.953742719867740E-003  5.302495146578492E-003
  2.651247573289244E-003  0.000000000000000E+000  2.651247573289247E-002
  2.386122815960322E-002  2.120998058631397E-002  1.855873301302472E-002
  1.590748543973548E-002  1.325623786644623E-002  1.060499029315698E-002
  7.953742719867740E-003  5.302495146578492E-003  2.651247573289244E-003
  0.000000000000000E+000  2.651247573289247E-002  2.386122815960322E-002
  2.120998058631397E-002  1.855873301302472E-002  1.590748543973548E-002
  1.325623786644623E-002  1.060499029315698E-002  7.953742719867740E-003
  5.302495146578492E-003  2.651247573289244E-003  0.000000000000000E+000
  2.651247573289247E-002  2.386122815960322E-002  2.120998058631397E-002
  1.855873301302472E-002  1.590748543973548E-002  1.325623786644623E-002
  1.060499029315698E-002  7.953742719867740E-003  5.302495146578492E-003
  2.651247573289244E-003  0.000000000000000E+000  2.651247573289247E-002
  2.386122815960322E-002  2.120998058631397E-002  1.855873301302472E-002
  1.590748543973548E-002  1.325623786644623E-002  1.060499029315698E-002
  7.953742719867740E-003  5.302495146578492E-003  2.651247573289244E-003
  0.000000000000000E+000  2.651247573289247E-002  2.386122815960322E-002
  2.120998058631397E-002  1.855873301302472E-002  1.590748543973548E-002
  1.325623786644623E-002  1.060499029315698E-002  7.953742719867740E-003
  5.302495146578492E-003  2.651247573289244E-003  0.000000000000000E+000
  2.651247573289247E-002  2.386122815960322E-002  2.120998058631397E-002
  1.855873301302472E-002  1.590748543973548E-002  1.325623786644623E-002
  1.060499029315698E-002  7.953742719867740E-003  5.302495146578492E-003
  2.651247573289244E-003  0.000000000000000E+000  2.651247573289247E-002
  2.386122815960322E-002  2.120998058631397E-002  1.855873301302472E-002
  1.590748543973548E-002  1.325623786644623E-002  1.060499029315698E-002
  7.953742719867740E-003  5.302495146578492E-003  2.651247573289244E-003
  0.000000000000000E+000  2.651247573289247E-002  2.386122815960322E-002
  2.120998058631397E-002  1.855873301302472E-002  1.590748543973548E-002
  1.325623786644623E-002  1.060499029315698E-002  7.953742719867740E-003
  5.302495146578492E-003  2.651247573289244E-003  0.000000000000000E+000
  2.651247573289247E-002  2.386122815960322E-002  2.120998058631397E-002
  1.855873301302472E-002  1.590748543973548E-002  1.325623786644623E-002
  1.060499029315698E-002  7.953742719867740E-003  5.302495146578492E-003
  2.651247573289244E-003  0.000000000000000E+000  2.651247573289247E-002
  2.386122815960322E-002  2.120998058631397E-002  1.855873301302472E-002
  1.590748543973548E-002  1.325623786644623E-002  1.060499029315698E-002
  7.953742719867740E-003  5.302495146578492E-003  2.651247573289244E-003
  0.000000000000000E+000  2.651247573289247E-002  2.386122815960322E-002
  2.120998058631397E-002  1.855873301302472E-002  1.590748543973548E-002
  1.325623786644623E-002  1.060499029315698E-002  7.953742719867740E-003
  5.302495146578492E-003  2.651247573289244E-003  0.000000000000000E+000
  2.651247573289247E-002  2.386122815960322E-002  2.120998058631397E-002
  1.855873301302472E-002  1.590748543973548E-002  1.325623786644623E-002
  1.060499029315698E-002  7.953742719867740E-003  5.302495146578492E-003
  2.651247573289244E-003  0.000000000000000E+000  2.651247573289247E-002
  2.386122815960322E-002  2.120998058631397E-002  1.855873301302472E-002
  1.590748543973548E-002  1.325623786644623E-002  1.060499029315698E-002
  7.953742719867740E-003  5.302495146578492E-003  2.651247573289244E-003
  0.000000000000000E+000  2.651247573289247E-002  2.386122815960322E-002
  2.120998058631397E-002  1.855873301302472E-002  1.590748543973548E-002
  1.325623786644623E-002  1.060499029315698E-002  7.953742719867740E-003
  5.302495146578492E-003  2.651247573289244E-003  0.000000000000000E+000
  2.651247573289247E-002  2.386122815960322E-002  2.120998058631397E-002
  1.855873301302472E-002  1.590748543973548E-002  1.325623786644623E-002
  1.060499029315698E-002  7.953742719867740E-003  5.302495146578492E-003
  2.651247573289244E-003  0.000000000000000E+000  2.651247573289247E-002
  2.386122815960322E-002  2.120998058631397E-002  1.855873301302472E-002
  1.590748543973548E-002  1.325623786644623E-002  1.060499029315698E-002
  7.953742719867740E-003  5.302495146578492E-003  2.651247573289244E-003
  0.000000000000000E+000  2.651247573289247E-002  2.386122815960322E-002
  2.120998058631397E-002  1.855873301302472E-002  1.590748543973548E-002
  1.325623786644623E-002  1.060499029315698E-002  7.953742719867740E-003
  5.302495146578492E-003  2.651247573289244E-003  0.000000000000000E+000
  2.651247573289247E-002  2.386122815960322E-002  2.120998058631397E-002
  1.855873301302472E-002  1.590748543973548E-002  1.325623786644623E-002
  1.060499029315698E-002  7.953742719867740E-003  5.302495146578492E-003
  2.651247573289244E-003  0.000000000000000E+000  2.651247573289247E-002
  2.386122815960322E-002  2.120998058631397E-002  1.855873301302472E-002
  1.590748543973548E-002  1.325623786644623E-002  1.060499029315698E-002
  7.953742719867740E-003  5.302495146578492E-003  2.651247573289244E-003
  0.000000000000000E+000  2.651247573289247E-002  2.386122815960322E-002
  2.120998058631397E-002  1.855873301302472E-002  1.590748543973548E-002
  1.325623786644623E-002  1.060499029315698E-002  7.953742719867740E-003
  5.302495146578492E-003  2.651247573289244E-003  0.000000000000000E+000
  2.651247573289247E-002  2.386122815960322E-002  2.120998058631397E-002
  1.855873301302472E-002  1.590748543973548E-002  1.325623786644623E-002
  1.060499029315698E-002  7.953742719867740E-003  5.302495146578492E-003
  2.651247573289244E-003  0.000000000000000E+000  2.651247573289247E-002
  2.386122815960322E-002  2.120998058631397E-002  1.855873301302472E-002
  1.590748543973548E-002  1.325623786644623E-002  1.060499029315698E-002
  7.953742719867740E-003  5.302495146578492E-003  2.651247573289244E-003
  0.000000000000000E+000  2.651247573289247E-002  2.386122815960322E-002
  2.120998058631397E-002  1.855873301302472E-002  1.590748543973548E-002
  1.325623786644623E-002  1.060499029315698E-002  7.953742719867740E-003
  5.302495146578492E-003  2.651247573289244E-003  0.000000000000000E+000
  2.651247573289247E-002  2.386122815960322E-002  2.120998058631397E-002
  1.855873301302472E-002  1.590748543973548E-002  1.325623786644623E-002
  1.060499029315698E-002  7.953742719867740E-003  5.302495146578492E-003
  2.651247573289244E-003  0.000000000000000E+000  2.651247573289247E-002
  2.386122815960322E-002  2.120998058631397E-002  1.855873301302472E-002
  1.590748543973548E-002  1.325623786644623E-002  1.060499029315698E-002
  7.953742719867740E-003  5.302495146578492E-003  2.651247573289244E-003
  0.000000000000000E+000
 -1.783283769050749E-002 -7.927951550028022E-003  1.225603589771753E-002
  4.165798590907592E-002  8.011766436511188E-002  0.127554471706386     
  0.183200564337958       0.245971919602820       0.311860854607161     
  0.370423135898821      -2.853566446415046E-002 -1.322847478644431E-002
  1.958148812475579E-002  6.770969649090652E-002  0.131090714606149     
  0.209794520144864       0.302601957289719       0.408134493254666     
  0.519813714765372       0.621258190722463      -3.407624688599226E-002
 -1.619090360105527E-002  2.494825468618239E-002  8.594694426292432E-002
  0.166836063028093       0.268199898677644       0.389720595808938     
  0.530986056521367       0.682401746326291       0.820588830253739     
 -3.119660937891482E-002 -1.152845542338290E-002  3.319204831018303E-002
  9.950327233221620E-002  0.186951980018328       0.295706286345880     
  0.427363773235120       0.583796975894785       0.756234323523363     
  0.918990480723966      -1.498854334873273E-002  9.061941531800901E-003
  5.534907347420533E-002  0.122110241179302       0.209198443168342     
  0.316461011457491       0.444027122337076       0.592316160346517     
  0.758254477524328       0.923882933238184       2.036140060668057E-002
  5.543082914051606E-002  0.104881635053447       0.170190492136043     
  0.252814549803269       0.353294539882916       0.470947622098709     
  0.603681986297853       0.747603854448268       0.891759572037818     
  7.839323511264779E-002  0.134990737965237       0.193881769196565     
  0.260498340311798       0.338013475382499       0.428114492650707     
  0.530680012469418       0.643803478805199       0.764100146552800     
  0.882738255013879       0.157981852088006       0.247930408344485     
  0.325638724526145       0.401298568639893       0.479603070603494     
  0.563163402456027       0.652927242561425       0.748007062465920     
  0.845262919540888       0.936540172322362       0.253137728948829     
  0.385466402508345       0.490097696819716       0.582960506768488     
  0.670346295735069       0.755377114671788       0.839361320125020     
  0.921879253300301        1.00043479169347        1.06832860855939     
  0.357136439498298       0.536361097023264       0.671663006936170     
  0.785454120998064       0.886032935310419       0.977199031123820     
   1.06056957061697        1.13631379536993        1.20313832050245     
   1.25648567527734       0.465738133140064       0.693797674067605     
  0.861142362535615       0.997258168759002        1.11295699127969     
   1.21328062126641        1.30069069280512        1.37609967288846     
   1.43900758870454        1.48606601875652       0.577653673129313     
  0.855907250831814        1.05624859242006        1.21571912204974     
   1.34805609585732        1.45986059173054        1.55460557637242     
   1.63393528170580        1.69789113946459        1.74354666087222     
  0.692092386607070        1.02168797917837        1.25603374545727     
   1.44005006086984        1.59054178172629        1.71568684605352     
   1.81988171940900        1.90535537789667        1.97251764506203     
   2.01862610617103       0.808717416847201        1.19073325935428     
   1.45998796993182        1.66942023821681        1.83892453587697     
   1.97826116913173        2.09276413096958        2.18525696519506     
   2.25650757132485        2.30392446437093       0.927733076031361     
   1.36310893040096        1.66778935151926        1.90292157281126     
   2.09158853722611        2.24521470011865        2.37013609648507     
   2.46981996833661        2.54544095410373        2.59459468131064     
   1.05087159008347        1.54095421247942        1.88151924192360     
   2.14230318369459        2.34977841753056        2.51717462126434     
   2.65195580389996        2.75834303945272        2.83801161733664     
   2.88884332124342        1.18677453227225        1.73547060578439     
   2.11313404195643        2.39942637319381        2.62487082196652     
   2.80487932501238        2.94826581098987        3.06016735358286     
   3.14291051578324        3.19483786450398        1.36401918604748     
   1.98149874639986        2.39870872336741        2.71036336531635     
   2.95292904772928        3.14462516669568        3.29583155994103     
   3.41270877642960        3.49830083728493        3.55140890186814     
   1.59047324676102        2.28859949649857        2.74801090553287     
   3.08430715662522        3.34204122954010        3.54316990243432     
   3.70016632842825        3.82050713095056        3.90809151069792     
   3.96226044064782        1.74363196486803        2.49221156234120     
   2.97395398650203        3.31886173846182        3.57774952459529     
   3.77617829973732        3.92870507339507        4.04398356093911     
   4.12666786220533        4.17700665601543        1.77384741436886     
   2.51575372746412        2.98139082376249        3.30755224626917     
   3.54803082916800        3.72973870262533        3.86771582827000     
   3.97064486981540        4.04311151154997        4.08596101404344     
   1.67067502653345        2.33998578369885        2.74594576214666     
   3.02367811864201        3.22531337292299        3.37610300339166     
   3.48960789982403        3.57328102529162        3.63075283124057     
   3.66266872164919        1.44882957555675        1.98428442128378     
   2.29677789347972        2.50743623459790        2.65951196175640     
   2.77296687698936        2.85825408356240        2.92105918373748     
   2.96426630438341        2.98870526090922        1.10924739542474     
   1.47127867109992        1.67972552857271        1.82058948516213     
   1.92265697346684        1.99906081562677        2.05673056484341     
   2.09959106811239        2.13019416740028        2.15223553390694     
  0.674595494623796       0.877346826470475       0.995196893435483     
   1.07529350641392        1.13353820610090        1.17724377643585     
   1.21028946908732        1.23485260707005        1.25212673246996     
   1.26245156276261     
  0.000000000000000E+000  0.000000000000000E+000  0.000000000000000E+000
  0.000000000000000E+000  0.000000000000000E+000  0.000000000000000E+000
  0.000000000000000E+000  0.000000000000000E+000  0.000000000000000E+000
  0.000000000000000E+000  0.000000000000000E+000  0.000000000000000E+000
  0.000000000000000E+000  0.000000000000000E+000  0.000000000000000E+000
  0.000000000000000E+000  0.000000000000000E+000  0.000000000000000E+000
  0.000000000000000E+000  0.000000000000000E+000  0.000000000000000E+000
  0.000000000000000E+000  0.000000000000000E+000  0.000000000000000E+000
  0.000000000000000E+000  0.000000000000000E+000  0.000000000000000E+000
  0.000000000000000E+000  0.000000000000000E+000  0.000000000000000E+000
  0.000000000000000E+000  0.000000000000000E+000  0.000000000000000E+000
  0.000000000000000E+000  0.000000000000000E+000  0.000000000000000E+000
  0.000000000000000E+000  0.000000000000000E+000  0.000000000000000E+000
  0.000000000000000E+000  0.000000000000000E+000  0.000000000000000E+000
  0.000000000000000E+000  0.000000000000000E+000  0.000000000000000E+000
  0.000000000000000E+000  0.000000000000000E+000  0.000000000000000E+000
  0.000000000000000E+000  0.000000000000000E+000  0.000000000000000E+000
  0.000000000000000E+000  0.000000000000000E+000  0.000000000000000E+000
  0.000000000000000E+000  0.000000000000000E+000  0.000000000000000E+000
  0.000000000000000E+000  0.000000000000000E+000  0.000000000000000E+000
  0.000000000000000E+000  0.000000000000000E+000  0.000000000000000E+000
  0.000000000000000E+000  0.000000000000000E+000  0.000000000000000E+000
  0.000000000000000E+000  0.000000000000000E+000  0.000000000000000E+000
  0.000000000000000E+000  0.000000000000000E+000  0.000000000000000E+000
  0.000000000000000E+000  0.000000000000000E+000  0.000000000000000E+000
  0.000000000000000E+000  0.000000000000000E+000  0.000000000000000E+000
  0.000000000000000E+000  0.000000000000000E+000  0.000000000000000E+000
  0.000000000000000E+000  0.000000000000000E+000  0.000000000000000E+000
  0.000000000000000E+000  0.000000000000000E+000  0.000000000000000E+000
  0.000000000000000E+000  0.000000000000000E+000  0.000000000000000E+000
  0.000000000000000E+000  0.000000000000000E+000  0.000000000000000E+000
  0.000000000000000E+000  0.000000000000000E+000  0.000000000000000E+000
  0.000000000000000E+000  0.000000000000000E+000  0.000000000000000E+000
  0.000000000000000E+000  0.000000000000000E+000  0.000000000000000E+000
  0.000000000000000E+000  0.000000000000000E+000  0.000000000000000E+000
  0.000000000000000E+000  0.000000000000000E+000  0.000000000000000E+000
  0.000000000000000E+000  0.000000000000000E+000  0.000000000000000E+000
  0.000000000000000E+000  0.000000000000000E+000  0.000000000000000E+000
  0.000000000000000E+000  0.000000000000000E+000  0.000000000000000E+000