 Title = "Wing and Wake"
 VARIABLES = "X" "Y" "Z" "GAM" "skew"
 Zone I=   11 J=   26 K=1  T="Blade"
 DATAPACKING=BLOCK
 VARLOCATION=([4]=CELLCENTERED,[5]=CELLCENTERED)
  2.537280068877375E-002  3.746234730374876E-002  4.955189391872379E-002
  6.164144053369882E-002  7.373098714867365E-002  8.582053376364868E-002
  9.791008037862346E-002  0.109999626993599       0.122089173608574     
  0.134178720223549       0.146268266838524       2.825553123635594E-002
  4.034507785133055E-002  5.243462446630549E-002  6.452417108128033E-002
  7.661371769625566E-002  8.870326431123048E-002  0.100792810926205     
  0.112882357541181       0.124971904156156       0.137061450771131     
  0.149150997386106       3.685826049630568E-002  4.894780711128049E-002
  6.103735372625570E-002  7.312690034123075E-002  8.521644695620580E-002
  9.730599357118085E-002  0.109395540186156       0.121485086801131     
  0.133574633416106       0.145664180031080       0.157753726646056     
  5.104531828917393E-002  6.313486490414906E-002  7.522441151912397E-002
  8.731395813409894E-002  9.940350474907386E-002  0.111493051364049     
  0.123582597979024       0.135672144593999       0.147761691208974     
  0.159851237823949       0.171940784438923       7.059296623862878E-002
  8.268251285360330E-002  9.477205946857870E-002  0.106861606083553     
  0.118951152698528       0.131040699313504       0.143130245928478     
  0.155219792543453       0.167309339158428       0.179398885773403     
  0.191488432388378       9.519292625930764E-002  0.107282472874283     
  0.119372019489258       0.131461566104233       0.143551112719208     
  0.155640659334183       0.167730205949158       0.179819752564133     
  0.191909299179107       0.203998845794082       0.216088392409058     
  0.124457242286383       0.136546788901358       0.148636335516332     
  0.160725882131307       0.172815428746282       0.184904975361257     
  0.196994521976232       0.209084068591207       0.221173615206183     
  0.233263161821157       0.245352708436131       0.157924398574449     
  0.170013945189424       0.182103491804400       0.194193038419374     
  0.206282585034350       0.218372131649325       0.230461678264300     
  0.242551224879275       0.254640771494250       0.266730318109225     
  0.278819864724200       0.195066598076537       0.207156144691513     
  0.219245691306487       0.231335237921462       0.243424784536437     
  0.255514331151412       0.267603877766387       0.279693424381362     
  0.291782970996336       0.303872517611312       0.315962064226287     
  0.235298086118823       0.247387632733797       0.259477179348773     
  0.271566725963747       0.283656272578722       0.295745819193697     
  0.307835365808672       0.319924912423647       0.332014459038622     
  0.344104005653597       0.356193552268572       0.277984388101752     
  0.290073934716728       0.302163481331702       0.314253027946677     
  0.326342574561652       0.338432121176626       0.350521667791602     
  0.362611214406577       0.374700761021553       0.386790307636527     
  0.398879854251502       0.322452315543495       0.334541862158469     
  0.346631408773445       0.358720955388419       0.370810502003395     
  0.382900048618370       0.394989595233344       0.407079141848319     
  0.419168688463295       0.431258235078270       0.443347781693244     
  0.368000582664443       0.380090129279417       0.392179675894393     
  0.404269222509368       0.416358769124342       0.428448315739317     
  0.440537862354292       0.452627408969267       0.464716955584242     
  0.476806502199217       0.488896048814192       0.413910866082883     
  0.426000412697857       0.438089959312831       0.450179505927806     
  0.462269052542781       0.474358599157757       0.486448145772730     
  0.498537692387705       0.510627239002680       0.522716785617656     
  0.534806332232631       0.459459133203828       0.471548679818804     
  0.483638226433778       0.495727773048755       0.507817319663729     
  0.519906866278704       0.531996412893680       0.544085959508652     
  0.556175506123630       0.568265052738605       0.580354599353580     
  0.503927060645570       0.516016607260547       0.528106153875521     
  0.540195700490497       0.552285247105473       0.564374793720446     
  0.576464340335421       0.588553886950397       0.600643433565370     
  0.612732980180347       0.624822526795322       0.546613362628503     
  0.558702909243475       0.570792455858452       0.582882002473427     
  0.594971549088402       0.607061095703375       0.619150642318350     
  0.631240188933326       0.643329735548301       0.655419282163277     
  0.667508828778252       0.586844850670786       0.598934397285762     
  0.611023943900736       0.623113490515713       0.635203037130686     
  0.647292583745662       0.659382130360637       0.671471676975612     
  0.683561223590586       0.695650770205561       0.707740316820535     
  0.623987050172875       0.636076596787849       0.648166143402825     
  0.660255690017799       0.672345236632773       0.684434783247748     
  0.696524329862723       0.708613876477700       0.720703423092675     
  0.732792969707648       0.744882516322623       0.657454206460942     
  0.669543753075916       0.681633299690890       0.693722846305866     
  0.705812392920841       0.717901939535816       0.729991486150792     
  0.742081032765767       0.754170579380743       0.766260125995715     
  0.778349672610690       0.686718522488016       0.698808069102992     
  0.710897615717964       0.722987162332942       0.735076708947916     
  0.747166255562891       0.759255802177868       0.771345348792840     
  0.783434895407816       0.795524442022791       0.807613988637765     
  0.711318482508696       0.723408029123670       0.735497575738646     
  0.747587122353621       0.759676668968595       0.771766215583570     
  0.783855762198544       0.795945308813519       0.808034855428495     
  0.820124402043469       0.832213948658447       0.730866130458150     
  0.742955677073126       0.755045223688103       0.767134770303073     
  0.779224316918050       0.791313863533025       0.803403410147998     
  0.815492956762974       0.827582503377949       0.839672049992927     
  0.851761596607899       0.745053188251019       0.757142734865991     
  0.769232281480969       0.781321828095943       0.793411374710920     
  0.805500921325893       0.817590467940867       0.829680014555843     
  0.841769561170819       0.853859107785792       0.865948654400768     
  0.753655917510970       0.765745464125943       0.777835010740915     
  0.789924557355893       0.802014103970870       0.814103650585842     
  0.826193197200818       0.838282743815790       0.850372290430768     
  0.862461837045745       0.874551383660716       0.756538648058553     
  0.768628194673525       0.780717741288499       0.792807287903476     
  0.804896834518450       0.816986381133422       0.829075927748400     
  0.841165474363374       0.853255020978351       0.865344567593326     
  0.877434114208302     
  0.266923822779702       0.252442239684285       0.237960656588867     
  0.223479073493450       0.208997490398033       0.194515907302616     
  0.180034324207199       0.165552741111782       0.151071158016365     
  0.136589574920948       0.122107991825531       0.269330390149013     
  0.254848807053596       0.240367223958179       0.225885640862762     
  0.211404057767345       0.196922474671928       0.182440891576510     
  0.167959308481094       0.153477725385676       0.138996142290260     
  0.124514559194842       0.276512139251919       0.262030556156502     
  0.247548973061085       0.233067389965668       0.218585806870251     
  0.204104223774834       0.189622640679417       0.175141057584000     
  0.160659474488583       0.146177891393166       0.131696308297749     
  0.288355809614900       0.273874226519482       0.259392643424065     
  0.244911060328648       0.230429477233231       0.215947894137814     
  0.201466311042397       0.186984727946980       0.172503144851563     
  0.158021561756146       0.143539978660729       0.304674619481263     
  0.290193036385845       0.275711453290428       0.261229870195011     
  0.246748287099595       0.232266704004177       0.217785120908760     
  0.203303537813343       0.188821954717926       0.174340371622509     
  0.159858788527092       0.325211211471032       0.310729628375616     
  0.296248045280198       0.281766462184781       0.267284879089364     
  0.252803295993947       0.238321712898529       0.223840129803113     
  0.209358546707696       0.194876963612278       0.180395380516861     
  0.349641711260564       0.335160128165147       0.320678545069730     
  0.306196961974314       0.291715378878896       0.277233795783479     
  0.262752212688062       0.248270629592645       0.233789046497228     
  0.219307463401810       0.204825880306393       0.377580835274104     
  0.363099252178687       0.348617669083270       0.334136085987853     
  0.319654502892436       0.305172919797020       0.290691336701601     
  0.276209753606184       0.261728170510767       0.247246587415351     
  0.232765004319934       0.408587966835935       0.394106383740519     
  0.379624800645101       0.365143217549685       0.350661634454267     
  0.336180051358850       0.321698468263433       0.307216885168016     
  0.292735302072599       0.278253718977182       0.263772135881765     
  0.442174104958565       0.427692521863147       0.413210938767731     
  0.398729355672313       0.384247772576897       0.369766189481480     
  0.355284606386062       0.340803023290646       0.326321440195228     
  0.311839857099812       0.297358274004394       0.477809576180413     
  0.463327993084997       0.448846409989579       0.434364826894161     
  0.419883243798744       0.405401660703327       0.390920077607910     
  0.376438494512494       0.361956911417077       0.347475328321659     
  0.332993745226242       0.514932387832712       0.500450804737293     
  0.485969221641876       0.471487638546460       0.457006055451043     
  0.442524472355626       0.428042889260207       0.413561306164791     
  0.399079723069375       0.384598139973957       0.370116556878541     
  0.552957090999610       0.538475507904194       0.523993924808776     
  0.509512341713361       0.495030758617942       0.480549175522526     
  0.466067592427108       0.451586009331691       0.437104426236274     
  0.422622843140858       0.408141260045440       0.591284013397313     
  0.576802430301896       0.562320847206479       0.547839264111062     
  0.533357681015645       0.518876097920228       0.504394514824810     
  0.489912931729394       0.475431348633976       0.460949765538559     
  0.446468182443143       0.629308716564213       0.614827133468797     
  0.600345550373379       0.585863967277963       0.571382384182546     
  0.556900801087129       0.542419217991711       0.527937634896294     
  0.513456051800877       0.498974468705461       0.484492885610043     
  0.666431528216511       0.651949945121094       0.637468362025678     
  0.622986778930260       0.608505195834844       0.594023612739426     
  0.579542029644010       0.565060446548592       0.550578863453174     
  0.536097280357758       0.521615697262342       0.702066999438359     
  0.687585416342942       0.673103833247525       0.658622250152109     
  0.644140667056692       0.629659083961273       0.615177500865856     
  0.600695917770440       0.586214334675022       0.571732751579607     
  0.557251168484190       0.735653137560989       0.721171554465571     
  0.706689971370154       0.692208388274738       0.677726805179320     
  0.663245222083904       0.648763638988486       0.634282055893070     
  0.619800472797652       0.605318889702234       0.590837306606818     
  0.766660269122820       0.752178686027403       0.737697102931984     
  0.723215519836569       0.708733936741152       0.694252353645733     
  0.679770770550315       0.665289187454901       0.650807604359484     
  0.636326021264066       0.621844438168649       0.794599393136361     
  0.780117810040942       0.765636226945525       0.751154643850110     
  0.736673060754692       0.722191477659274       0.707709894563858     
  0.693228311468440       0.678746728373025       0.664265145277607     
  0.649783562182190       0.819029892925891       0.804548309830475     
  0.790066726735057       0.775585143639641       0.761103560544223     
  0.746621977448805       0.732140394353391       0.717658811257972     
  0.703177228162556       0.688695645067138       0.674214061971721     
  0.839566484915661       0.825084901820246       0.810603318724827     
  0.796121735629409       0.781640152533994       0.767158569438576     
  0.752676986343159       0.738195403247741       0.723713820152324     
  0.709232237056908       0.694750653961491       0.855885294782028     
  0.841403711686608       0.826922128591192       0.812440545495772     
  0.797958962400356       0.783477379304939       0.768995796209520     
  0.754514213114105       0.740032630018688       0.725551046923272     
  0.711069463827853       0.867728965145007       0.853247382049589     
  0.838765798954171       0.824284215858753       0.809802632763338     
  0.795321049667919       0.780839466572503       0.766357883477086     
  0.751876300381669       0.737394717286250       0.722913134190833     
  0.874910714247911       0.860429131152494       0.845947548057076     
  0.831465964961659       0.816984381866242       0.802502798770825     
  0.788021215675408       0.773539632579990       0.759058049484575     
  0.744576466389159       0.730094883293740       0.877317281617223     
  0.862835698521807       0.848354115426387       0.833872532330972     
  0.819390949235553       0.804909366140137       0.790427783044719     
  0.775946199949302       0.761464616853888       0.746983033758469     
  0.732501450663053     
  2.651247573289247E-002  2.386122815960322E-002  2.120998058631397E-002
  1.855873301302472E-002  1.590748543973548E-002  1.325623786644623E-002
  1.060499029315698E-002  7.953742719867740E-003  5.302495146578492E-003
  2.651247573289244E-003  0.000000000000000E+000  2.651247573289247E-002
  2.386122815960322E-002  2.120998058631397E-002  1.855873301302472E-002
  1.590748543973548E-002  1.325623786644623E-002  1.060499029315698E-002
  7.953742719867740E-003  5.302495146578492E-003  2.651247573289244E-003
  0.000000000000000E+000  2.651247573289247E-002  2.386122815960322E-002
  2.120998058631397E-002  1.855873301302472E-002  1.590748543973548E-002
  1.325623786644623E-002  1.060499029315698E-002  7.953742719867740E-003
  5.302495146578492E-003  2.651247573289244E-003  0.000000000000000E+000
  2.651247573289247E-002  2.386122815960322E-002  2.120998058631397E-002
  1.855873301302472E-002  1.590748543973548E-002  1.325623786644623E-002
  1.060499029315698E-002  7.953742719867740E-003  5.302495146578492E-003
  2.651247573289244E-003  0.000000000000000E+000  2.651247573289247E-002
  2.386122815960322E-002  2.120998058631397E-002  1.855873301302472E-002
  1.590748543973548E-002  1.325623786644623E-002  1.060499029315698E-002
  7.953742719867740E-003  5.302495146578492E-003  2.651247573289244E-003
  0.000000000000000E+000  2.651247573289247E-002  2.386122815960322E-002
  2.120998058631397E-002  1.855873301302472E-002  1.590748543973548E-002
  1.325623786644623E-002  1.060499029315698E-002  7.953742719867740E-003
  5.302495146578492E-003  2.651247573289244E-003  0.000000000000000E+000
  2.651247573289247E-002  2.386122815960322E-002  2.120998058631397E-002
  1.855873301302472E-002  1.590748543973548E-002  1.325623786644623E-002
  1.060499029315698E-002  7.953742719867740E-003  5.302495146578492E-003
  2.651247573289244E-003  0.000000000000000E+000  2.651247573289247E-002
  2.386122815960322E-002  2.120998058631397E-002  1.855873301302472E-002
  1.590748543973548E-002  1.325623786644623E-002  1.060499029315698E-002
  7.953742719867740E-003  5.302495146578492E-003  2.651247573289244E-003
  0.000000000000000E+000  2.651247573289247E-002  2.386122815960322E-002
  2.120998058631397E-002  1.855873301302472E-002  1.590748543973548E-002
  1.325623786644623E-002  1.060499029315698E-002  7.953742719867740E-003
  5.302495146578492E-003  2.651247573289244E-003  0.000000000000000E+000
  2.651247573289247E-002  2.386122815960322E-002  2.120998058631397E-002
  1.855873301302472E-002  1.590748543973548E-002  1.325623786644623E-002
  1.060499029315698E-002  7.953742719867740E-003  5.302495146578492E-003
  2.651247573289244E-003  0.000000000000000E+000  2.651247573289247E-002
  2.386122815960322E-002  2.120998058631397E-002  1.855873301302472E-002
  1.590748543973548E-002  1.325623786644623E-002  1.060499029315698E-002
  7.953742719867740E-003  5.302495146578492E-003  2.651247573289244E-003
  0.000000000000000E+000  2.651247573289247E-002  2.386122815960322E-002
  2.120998058631397E-002  1.855873301302472E-002  1.590748543973548E-002
  1.325623786644623E-002  1.060499029315698E-002  7.953742719867740E-003
  5.302495146578492E-003  2.651247573289244E-003  0.000000000000000E+000
  2.651247573289247E-002  2.386122815960322E-002  2.120998058631397E-002
  1.855873301302472E-002  1.590748543973548E-002  1.325623786644623E-002
  1.060499029315698E-002  7.953742719867740E-003  5.302495146578492E-003
  2.651247573289244E-003  0.000000000000000E+000  2.651247573289247E-002
  2.386122815960322E-002  2.120998058631397E-002  1.855873301302472E-002
  1.590748543973548E-002  1.325623786644623E-002  1.060499029315698E-002
  7.953742719867740E-003  5.302495146578492E-003  2.651247573289244E-003
  0.000000000000000E+000  2.651247573289247E-002  2.386122815960322E-002
  2.120998058631397E-002  1.855873301302472E-002  1.590748543973548E-002
  1.325623786644623E-002  1.060499029315698E-002  7.953742719867740E-003
  5.302495146578492E-003  2.651247573289244E-003  0.000000000000000E+000
  2.651247573289247E-002  2.386122815960322E-002  2.120998058631397E-002
  1.855873301302472E-002  1.590748543973548E-002  1.325623786644623E-002
  1.060499029315698E-002  7.953742719867740E-003  5.302495146578492E-003
  2.651247573289244E-003  0.000000000000000E+000  2.651247573289247E-002
  2.386122815960322E-002  2.120998058631397E-002  1.855873301302472E-002
  1.590748543973548E-002  1.325623786644623E-002  1.060499029315698E-002
  7.953742719867740E-003  5.302495146578492E-003  2.651247573289244E-003
  0.000000000000000E+000  2.651247573289247E-002  2.386122815960322E-002
  2.120998058631397E-002  1.855873301302472E-002  1.590748543973548E-002
  1.325623786644623E-002  1.060499029315698E-002  7.953742719867740E-003
  5.302495146578492E-003  2.651247573289244E-003  0.000000000000000E+000
  2.651247573289247E-002  2.386122815960322E-002  2.120998058631397E-002
  1.855873301302472E-002  1.590748543973548E-002  1.325623786644623E-002
  1.060499029315698E-002  7.953742719867740E-003  5.302495146578492E-003
  2.651247573289244E-003  0.000000000000000E+000  2.651247573289247E-002
  2.386122815960322E-002  2.120998058631397E-002  1.855873301302472E-002
  1.590748543973548E-002  1.325623786644623E-002  1.060499029315698E-002
  7.953742719867740E-003  5.302495146578492E-003  2.651247573289244E-003
  0.000000000000000E+000  2.651247573289247E-002  2.386122815960322E-002
  2.120998058631397E-002  1.855873301302472E-002  1.590748543973548E-002
  1.325623786644623E-002  1.060499029315698E-002  7.953742719867740E-003
  5.302495146578492E-003  2.651247573289244E-003  0.000000000000000E+000
  2.651247573289247E-002  2.386122815960322E-002  2.120998058631397E-002
  1.855873301302472E-002  1.590748543973548E-002  1.325623786644623E-002
  1.060499029315698E-002  7.953742719867740E-003  5.302495146578492E-003
  2.651247573289244E-003  0.000000000000000E+000  2.651247573289247E-002
  2.386122815960322E-002  2.120998058631397E-002  1.855873301302472E-002
  1.590748543973548E-002  1.325623786644623E-002  1.060499029315698E-002
  7.953742719867740E-003  5.302495146578492E-003  2.651247573289244E-003
  0.000000000000000E+000  2.651247573289247E-002  2.386122815960322E-002
  2.120998058631397E-002  1.855873301302472E-002  1.590748543973548E-002
  1.325623786644623E-002  1.060499029315698E-002  7.953742719867740E-003
  5.302495146578492E-003  2.651247573289244E-003  0.000000000000000E+000
  2.651247573289247E-002  2.386122815960322E-002  2.120998058631397E-002
  1.855873301302472E-002  1.590748543973548E-002  1.325623786644623E-002
  1.060499029315698E-002  7.953742719867740E-003  5.302495146578492E-003
  2.651247573289244E-003  0.000000000000000E+000  2.651247573289247E-002
  2.386122815960322E-002  2.120998058631397E-002  1.855873301302472E-002
  1.590748543973548E-002  1.325623786644623E-002  1.060499029315698E-002
  7.953742719867740E-003  5.302495146578492E-003  2.651247573289244E-003
  0.000000000000000E+000
  4.171820241600969E-002  7.668623625617654E-002  0.112627622582295     
  0.148925725955564       0.181374775334807       0.205177857710924     
  0.219603329070352       0.225845556635645       0.224963144938494     
  0.219079198086431       6.800695674141230E-002  0.124907911016702     
  0.183445009229752       0.243354285782764       0.298338578596241     
  0.340070306883695       0.366230073506083       0.378308884564894     
  0.378076114151784       0.369941667908478       8.696273459647608E-002
  0.156992481042959       0.229996488749822       0.305629185526277     
  0.378043201135533       0.437270653617150       0.479131523973226     
  0.502113236437211       0.506583377798515       0.497837859746902     
  0.102789835394207       0.175756635569695       0.249430976059363     
  0.326701833009646       0.401049518247442       0.465699267073096     
  0.518816926898064       0.554612857028493       0.567649948013649     
  0.561984594300084       0.125712012658228       0.202726449664016     
  0.270482080674747       0.335274863291545       0.397796270087784     
  0.455461092455273       0.505144051191417       0.540914351004500     
  0.555199750556066       0.552574789556270       0.159085725678518     
  0.247532986641264       0.318570950693954       0.379995235375441     
  0.434056763714138       0.481035482024166       0.519873647404239     
  0.548100496900927       0.563065791786739       0.564054796543989     
  0.204749140268444       0.311762075904029       0.393569476684519     
  0.461335888457943       0.518703542666013       0.566990801337072     
  0.606327764052479       0.636068545621203       0.654970280881094     
  0.661175159737438       0.262438582333724       0.394634469023434     
  0.492860221140501       0.572529729515335       0.639051700466729     
  0.694751365549996       0.740468854553372       0.776046651417090     
  0.800469445647674       0.811727926997431       0.331618933191413     
  0.495034999440972       0.614399220796306       0.709943855360939     
  0.788885030232610       0.854460061315692       0.908129783250682     
  0.950271498063625       0.980308348774961       0.996293977166811     
  0.411396838290968       0.610996637376327       0.754870086903262     
  0.868761888838336       0.962026141737169        1.03900499107427     
   1.10185397956460        1.15145834158667        1.18759379539130     
   1.20832104139485       0.499968063198252       0.739857478861353     
  0.911097020902936        1.04553063731474        1.15487950265287     
   1.24471930250334        1.31795358949957        1.37595056163501     
   1.41876746119159        1.44439714511945       0.596236767953979     
  0.880047278411861        1.08117677830392        1.23806723359249     
   1.36501086670071        1.46891500811515        1.55347034949552     
   1.62053068196466        1.67040631110573        1.70098778150266     
  0.699232252758970        1.03000506565524        1.26307395564293     
   1.44393753082480        1.58961945235388        1.70843136526650     
   1.80488977267847        1.88135462726282        1.93840539957667     
   1.97384929646493       0.807869664778620        1.18803491209370     
   1.45457258599784        1.66043570369535        1.82553779142427     
   1.95967819741803        2.06824578950054        2.15413618075205     
   2.21822716094444        2.25830129607824       0.921299907946204     
   1.35276694973969        1.65383004560220        1.88525498347896     
   2.06998923741573        2.21941044995792        2.33985474791983     
   2.43481564769405        2.50552597637166        2.54982018847255     
   1.04044535731209        1.52531080283990        1.86184156033994     
   2.11907124948250        2.32320318737971        2.48734098854386     
   2.61889305864360        2.72206752293803        2.79856161833849     
   2.84640109374316        1.17355186438784        1.71646959007530     
   2.09024023262756        2.37352828186174        2.59646784528800     
   2.77427633572942        2.91566500132859        3.02572282087610     
   3.10677115217106        3.15722324982657        1.35286397125701     
   1.96562540401320        2.37994946666486        2.68984197032417     
   2.93140584998875        3.12256613694956        3.27352285064875     
   3.39035166265985        3.47606465568306        3.52943726619979     
   1.59621469858020        2.29534031459544        2.75496185667271     
   3.09184808196923        3.35066962007955        3.55311175586469     
   3.71150442118774        3.83328790438652        3.92235733474395     
   3.97799166347461        1.76349535938604        2.51881825047227     
   3.00427071629672        3.35193010015761        3.61316494762465     
   3.81365632281046        3.96803016508732        4.08500701185080     
   4.16929067100751        4.22109649339776        1.80321053637585     
   2.55551440663339        3.02692192169939        3.35704704851993     
   3.60051214408058        3.78451709414165        3.92428991045053     
   4.02865432012483        4.10229624441138        4.14610599509080     
   1.70084270634381        2.38126355321949        2.79343531607896     
   3.07518765925083        3.27965921243909        3.43254125413748     
   3.54761977948587        3.63247662039946        3.69081526820134     
   3.72331091177497        1.47479219523148        2.01947254865500     
   2.33705461770172        2.55095315235613        2.70525507219850     
   2.82030290000046        2.90674854696990        2.97038978316523     
   3.01417113187737        3.03893895183067        1.12876744893418     
   1.49706668424009        1.70896109481693        1.85203248765611     
   1.95561634003752        2.03309957627155        2.09154800169526     
   2.13496618384114        2.16595689191425        2.18827584491228     
  0.686370674315346       0.892633297775275        1.01243798489407     
   1.09379474014819        1.15290792757508        1.19723219772258     
   1.23072356226785        1.25560398795945        1.27309168572260     
   1.28353093201002     
  0.000000000000000E+000  0.000000000000000E+000  0.000000000000000E+000
  0.000000000000000E+000  0.000000000000000E+000  0.000000000000000E+000
  0.000000000000000E+000  0.000000000000000E+000  0.000000000000000E+000
  0.000000000000000E+000  0.000000000000000E+000  0.000000000000000E+000
  0.000000000000000E+000  0.000000000000000E+000  0.000000000000000E+000
  0.000000000000000E+000  0.000000000000000E+000  0.000000000000000E+000
  0.000000000000000E+000  0.000000000000000E+000  0.000000000000000E+000
  0.000000000000000E+000  0.000000000000000E+000  0.000000000000000E+000
  0.000000000000000E+000  0.000000000000000E+000  0.000000000000000E+000
  0.000000000000000E+000  0.000000000000000E+000  0.000000000000000E+000
  0.000000000000000E+000  0.000000000000000E+000  0.000000000000000E+000
  0.000000000000000E+000  0.000000000000000E+000  0.000000000000000E+000
  0.000000000000000E+000  0.000000000000000E+000  0.000000000000000E+000
  0.000000000000000E+000  0.000000000000000E+000  0.000000000000000E+000
  0.000000000000000E+000  0.000000000000000E+000  0.000000000000000E+000
  0.000000000000000E+000  0.000000000000000E+000  0.000000000000000E+000
  0.000000000000000E+000  0.000000000000000E+000  0.000000000000000E+000
  0.000000000000000E+000  0.000000000000000E+000  0.000000000000000E+000
  0.000000000000000E+000  0.000000000000000E+000  0.000000000000000E+000
  0.000000000000000E+000  0.000000000000000E+000  0.000000000000000E+000
  0.000000000000000E+000  0.000000000000000E+000  0.000000000000000E+000
  0.000000000000000E+000  0.000000000000000E+000  0.000000000000000E+000
  0.000000000000000E+000  0.000000000000000E+000  0.000000000000000E+000
  0.000000000000000E+000  0.000000000000000E+000  0.000000000000000E+000
  0.000000000000000E+000  0.000000000000000E+000  0.000000000000000E+000
  0.000000000000000E+000  0.000000000000000E+000  0.000000000000000E+000
  0.000000000000000E+000  0.000000000000000E+000  0.000000000000000E+000
  0.000000000000000E+000  0.000000000000000E+000  0.000000000000000E+000
  0.000000000000000E+000  0.000000000000000E+000  0.000000000000000E+000
  0.000000000000000E+000  0.000000000000000E+000  0.000000000000000E+000
  0.000000000000000E+000  0.000000000000000E+000  0.000000000000000E+000
  0.000000000000000E+000  0.000000000000000E+000  0.000000000000000E+000
  0.000000000000000E+000  0.000000000000000E+000  0.000000000000000E+000
  0.000000000000000E+000  0.000000000000000E+000  0.000000000000000E+000
  0.000000000000000E+000  0.000000000000000E+000  0.000000000000000E+000
  0.000000000000000E+000  0.000000000000000E+000  0.000000000000000E+000
  0.000000000000000E+000  0.000000000000000E+000  0.000000000000000E+000
  0.000000000000000E+000  0.000000000000000E+000  0.000000000000000E+000
  0.000000000000000E+000  0.000000000000000E+000  0.000000000000000E+000