 Title = "Wing and Wake"
 VARIABLES = "X" "Y" "Z" "GAM" "skew"
 Zone I=   11 J=   26 K=1  T="Blade"
 DATAPACKING=BLOCK
 VARLOCATION=([4]=CELLCENTERED,[5]=CELLCENTERED)
 -0.227241518515846      -0.223108194962914      -0.218974871409982     
 -0.214841547857050      -0.210708224304118      -0.206574900751186     
 -0.202441577198254      -0.198308253645322      -0.194174930092390     
 -0.190041606539458      -0.185908282986526      -0.230905494974974     
 -0.226772171422041      -0.222638847869109      -0.218505524316177     
 -0.214372200763246      -0.210238877210314      -0.206105553657381     
 -0.201972230104450      -0.197838906551517      -0.193705582998586     
 -0.189572259445653      -0.241839641254842      -0.237706317701910     
 -0.233572994148978      -0.229439670596046      -0.225306347043114     
 -0.221173023490182      -0.217039699937250      -0.212906376384318     
 -0.208773052831386      -0.204639729278454      -0.200506405725522     
 -0.259871519336876      -0.255738195783944      -0.251604872231013     
 -0.247471548678080      -0.243338225125149      -0.239204901572216     
 -0.235071578019284      -0.230938254466352      -0.226804930913420     
 -0.222671607360488      -0.218538283807556      -0.284716755732001     
 -0.280583432179068      -0.276450108626137      -0.272316785073204     
 -0.268183461520272      -0.264050137967340      -0.259916814414408     
 -0.255783490861476      -0.251650167308544      -0.247516843755612     
 -0.243383520202680      -0.315983526220438      -0.311850202667506     
 -0.307716879114574      -0.303583555561642      -0.299450232008710     
 -0.295316908455778      -0.291183584902846      -0.287050261349914     
 -0.282916937796982      -0.278783614244050      -0.274650290691118     
 -0.353178735153724      -0.349045411600792      -0.344912088047860     
 -0.340778764494928      -0.336645440941996      -0.332512117389064     
 -0.328378793836132      -0.324245470283200      -0.320112146730268     
 -0.315978823177335      -0.311845499624403      -0.395715791867639     
 -0.391582468314707      -0.387449144761775      -0.383315821208842     
 -0.379182497655911      -0.375049174102979      -0.370915850550046     
 -0.366782526997115      -0.362649203444182      -0.358515879891251     
 -0.354382556338319      -0.442923861567398      -0.438790538014467     
 -0.434657214461535      -0.430523890908603      -0.426390567355670     
 -0.422257243802738      -0.418123920249806      -0.413990596696874     
 -0.409857273143942      -0.405723949591011      -0.401590626038078     
 -0.494058444793104      -0.489925121240171      -0.485791797687240     
 -0.481658474134308      -0.477525150581376      -0.473391827028444     
 -0.469258503475512      -0.465125179922580      -0.460991856369647     
 -0.456858532816715      -0.452725209263783      -0.548313118620966     
 -0.544179795068034      -0.540046471515102      -0.535913147962170     
 -0.531779824409238      -0.527646500856306      -0.523513177303374     
 -0.519379853750442      -0.515246530197510      -0.511113206644578     
 -0.506979883091646      -0.604832254434549      -0.600698930881616     
 -0.596565607328684      -0.592432283775752      -0.588298960222820     
 -0.584165636669889      -0.580032313116956      -0.575898989564025     
 -0.571765666011092      -0.567632342458160      -0.563499018905229     
 -0.662724511699177      -0.658591188146244      -0.654457864593312     
 -0.650324541040381      -0.646191217487448      -0.642057893934516     
 -0.637924570381584      -0.633791246828652      -0.629657923275719     
 -0.625524599722788      -0.621391276169856      -0.721076894934627     
 -0.716943571381695      -0.712810247828763      -0.708676924275830     
 -0.704543600722899      -0.700410277169967      -0.696276953617035     
 -0.692143630064102      -0.688010306511171      -0.683876982958239     
 -0.679743659405306      -0.778969152199254      -0.774835828646323     
 -0.770702505093391      -0.766569181540458      -0.762435857987526     
 -0.758302534434594      -0.754169210881662      -0.750035887328729     
 -0.745902563775798      -0.741769240222867      -0.737635916669935     
 -0.835488288012836      -0.831354964459905      -0.827221640906972     
 -0.823088317354040      -0.818954993801109      -0.814821670248177     
 -0.810688346695245      -0.806555023142313      -0.802421699589380     
 -0.798288376036449      -0.794155052483517      -0.889742961840699     
 -0.885609638287767      -0.881476314734835      -0.877342991181903     
 -0.873209667628971      -0.869076344076038      -0.864943020523106     
 -0.860809696970175      -0.856676373417242      -0.852543049864311     
 -0.848409726311379      -0.940877545066404      -0.936744221513471     
 -0.932610897960540      -0.928477574407608      -0.924344250854676     
 -0.920210927301744      -0.916077603748812      -0.911944280195880     
 -0.907810956642948      -0.903677633090016      -0.899544309537083     
 -0.988085614766164      -0.983952291213232      -0.979818967660300     
 -0.975685644107367      -0.971552320554436      -0.967418997001503     
 -0.963285673448572      -0.959152349895640      -0.955019026342709     
 -0.950885702789775      -0.946752379236844       -1.03062267148008     
  -1.02648934792715       -1.02235602437421       -1.01822270082128     
  -1.01408937726835       -1.00995605371542       -1.00582273016249     
  -1.00168940660955      -0.997556083056623      -0.993422759503690     
 -0.989289435950758       -1.06781788041336       -1.06368455686043     
  -1.05955123330750       -1.05541790975457       -1.05128458620164     
  -1.04715126264870       -1.04301793909577       -1.03888461554284     
  -1.03475129198991       -1.03061796843698       -1.02648464488404     
  -1.09908465090180       -1.09495132734887       -1.09081800379594     
  -1.08668468024301       -1.08255135669007       -1.07841803313714     
  -1.07428470958421       -1.07015138603128       -1.06601806247835     
  -1.06188473892541       -1.05775141537248       -1.12392988729693     
  -1.11979656374399       -1.11566324019106       -1.11152991663813     
  -1.10739659308520       -1.10326326953226       -1.09912994597933     
  -1.09499662242640       -1.09086329887347       -1.08672997532054     
  -1.08259665176761       -1.14196176537896       -1.13782844182603     
  -1.13369511827310       -1.12956179472016       -1.12542847116723     
  -1.12129514761430       -1.11716182406137       -1.11302850050844     
  -1.10889517695550       -1.10476185340257       -1.10062852984964     
  -1.15289591165883       -1.14876258810590       -1.14462926455296     
  -1.14049594100003       -1.13636261744710       -1.13222929389417     
  -1.12809597034124       -1.12396264678830       -1.11982932323537     
  -1.11569599968244       -1.11156267612951       -1.15655988811796     
  -1.15242656456502       -1.14829324101209       -1.14415991745916     
  -1.14002659390623       -1.13589327035330       -1.13175994680036     
  -1.12762662324743       -1.12349329969450       -1.11935997614157     
  -1.11522665258864     
 -0.142314435124253      -0.123908212733118      -0.105501990341983     
 -8.709576795084871E-002 -6.868954555971409E-002 -5.028332316857959E-002
 -3.187710077744481E-002 -1.347087838631014E-002  4.935344004824383E-003
  2.334156639595890E-002  4.174778878709355E-002 -0.141491648140911     
 -0.123085425749777      -0.104679203358642      -8.627298096750785E-002
 -6.786675857637325E-002 -4.946053618523875E-002 -3.105431379410411E-002
 -1.264809140296946E-002  5.758130988165159E-003  2.416435337929966E-002
  4.257057577043430E-002 -0.139036263033126      -0.120630040641991     
 -0.102223818250857      -8.381759585972215E-002 -6.541137346858746E-002
 -4.700515107745282E-002 -2.859892868631836E-002 -1.019270629518374E-002
  8.213516095950750E-003  2.661973848708543E-002  4.502596087822006E-002
 -0.134987002690821      -0.116580780299686      -9.817455790855149E-002
 -7.976833551741687E-002 -6.136211312628245E-002 -4.295589073514773E-002
 -2.454966834401309E-002 -6.143445952878680E-003  1.226277643825607E-002
  3.066899882939057E-002  4.907522122052508E-002 -0.129407726368505     
 -0.111001503977371      -9.259528158623612E-002 -7.418905919510148E-002
 -5.578283680396689E-002 -3.737661441283223E-002 -1.897039202169764E-002
 -5.641696305631092E-004  1.784205276057136E-002  3.624827515170599E-002
  5.465449754284057E-002 -0.122386422586681      -0.103980200195546     
 -8.557397780441152E-002 -6.716775541327685E-002 -4.876153302214226E-002
 -3.035531063100765E-002 -1.194908823987305E-002  6.457134151261506E-003
  2.486335654239615E-002  4.326957893353076E-002  6.167580132466548E-002
 -0.114033821500309      -9.562759910917479E-002 -7.722137671804055E-002
 -5.881515432690597E-002 -4.040893193577107E-002 -2.200270954463670E-002
 -3.596487153502165E-003  1.480973523763269E-002  3.321595762876735E-002
  5.162218001990165E-002  7.002840241103617E-002 -0.104481648618126     
 -8.607542622699178E-002 -6.766920383585685E-002 -4.926298144472251E-002
 -3.085675905358816E-002 -1.245053666245313E-002  5.955685728681328E-003
  2.436190811981579E-002  4.276813051095037E-002  6.117435290208505E-002
  7.958057529321975E-002 -9.388054741267438E-002 -7.547432502153996E-002
 -5.706810263040539E-002 -3.866188023927076E-002 -2.025565784813577E-002
 -1.849435457001448E-003  1.655678693413314E-002  3.496300932526788E-002
  5.336923171640190E-002  7.177545410753700E-002  9.018167649867123E-002
 -8.239770358275469E-002 -6.399148119161997E-002 -4.558525880048555E-002
 -2.717903640935124E-002 -8.772814018216370E-003  9.633408372918354E-003
  2.803963076405285E-002  4.644585315518759E-002  6.485207554632219E-002
  8.325829793745641E-002  0.101664520328591      -7.021420843508340E-002
 -5.180798604394834E-002 -3.340176365281448E-002 -1.499554126167988E-002
  3.410681129455025E-003  2.181690352058943E-002  4.022312591172431E-002
  5.862934830285881E-002  7.703557069399335E-002  9.544179308512769E-002
  0.113848015476262      -5.752220296620647E-002 -3.911598057507161E-002
 -2.070975818393714E-002 -2.303535792802968E-003  1.610268659833163E-002
  3.450890898946660E-002  5.291513138060133E-002  7.132135377173560E-002
  8.972757616287007E-002  0.108133798554005       0.126540020945139     
 -4.452184768420457E-002 -2.611562529307062E-002 -7.709402901935478E-003
  1.069681948919847E-002  2.910304188033340E-002  4.750926427146795E-002
  6.591548666260282E-002  8.432170905373726E-002  0.102727931444872     
  0.121134153836006       0.139540376227141      -3.141816595791096E-002
 -1.301194356677660E-002  5.394278824357791E-003  2.380050121549248E-002
  4.220672360662721E-002  6.061294599776140E-002  7.901916838889639E-002
  9.742539078003018E-002  0.115831613171166       0.134237835562300     
  0.152644057953435      -1.841781067590965E-002 -1.158828477499623E-005
  1.839463410635939E-002  3.680085649749413E-002  5.520707888862823E-002
  7.361330127976283E-002  9.201952367089811E-002  0.110425746062032     
  0.128831968453167       0.147238190844302       0.165644413235437     
 -5.725805207032823E-003  1.268041718410229E-002  3.108663957523632E-002
  4.949286196637107E-002  6.789908435750540E-002  8.630530674863980E-002
  0.104711529139775       0.123117751530909       0.141523973922043     
  0.159930196313179       0.178336418704313       6.457689940639322E-003
  2.486391233177336E-002  4.327013472290740E-002  6.167635711404208E-002
  8.008257950517711E-002  9.848880189631078E-002  0.116895024287446     
  0.135301246678581       0.153707469069715       0.172113691460850     
  0.190519913851984       1.794053377055823E-002  3.634675616169294E-002
  5.475297855282719E-002  7.315920094396254E-002  9.156542333509672E-002
  0.109971645726232       0.128377868117366       0.146784090508500     
  0.165190312899636       0.183596535290770       0.202002757681904     
  2.854163497601054E-002  4.694785736714500E-002  6.535407975827950E-002
  8.376030214941421E-002  0.102166524540548       0.120572746931683     
  0.138978969322818       0.157385191713953       0.175791414105087     
  0.194197636496222       0.212603858887356       3.809380785819320E-002
  5.650003024932765E-002  7.490625264046204E-002  9.331247503159723E-002
  0.111718697422732       0.130124919813866       0.148531142205001     
  0.166937364596135       0.185343586987271       0.203749809378404     
  0.222156031769539       4.644640894456395E-002  6.485263133569978E-002
  8.325885372683305E-002  0.101665076117968       0.120071298509103     
  0.138477520900238       0.156883743291372       0.175289965682507     
  0.193696188073641       0.212102410464776       0.230508632855911     
  5.346771272638926E-002  7.187393511752366E-002  9.028015750865846E-002
  0.108686379899793       0.127092602290927       0.145498824682063     
  0.163905047073197       0.182311269464332       0.200717491855466     
  0.219123714246600       0.237529936637736       5.904698904870422E-002
  7.745321143983924E-002  9.585943383097424E-002  0.114265656222108     
  0.132671878613243       0.151078101004377       0.169484323395513     
  0.187890545786646       0.206296768177782       0.224702990568917     
  0.243109212960051       6.309624939100993E-002  8.150247178214430E-002
  9.990869417327886E-002  0.118314916564414       0.136721138955548     
  0.155127361346683       0.173533583737818       0.191939806128952     
  0.210346028520086       0.228752250911221       0.247158473302356     
  6.555163449879586E-002  8.395785688992996E-002  0.102364079281064     
  0.120770301672200       0.139176524063334       0.157582746454468     
  0.175988968845603       0.194395191236737       0.212801413627872     
  0.231207636019007       0.249613858410142       6.637442148213653E-002
  8.478064387327050E-002  0.103186866264406       0.121593088655539     
  0.139999311046675       0.158405533437809       0.176811755828944     
  0.195217978220078       0.213624200611213       0.232030423002348     
  0.250436645393483     
  2.651247573289247E-002  2.386122815960322E-002  2.120998058631397E-002
  1.855873301302472E-002  1.590748543973548E-002  1.325623786644623E-002
  1.060499029315698E-002  7.953742719867740E-003  5.302495146578492E-003
  2.651247573289244E-003  0.000000000000000E+000  2.651247573289247E-002
  2.386122815960322E-002  2.120998058631397E-002  1.855873301302472E-002
  1.590748543973548E-002  1.325623786644623E-002  1.060499029315698E-002
  7.953742719867740E-003  5.302495146578492E-003  2.651247573289244E-003
  0.000000000000000E+000  2.651247573289247E-002  2.386122815960322E-002
  2.120998058631397E-002  1.855873301302472E-002  1.590748543973548E-002
  1.325623786644623E-002  1.060499029315698E-002  7.953742719867740E-003
  5.302495146578492E-003  2.651247573289244E-003  0.000000000000000E+000
  2.651247573289247E-002  2.386122815960322E-002  2.120998058631397E-002
  1.855873301302472E-002  1.590748543973548E-002  1.325623786644623E-002
  1.060499029315698E-002  7.953742719867740E-003  5.302495146578492E-003
  2.651247573289244E-003  0.000000000000000E+000  2.651247573289247E-002
  2.386122815960322E-002  2.120998058631397E-002  1.855873301302472E-002
  1.590748543973548E-002  1.325623786644623E-002  1.060499029315698E-002
  7.953742719867740E-003  5.302495146578492E-003  2.651247573289244E-003
  0.000000000000000E+000  2.651247573289247E-002  2.386122815960322E-002
  2.120998058631397E-002  1.855873301302472E-002  1.590748543973548E-002
  1.325623786644623E-002  1.060499029315698E-002  7.953742719867740E-003
  5.302495146578492E-003  2.651247573289244E-003  0.000000000000000E+000
  2.651247573289247E-002  2.386122815960322E-002  2.120998058631397E-002
  1.855873301302472E-002  1.590748543973548E-002  1.325623786644623E-002
  1.060499029315698E-002  7.953742719867740E-003  5.302495146578492E-003
  2.651247573289244E-003  0.000000000000000E+000  2.651247573289247E-002
  2.386122815960322E-002  2.120998058631397E-002  1.855873301302472E-002
  1.590748543973548E-002  1.325623786644623E-002  1.060499029315698E-002
  7.953742719867740E-003  5.302495146578492E-003  2.651247573289244E-003
  0.000000000000000E+000  2.651247573289247E-002  2.386122815960322E-002
  2.120998058631397E-002  1.855873301302472E-002  1.590748543973548E-002
  1.325623786644623E-002  1.060499029315698E-002  7.953742719867740E-003
  5.302495146578492E-003  2.651247573289244E-003  0.000000000000000E+000
  2.651247573289247E-002  2.386122815960322E-002  2.120998058631397E-002
  1.855873301302472E-002  1.590748543973548E-002  1.325623786644623E-002
  1.060499029315698E-002  7.953742719867740E-003  5.302495146578492E-003
  2.651247573289244E-003  0.000000000000000E+000  2.651247573289247E-002
  2.386122815960322E-002  2.120998058631397E-002  1.855873301302472E-002
  1.590748543973548E-002  1.325623786644623E-002  1.060499029315698E-002
  7.953742719867740E-003  5.302495146578492E-003  2.651247573289244E-003
  0.000000000000000E+000  2.651247573289247E-002  2.386122815960322E-002
  2.120998058631397E-002  1.855873301302472E-002  1.590748543973548E-002
  1.325623786644623E-002  1.060499029315698E-002  7.953742719867740E-003
  5.302495146578492E-003  2.651247573289244E-003  0.000000000000000E+000
  2.651247573289247E-002  2.386122815960322E-002  2.120998058631397E-002
  1.855873301302472E-002  1.590748543973548E-002  1.325623786644623E-002
  1.060499029315698E-002  7.953742719867740E-003  5.302495146578492E-003
  2.651247573289244E-003  0.000000000000000E+000  2.651247573289247E-002
  2.386122815960322E-002  2.120998058631397E-002  1.855873301302472E-002
  1.590748543973548E-002  1.325623786644623E-002  1.060499029315698E-002
  7.953742719867740E-003  5.302495146578492E-003  2.651247573289244E-003
  0.000000000000000E+000  2.651247573289247E-002  2.386122815960322E-002
  2.120998058631397E-002  1.855873301302472E-002  1.590748543973548E-002
  1.325623786644623E-002  1.060499029315698E-002  7.953742719867740E-003
  5.302495146578492E-003  2.651247573289244E-003  0.000000000000000E+000
  2.651247573289247E-002  2.386122815960322E-002  2.120998058631397E-002
  1.855873301302472E-002  1.590748543973548E-002  1.325623786644623E-002
  1.060499029315698E-002  7.953742719867740E-003  5.302495146578492E-003
  2.651247573289244E-003  0.000000000000000E+000  2.651247573289247E-002
  2.386122815960322E-002  2.120998058631397E-002  1.855873301302472E-002
  1.590748543973548E-002  1.325623786644623E-002  1.060499029315698E-002
  7.953742719867740E-003  5.302495146578492E-003  2.651247573289244E-003
  0.000000000000000E+000  2.651247573289247E-002  2.386122815960322E-002
  2.120998058631397E-002  1.855873301302472E-002  1.590748543973548E-002
  1.325623786644623E-002  1.060499029315698E-002  7.953742719867740E-003
  5.302495146578492E-003  2.651247573289244E-003  0.000000000000000E+000
  2.651247573289247E-002  2.386122815960322E-002  2.120998058631397E-002
  1.855873301302472E-002  1.590748543973548E-002  1.325623786644623E-002
  1.060499029315698E-002  7.953742719867740E-003  5.302495146578492E-003
  2.651247573289244E-003  0.000000000000000E+000  2.651247573289247E-002
  2.386122815960322E-002  2.120998058631397E-002  1.855873301302472E-002
  1.590748543973548E-002  1.325623786644623E-002  1.060499029315698E-002
  7.953742719867740E-003  5.302495146578492E-003  2.651247573289244E-003
  0.000000000000000E+000  2.651247573289247E-002  2.386122815960322E-002
  2.120998058631397E-002  1.855873301302472E-002  1.590748543973548E-002
  1.325623786644623E-002  1.060499029315698E-002  7.953742719867740E-003
  5.302495146578492E-003  2.651247573289244E-003  0.000000000000000E+000
  2.651247573289247E-002  2.386122815960322E-002  2.120998058631397E-002
  1.855873301302472E-002  1.590748543973548E-002  1.325623786644623E-002
  1.060499029315698E-002  7.953742719867740E-003  5.302495146578492E-003
  2.651247573289244E-003  0.000000000000000E+000  2.651247573289247E-002
  2.386122815960322E-002  2.120998058631397E-002  1.855873301302472E-002
  1.590748543973548E-002  1.325623786644623E-002  1.060499029315698E-002
  7.953742719867740E-003  5.302495146578492E-003  2.651247573289244E-003
  0.000000000000000E+000  2.651247573289247E-002  2.386122815960322E-002
  2.120998058631397E-002  1.855873301302472E-002  1.590748543973548E-002
  1.325623786644623E-002  1.060499029315698E-002  7.953742719867740E-003
  5.302495146578492E-003  2.651247573289244E-003  0.000000000000000E+000
  2.651247573289247E-002  2.386122815960322E-002  2.120998058631397E-002
  1.855873301302472E-002  1.590748543973548E-002  1.325623786644623E-002
  1.060499029315698E-002  7.953742719867740E-003  5.302495146578492E-003
  2.651247573289244E-003  0.000000000000000E+000  2.651247573289247E-002
  2.386122815960322E-002  2.120998058631397E-002  1.855873301302472E-002
  1.590748543973548E-002  1.325623786644623E-002  1.060499029315698E-002
  7.953742719867740E-003  5.302495146578492E-003  2.651247573289244E-003
  0.000000000000000E+000
  0.108347820827761       0.156668352410894       0.195090141134601     
  0.228530727676388       0.258052734866555       0.283847458780621     
  0.305827682557165       0.323672341101789       0.337426423238458     
  0.347127536932045       0.177630114798845       0.260998442151572     
  0.326519221202684       0.383295283130115       0.433348749822382     
  0.477058923767896       0.514299769647539       0.544594068566539     
  0.568294174899735       0.586368016041796       0.229373735275105     
  0.345956906191701       0.437128042979148       0.515637695142009     
  0.584682627619295       0.644941205722712       0.696329942200216     
  0.738119286297957       0.770807150849119       0.794082420622322     
  0.259554206018041       0.398634414673835       0.508635387391592     
  0.603303817851189       0.686361997253903       0.758556825991312     
  0.819682788845970       0.869403331562100       0.907603429355406     
  0.932978854936799       0.274533837438480       0.424972352812299     
  0.545021229317536       0.648527906152306       0.739316730561628     
  0.818148783986150       0.884714320328544       0.938906659102042     
  0.980156233861251        1.00613948750961       0.285047450583638     
  0.440575756044362       0.564043873953524       0.669982712639526     
  0.762693682043748       0.843379171500431       0.911989479862577     
  0.967931534095504        1.01012100588466        1.03617201590200     
  0.302276784044670       0.463652760301612       0.589667754037845     
  0.696428113018361       0.789050597770402       0.869348459475056     
  0.937708160928134       0.993744294864938        1.03641916432108     
   1.06321216091222       0.334311111005681       0.507605402847678     
  0.639927101049245       0.750088917256264       0.844399061739838     
  0.925416148900243       0.994086567345078        1.05038955993482     
   1.09342715393305        1.12068728573657       0.384097791834225     
  0.577689395033263       0.722163494024730       0.840200458999830     
  0.939724836421116        1.02419943509434        1.09515686298541     
   1.15302678888340        1.19726141280443        1.22547881223580     
  0.449880014955074       0.671614445855479       0.833925401307132     
  0.964358546969463        1.07281283393206        1.16384527200067     
   1.23969565950848        1.30127556596182        1.34832964067800     
   1.37849689866178       0.528700383983327       0.785128366753484     
  0.970144975808103        1.11695371433544        1.23770409102452     
   1.33814512530704        1.42124780025525        1.48839682938813     
   1.53958810626848        1.57243864312996       0.618478487025076     
  0.915060000377561        1.12680915278049        1.29323324413548     
   1.42896109646876        1.54103261865848        1.63318360562253     
   1.70726580300121        1.76353064460302        1.79957116011724     
  0.718167308088475        1.05963105806068        1.30146263689518     
   1.49009477928087        1.64285549345967        1.76818029123026     
   1.87063250502494        1.95257358744323        2.01453294526404     
   2.05409019852527       0.827917065748020        1.21872761751371     
   1.49356486241313        1.70648260766917        1.87778416656816     
   2.01745423120393        2.13097744029441        2.22128976951573     
   2.28925053926172        2.33246988907027       0.949151825699534     
   1.39390351793097        1.70438408131704        1.94317691557502     
   2.13394663499843        2.28845031440593        2.41324846962259     
   2.51196209515647        2.58586671008490        2.63267853998353     
   1.08457189448437        1.58812012302500        1.93642645693932     
   2.20191302987698        2.41219199076250        2.58112974976602     
   2.71658927030003        2.82304563677792        2.90231697415001     
   2.95234552940622        1.23568485695166        1.80198456399872     
   2.18879405708733        2.48015796123606        2.70843110373205     
   2.89002594616758        3.03436532706937        3.14695316873218     
   3.23029831425832        3.28272986744915        1.39081371820671     
   2.01784811533271        2.43948363402581        2.75249429516140     
   2.99449112757855        3.18471280015028        3.33430316787172     
   3.44989682744780        3.53480094230258        3.58795988091565     
   1.51482240542163        2.18616852318765        2.62998221296000     
   2.95409107104382        3.20079587933160        3.39190498061532     
   3.54014651289353        3.65320960972039        3.73520009300656     
   3.78593264818485        1.57479524177424        2.25894278879212     
   2.70222892990102        3.01978768587181        3.25721100865793     
   3.43807746936642        3.57611885198300        3.67963206689474     
   3.75323299392338        3.79768872762847        1.55718281526144     
   2.21410311914343        2.62817526838542        2.91787399573078     
   3.13026583538254        3.28937383583970        3.40886332011517     
   3.49677435944457        3.55755504200831        3.59260284988538     
   1.45686955633943        2.04183797526134        2.39661773121781     
   2.63850108318168        2.81287818615884        2.94195085686111     
   3.03782123349187        3.10730372154610        3.15394982046935     
   3.17895554162438        1.26688973721324        1.73342991181800     
   2.00462101114731        2.18638837313167        2.31652034632780     
   2.41253274890014        2.48370142873199        2.53519318613752     
   2.56982148989226        2.58886120664704       0.973784202742795     
   1.28893225491568        1.46922177358837        1.59018338099571     
   1.67702250142544        1.74126630493655        1.78905638693161     
   1.82394794849907        1.84836365946490        1.86590328223516     
  0.593297775206924       0.769679922675908       0.871477063088261     
  0.940134905315577       0.989584256175749        1.02624528062829     
   1.05355632587633        1.07349086491041        1.08720202342811     
   1.09520465061042     
  0.000000000000000E+000  0.000000000000000E+000  0.000000000000000E+000
  0.000000000000000E+000  0.000000000000000E+000  0.000000000000000E+000
  0.000000000000000E+000  0.000000000000000E+000  0.000000000000000E+000
  0.000000000000000E+000  0.000000000000000E+000  0.000000000000000E+000
  0.000000000000000E+000  0.000000000000000E+000  0.000000000000000E+000
  0.000000000000000E+000  0.000000000000000E+000  0.000000000000000E+000
  0.000000000000000E+000  0.000000000000000E+000  0.000000000000000E+000
  0.000000000000000E+000  0.000000000000000E+000  0.000000000000000E+000
  0.000000000000000E+000  0.000000000000000E+000  0.000000000000000E+000
  0.000000000000000E+000  0.000000000000000E+000  0.000000000000000E+000
  0.000000000000000E+000  0.000000000000000E+000  0.000000000000000E+000
  0.000000000000000E+000  0.000000000000000E+000  0.000000000000000E+000
  0.000000000000000E+000  0.000000000000000E+000  0.000000000000000E+000
  0.000000000000000E+000  0.000000000000000E+000  0.000000000000000E+000
  0.000000000000000E+000  0.000000000000000E+000  0.000000000000000E+000
  0.000000000000000E+000  0.000000000000000E+000  0.000000000000000E+000
  0.000000000000000E+000  0.000000000000000E+000  0.000000000000000E+000
  0.000000000000000E+000  0.000000000000000E+000  0.000000000000000E+000
  0.000000000000000E+000  0.000000000000000E+000  0.000000000000000E+000
  0.000000000000000E+000  0.000000000000000E+000  0.000000000000000E+000
  0.000000000000000E+000  0.000000000000000E+000  0.000000000000000E+000
  0.000000000000000E+000  0.000000000000000E+000  0.000000000000000E+000
  0.000000000000000E+000  0.000000000000000E+000  0.000000000000000E+000
  0.000000000000000E+000  0.000000000000000E+000  0.000000000000000E+000
  0.000000000000000E+000  0.000000000000000E+000  0.000000000000000E+000
  0.000000000000000E+000  0.000000000000000E+000  0.000000000000000E+000
  0.000000000000000E+000  0.000000000000000E+000  0.000000000000000E+000
  0.000000000000000E+000  0.000000000000000E+000  0.000000000000000E+000
  0.000000000000000E+000  0.000000000000000E+000  0.000000000000000E+000
  0.000000000000000E+000  0.000000000000000E+000  0.000000000000000E+000
  0.000000000000000E+000  0.000000000000000E+000  0.000000000000000E+000
  0.000000000000000E+000  0.000000000000000E+000  0.000000000000000E+000
  0.000000000000000E+000  0.000000000000000E+000  0.000000000000000E+000
  0.000000000000000E+000  0.000000000000000E+000  0.000000000000000E+000
  0.000000000000000E+000  0.000000000000000E+000  0.000000000000000E+000
  0.000000000000000E+000  0.000000000000000E+000  0.000000000000000E+000
  0.000000000000000E+000  0.000000000000000E+000  0.000000000000000E+000
  0.000000000000000E+000  0.000000000000000E+000  0.000000000000000E+000
  0.000000000000000E+000  0.000000000000000E+000  0.000000000000000E+000