 Title = "Wing and Wake"
 VARIABLES = "X" "Y" "Z" "GAM" "skew"
 Zone I=   11 J=   26 K=1  T="Blade"
 DATAPACKING=BLOCK
 VARLOCATION=([4]=CELLCENTERED,[5]=CELLCENTERED)
 -2.541005814751050E-002 -3.749758327937380E-002 -4.958510841123715E-002
 -6.167263354310067E-002 -7.376015867496390E-002 -8.584768380682713E-002
 -9.793520893869037E-002 -0.110022734070554      -0.122110259202417     
 -0.134197784334280      -0.146285309466144      -2.829312457999998E-002
 -4.038064971186306E-002 -5.246817484372645E-002 -6.455569997558970E-002
 -7.664322510745322E-002 -8.873075023931644E-002 -0.100818275371180     
 -0.112905800503043      -0.124993325634906      -0.137080850766770     
 -0.149168375898633      -3.689685619756605E-002 -4.898438132942948E-002
 -6.107190646129281E-002 -7.315943159315622E-002 -8.524695672501950E-002
 -9.733448185688295E-002 -0.109422006988746      -0.121509532120610     
 -0.133597057252473      -0.145684582384336      -0.157772107516199     
 -5.108556701298146E-002 -6.317309214484466E-002 -7.526061727670837E-002
 -8.734814240857124E-002 -9.943566754043469E-002 -0.111523192672298     
 -0.123610717804161      -0.135698242936024      -0.147785768067888     
 -0.159873293199751      -0.171960818331614      -7.063549258076068E-002
 -8.272301771262383E-002 -9.481054284448723E-002 -0.106898067976350     
 -0.118985593108214      -0.131073118240077      -0.143160643371940     
 -0.155248168503804      -0.167335693635667      -0.179423218767531     
 -0.191510743899394      -9.523831889614033E-002 -0.107325844028004     
 -0.119413369159867      -0.131500894291731      -0.143588419423594     
 -0.155675944555457      -0.167763469687320      -0.179850994819184     
 -0.191938519951047      -0.204026045082910      -0.216113570214774     
 -0.124506044691112      -0.136593569822975      -0.148681094954838     
 -0.160768620086702      -0.172856145218565      -0.184943670350428     
 -0.197031195482291      -0.209118720614155      -0.221206245746019     
 -0.233293770877882      -0.245381296009745      -0.157977100446196     
 -0.170064625578059      -0.182152150709923      -0.194239675841786     
 -0.206327200973649      -0.218414726105513      -0.230502251237376     
 -0.242589776369240      -0.254677301501102      -0.266764826632966     
 -0.278852351764830      -0.195123627617496      -0.207211152749359     
 -0.219298677881222      -0.231386203013085      -0.243473728144949     
 -0.255561253276812      -0.267648778408675      -0.279736303540539     
 -0.291823828672402      -0.303911353804266      -0.315998878936129     
 -0.235359803281260      -0.247447328413123      -0.259534853544986     
 -0.271622378676849      -0.283709903808713      -0.295797428940576     
 -0.307884954072439      -0.319972479204303      -0.332060004336166     
 -0.344147529468029      -0.356235054599892      -0.278051078911344     
 -0.290138604043208      -0.302226129175071      -0.314313654306934     
 -0.326401179438798      -0.338488704570660      -0.350576229702524     
 -0.362663754834387      -0.374751279966251      -0.386838805098114     
 -0.398926330229977      -0.322524187588531      -0.334611712720394     
 -0.346699237852258      -0.358786762984120      -0.370874288115984     
 -0.382961813247848      -0.395049338379711      -0.407136863511574     
 -0.419224388643437      -0.431311913775301      -0.443399438907164     
 -0.368077761822033      -0.380165286953896      -0.392252812085760     
 -0.404340337217623      -0.416427862349486      -0.428515387481349     
 -0.440602912613213      -0.452690437745076      -0.464777962876939     
 -0.476865488008802      -0.488953013140667      -0.413993394533802     
 -0.426080919665666      -0.438168444797529      -0.450255969929392     
 -0.462343495061256      -0.474431020193119      -0.486518545324982     
 -0.498606070456844      -0.510693595588709      -0.522781120720572     
 -0.534868645852436      -0.459546968767304      -0.471634493899168     
 -0.483722019031031      -0.495809544162895      -0.507897069294757     
 -0.519984594426620      -0.532072119558484      -0.544159644690347     
 -0.556247169822211      -0.568334694954075      -0.580422220085938     
 -0.504020077444490      -0.516107602576354      -0.528195127708217     
 -0.540282652840081      -0.552370177971944      -0.564457703103807     
 -0.576545228235671      -0.588632753367535      -0.600720278499396     
 -0.612807803631261      -0.624895328763125      -0.546711353074576     
 -0.558798878206438      -0.570886403338302      -0.582973928470166     
 -0.595061453602029      -0.607148978733891      -0.619236503865755     
 -0.631324028997619      -0.643411554129482      -0.655499079261346     
 -0.667586604393209      -0.586947528738339      -0.599035053870203     
 -0.611122579002065      -0.623210104133930      -0.635297629265793     
 -0.647385154397656      -0.659472679529520      -0.671560204661383     
 -0.683647729793246      -0.695735254925109      -0.707822780056972     
 -0.624094055909640      -0.636181581041502      -0.648269106173366     
 -0.660356631305229      -0.672444156437092      -0.684531681568955     
 -0.696619206700819      -0.708706731832683      -0.720794256964546     
 -0.732881782096409      -0.744969307228272      -0.657565111664723     
 -0.669652636796586      -0.681740161928449      -0.693827687060312     
 -0.705915212192176      -0.718002737324039      -0.730090262455903     
 -0.742177787587766      -0.754265312719630      -0.766352837851492     
 -0.778440362983356      -0.686832837459693      -0.698920362591558     
 -0.711007887723420      -0.723095412855285      -0.735182937987149     
 -0.747270463119011      -0.759357988250875      -0.771445513382738     
 -0.783533038514601      -0.795620563646465      -0.807708088778327     
 -0.711435663775075      -0.723523188906939      -0.735610714038802     
 -0.747698239170665      -0.759785764302527      -0.771873289434391     
 -0.783960814566254      -0.796048339698118      -0.808135864829980     
 -0.820223389961844      -0.832310915093709      -0.730985589342854     
 -0.743073114474717      -0.755160639606582      -0.767248164738442     
 -0.779335689870307      -0.791423215002169      -0.803510740134032     
 -0.815598265265896      -0.827685790397760      -0.839773315529625     
 -0.851860840661487      -0.745174300158269      -0.757261825290131     
 -0.769349350421996      -0.781436875553858      -0.793524400685721     
 -0.805611925817585      -0.817699450949449      -0.829786976081312     
 -0.841874501213176      -0.853962026345038      -0.866049551476901     
 -0.753778031775836      -0.765865556907698      -0.777953082039561     
 -0.790040607171426      -0.802128132303290      -0.814215657435151     
 -0.826303182567015      -0.838390707698876      -0.850478232830742     
 -0.862565757962605      -0.874653283094468      -0.756661098208325     
 -0.768748623340187      -0.780836148472052      -0.792923673603914     
 -0.805011198735777      -0.817098723867640      -0.829186248999504     
 -0.841273774131368      -0.853361299263230      -0.865448824395096     
 -0.877536349526958     
 -0.266920278598428      -0.252437008163485      -0.237953737728542     
 -0.223470467293599      -0.208987196858655      -0.194503926423712     
 -0.180020655988769      -0.165537385553826      -0.151054115118883     
 -0.136570844683940      -0.122087574248997      -0.269326443567596     
 -0.254843173132653      -0.240359902697709      -0.225876632262766     
 -0.211393361827823      -0.196910091392880      -0.182426820957937     
 -0.167943550522994      -0.153460280088051      -0.138977009653108     
 -0.124493739218164      -0.276506991816162      -0.262023721381219     
 -0.247540450946276      -0.233057180511333      -0.218573910076389     
 -0.204090639641446      -0.189607369206503      -0.175124098771560     
 -0.160640828336617      -0.146157557901674      -0.131674287466731     
 -0.288348681808796      -0.273865411373852      -0.259382140938909     
 -0.244898870503966      -0.230415600069023      -0.215932329634080     
 -0.201449059199137      -0.186965788764194      -0.172482518329250     
 -0.157999247894307      -0.143515977459364      -0.304664763020430     
 -0.290181492585486      -0.275698222150543      -0.261214951715600     
 -0.246731681280657      -0.232248410845714      -0.217765140410770     
 -0.203281869975827      -0.188798599540884      -0.174315329105941     
 -0.159832058670998      -0.325197921103602      -0.310714650668659     
 -0.296231380233715      -0.281748109798773      -0.267264839363829     
 -0.252781568928886      -0.238298298493943      -0.223815028059000     
 -0.209331757624057      -0.194848487189113      -0.180365216754170     
 -0.349624335889427      -0.335141065454484      -0.320657795019541     
 -0.306174524584598      -0.291691254149655      -0.277207983714712     
 -0.262724713279768      -0.248241442844825      -0.233758172409882     
 -0.219274901974939      -0.204791631539996      -0.377558788225100     
 -0.363075517790157      -0.348592247355213      -0.334108976920270     
 -0.319625706485327      -0.305142436050384      -0.290659165615440     
 -0.276175895180498      -0.261692624745554      -0.247209354310612     
 -0.232726083875669      -0.408560735110054      -0.394077464675111     
 -0.379594194240168      -0.365110923805225      -0.350627653370281     
 -0.336144382935338      -0.321661112500395      -0.307177842065451     
 -0.292694571630509      -0.278211301195566      -0.263728030760623     
 -0.442141257322247      -0.427657986887304      -0.413174716452361     
 -0.398691446017417      -0.384208175582475      -0.369724905147531     
 -0.355241634712588      -0.340758364277645      -0.326275093842702     
 -0.311791823407759      -0.297308552972816      -0.477770769966363     
 -0.463287499531420      -0.448804229096477      -0.434320958661533     
 -0.419837688226590      -0.405354417791647      -0.390871147356704     
 -0.376387876921761      -0.361904606486818      -0.347421336051875     
 -0.332938065616931      -0.514887374343964      -0.500404103909019     
 -0.485920833474077      -0.471437563039134      -0.456954292604190     
 -0.442471022169248      -0.427987751734304      -0.413504481299362     
 -0.399021210864418      -0.384537940429475      -0.370054669994532     
 -0.552905719431629      -0.538422448996686      -0.523939178561742     
 -0.509455908126801      -0.494972637691856      -0.480489367256914     
 -0.466006096821970      -0.451522826387027      -0.437039555952084     
 -0.422556285517142      -0.408073015082198      -0.591226233216270     
 -0.576742962781327      -0.562259692346384      -0.547776421911440     
 -0.533293151476497      -0.518809881041554      -0.504326610606611     
 -0.489843340171668      -0.475360069736725      -0.460876799301781     
 -0.446393528866839      -0.629244578303936      -0.614761307868993     
 -0.600278037434050      -0.585794766999107      -0.571311496564164     
 -0.556828226129220      -0.542344955694277      -0.527861685259334     
 -0.513378414824391      -0.498895144389449      -0.484411873954505     
 -0.666361182681535      -0.651877912246593      -0.637394641811650     
 -0.622911371376707      -0.608428100941764      -0.593944830506821     
 -0.579461560071878      -0.564978289636934      -0.550495019201991     
 -0.536011748767049      -0.521528478332105      -0.701990695325652     
 -0.687507424890709      -0.673024154455766      -0.658540884020823     
 -0.644057613585879      -0.629574343150936      -0.615091072715993     
 -0.600607802281050      -0.586124531846106      -0.571641261411164     
 -0.557157990976221      -0.735571217537845      -0.721087947102902     
 -0.706604676667958      -0.692121406233017      -0.677638135798073     
 -0.663154865363130      -0.648671594928186      -0.634188324493243     
 -0.619705054058300      -0.605221783623356      -0.590738513188414     
 -0.766573164422799      -0.752089893987856      -0.737606623552912     
 -0.723123353117969      -0.708640082683027      -0.694156812248083     
 -0.679673541813140      -0.665190271378197      -0.650707000943254     
 -0.636223730508311      -0.621740460073368      -0.794507616758472     
 -0.780024346323528      -0.765541075888586      -0.751057805453642     
 -0.736574535018699      -0.722091264583756      -0.707607994148813     
 -0.693124723713870      -0.678641453278928      -0.664158182843985     
 -0.649674912409040      -0.818934031544296      -0.804450761109354     
 -0.789967490674411      -0.775484220239468      -0.761000949804525     
 -0.746517679369581      -0.732034408934639      -0.717551138499696     
 -0.703067868064753      -0.688584597629809      -0.674101327194865     
 -0.839467189627469      -0.824983919192528      -0.810500648757583     
 -0.796017378322641      -0.781534107887697      -0.767050837452753     
 -0.752567567017811      -0.738084296582868      -0.723601026147924     
 -0.709117755712981      -0.694634485278038      -0.855783270839105     
 -0.841300000404160      -0.826816729969218      -0.812333459534273     
 -0.797850189099331      -0.783366918664387      -0.768883648229443     
 -0.754400377794501      -0.739917107359558      -0.725433836924616     
 -0.710950566489671      -0.867624960831737      -0.853141690396794     
 -0.838658419961851      -0.824175149526907      -0.809691879091964     
 -0.795208608657020      -0.780725338222078      -0.766242067787136     
 -0.751758797352192      -0.737275526917248      -0.722792256482305     
 -0.874805509080303      -0.860322238645360      -0.845838968210417     
 -0.831355697775474      -0.816872427340531      -0.802389156905588     
 -0.787905886470644      -0.773422616035700      -0.758939345600758     
 -0.744456075165814      -0.729972804730871      -0.877211674049471     
 -0.862728403614529      -0.848245133179584      -0.833761862744642     
 -0.819278592309698      -0.804795321874755      -0.790312051439812     
 -0.775828781004868      -0.761345510569926      -0.746862240134982     
 -0.732378969700040     
  2.651247573289247E-002  2.386122815960322E-002  2.120998058631397E-002
  1.855873301302472E-002  1.590748543973548E-002  1.325623786644623E-002
  1.060499029315698E-002  7.953742719867740E-003  5.302495146578492E-003
  2.651247573289244E-003  0.000000000000000E+000  2.651247573289247E-002
  2.386122815960322E-002  2.120998058631397E-002  1.855873301302472E-002
  1.590748543973548E-002  1.325623786644623E-002  1.060499029315698E-002
  7.953742719867740E-003  5.302495146578492E-003  2.651247573289244E-003
  0.000000000000000E+000  2.651247573289247E-002  2.386122815960322E-002
  2.120998058631397E-002  1.855873301302472E-002  1.590748543973548E-002
  1.325623786644623E-002  1.060499029315698E-002  7.953742719867740E-003
  5.302495146578492E-003  2.651247573289244E-003  0.000000000000000E+000
  2.651247573289247E-002  2.386122815960322E-002  2.120998058631397E-002
  1.855873301302472E-002  1.590748543973548E-002  1.325623786644623E-002
  1.060499029315698E-002  7.953742719867740E-003  5.302495146578492E-003
  2.651247573289244E-003  0.000000000000000E+000  2.651247573289247E-002
  2.386122815960322E-002  2.120998058631397E-002  1.855873301302472E-002
  1.590748543973548E-002  1.325623786644623E-002  1.060499029315698E-002
  7.953742719867740E-003  5.302495146578492E-003  2.651247573289244E-003
  0.000000000000000E+000  2.651247573289247E-002  2.386122815960322E-002
  2.120998058631397E-002  1.855873301302472E-002  1.590748543973548E-002
  1.325623786644623E-002  1.060499029315698E-002  7.953742719867740E-003
  5.302495146578492E-003  2.651247573289244E-003  0.000000000000000E+000
  2.651247573289247E-002  2.386122815960322E-002  2.120998058631397E-002
  1.855873301302472E-002  1.590748543973548E-002  1.325623786644623E-002
  1.060499029315698E-002  7.953742719867740E-003  5.302495146578492E-003
  2.651247573289244E-003  0.000000000000000E+000  2.651247573289247E-002
  2.386122815960322E-002  2.120998058631397E-002  1.855873301302472E-002
  1.590748543973548E-002  1.325623786644623E-002  1.060499029315698E-002
  7.953742719867740E-003  5.302495146578492E-003  2.651247573289244E-003
  0.000000000000000E+000  2.651247573289247E-002  2.386122815960322E-002
  2.120998058631397E-002  1.855873301302472E-002  1.590748543973548E-002
  1.325623786644623E-002  1.060499029315698E-002  7.953742719867740E-003
  5.302495146578492E-003  2.651247573289244E-003  0.000000000000000E+000
  2.651247573289247E-002  2.386122815960322E-002  2.120998058631397E-002
  1.855873301302472E-002  1.590748543973548E-002  1.325623786644623E-002
  1.060499029315698E-002  7.953742719867740E-003  5.302495146578492E-003
  2.651247573289244E-003  0.000000000000000E+000  2.651247573289247E-002
  2.386122815960322E-002  2.120998058631397E-002  1.855873301302472E-002
  1.590748543973548E-002  1.325623786644623E-002  1.060499029315698E-002
  7.953742719867740E-003  5.302495146578492E-003  2.651247573289244E-003
  0.000000000000000E+000  2.651247573289247E-002  2.386122815960322E-002
  2.120998058631397E-002  1.855873301302472E-002  1.590748543973548E-002
  1.325623786644623E-002  1.060499029315698E-002  7.953742719867740E-003
  5.302495146578492E-003  2.651247573289244E-003  0.000000000000000E+000
  2.651247573289247E-002  2.386122815960322E-002  2.120998058631397E-002
  1.855873301302472E-002  1.590748543973548E-002  1.325623786644623E-002
  1.060499029315698E-002  7.953742719867740E-003  5.302495146578492E-003
  2.651247573289244E-003  0.000000000000000E+000  2.651247573289247E-002
  2.386122815960322E-002  2.120998058631397E-002  1.855873301302472E-002
  1.590748543973548E-002  1.325623786644623E-002  1.060499029315698E-002
  7.953742719867740E-003  5.302495146578492E-003  2.651247573289244E-003
  0.000000000000000E+000  2.651247573289247E-002  2.386122815960322E-002
  2.120998058631397E-002  1.855873301302472E-002  1.590748543973548E-002
  1.325623786644623E-002  1.060499029315698E-002  7.953742719867740E-003
  5.302495146578492E-003  2.651247573289244E-003  0.000000000000000E+000
  2.651247573289247E-002  2.386122815960322E-002  2.120998058631397E-002
  1.855873301302472E-002  1.590748543973548E-002  1.325623786644623E-002
  1.060499029315698E-002  7.953742719867740E-003  5.302495146578492E-003
  2.651247573289244E-003  0.000000000000000E+000  2.651247573289247E-002
  2.386122815960322E-002  2.120998058631397E-002  1.855873301302472E-002
  1.590748543973548E-002  1.325623786644623E-002  1.060499029315698E-002
  7.953742719867740E-003  5.302495146578492E-003  2.651247573289244E-003
  0.000000000000000E+000  2.651247573289247E-002  2.386122815960322E-002
  2.120998058631397E-002  1.855873301302472E-002  1.590748543973548E-002
  1.325623786644623E-002  1.060499029315698E-002  7.953742719867740E-003
  5.302495146578492E-003  2.651247573289244E-003  0.000000000000000E+000
  2.651247573289247E-002  2.386122815960322E-002  2.120998058631397E-002
  1.855873301302472E-002  1.590748543973548E-002  1.325623786644623E-002
  1.060499029315698E-002  7.953742719867740E-003  5.302495146578492E-003
  2.651247573289244E-003  0.000000000000000E+000  2.651247573289247E-002
  2.386122815960322E-002  2.120998058631397E-002  1.855873301302472E-002
  1.590748543973548E-002  1.325623786644623E-002  1.060499029315698E-002
  7.953742719867740E-003  5.302495146578492E-003  2.651247573289244E-003
  0.000000000000000E+000  2.651247573289247E-002  2.386122815960322E-002
  2.120998058631397E-002  1.855873301302472E-002  1.590748543973548E-002
  1.325623786644623E-002  1.060499029315698E-002  7.953742719867740E-003
  5.302495146578492E-003  2.651247573289244E-003  0.000000000000000E+000
  2.651247573289247E-002  2.386122815960322E-002  2.120998058631397E-002
  1.855873301302472E-002  1.590748543973548E-002  1.325623786644623E-002
  1.060499029315698E-002  7.953742719867740E-003  5.302495146578492E-003
  2.651247573289244E-003  0.000000000000000E+000  2.651247573289247E-002
  2.386122815960322E-002  2.120998058631397E-002  1.855873301302472E-002
  1.590748543973548E-002  1.325623786644623E-002  1.060499029315698E-002
  7.953742719867740E-003  5.302495146578492E-003  2.651247573289244E-003
  0.000000000000000E+000  2.651247573289247E-002  2.386122815960322E-002
  2.120998058631397E-002  1.855873301302472E-002  1.590748543973548E-002
  1.325623786644623E-002  1.060499029315698E-002  7.953742719867740E-003
  5.302495146578492E-003  2.651247573289244E-003  0.000000000000000E+000
  2.651247573289247E-002  2.386122815960322E-002  2.120998058631397E-002
  1.855873301302472E-002  1.590748543973548E-002  1.325623786644623E-002
  1.060499029315698E-002  7.953742719867740E-003  5.302495146578492E-003
  2.651247573289244E-003  0.000000000000000E+000  2.651247573289247E-002
  2.386122815960322E-002  2.120998058631397E-002  1.855873301302472E-002
  1.590748543973548E-002  1.325623786644623E-002  1.060499029315698E-002
  7.953742719867740E-003  5.302495146578492E-003  2.651247573289244E-003
  0.000000000000000E+000
  8.813946463651838E-002  0.136649955293499       0.176427987151810     
  0.210101501896271       0.237476361182297       0.259322109248663     
  0.276261896610547       0.289063124402199       0.297502367155391     
  0.301714390440355       0.147064397372668       0.228852345991415     
  0.294716088315836       0.349991927324630       0.394935585901484     
  0.430865988807800       0.458699122516228       0.479501369496449     
  0.493207785518616       0.501005452840236       0.195224283529939     
  0.304988636915490       0.391129649239865       0.462034589695231     
  0.519397212847097       0.565021847514102       0.599860947382998     
  0.624839246625023       0.640136924521414       0.646661849201743     
  0.221285790376436       0.345653677607341       0.441985635494136     
  0.520137738254317       0.582988069080620       0.631815301201601     
  0.667419069891892       0.690562384398061       0.702227084597405     
  0.703165976770836       0.224694544791175       0.350690616392232     
  0.448450979902229       0.527423134367324       0.590162382011627     
  0.638045625398672       0.672060519472335       0.693191826372110     
  0.702312818169781       0.699764664319952       0.224896869833168     
  0.348204922623313       0.443428479879079       0.520502850399858     
  0.582284192923878       0.630065848828018       0.664873127187129     
  0.687634865411699       0.699276618437647       0.700193555693714     
  0.244042384461683       0.371702170752765       0.467915138806496     
  0.545520362579526       0.609010454366923       0.660185608112636     
  0.699927954075688       0.728961618601555       0.747907117076764     
  0.756603874873692       0.288910089825952       0.433368867441869     
  0.539307263502777       0.623854882596884       0.693515097248692     
  0.751188130231251       0.798207743573201       0.835289275144663     
  0.862642717405668       0.879181181367114       0.352199325747278     
  0.524276589777886       0.648794094760586       0.747677413447667     
  0.829059986616581       0.896826147159165       0.952975353926520     
  0.998452130618848        1.03329757505103        1.05588203852268     
  0.429876623849260       0.637603571442679       0.786829187543917     
  0.904766319500060        1.00150110072855        1.08188383517845     
   1.14847280978698        1.20252159316735        1.24412298214035     
   1.27133933925311       0.519229384671636       0.768164687344197     
  0.945845172548728        1.08549768895596        1.19946215667070     
   1.29370179543116        1.37140636091694        1.43417352984725     
   1.48221099448762        1.51337721432386       0.617357586451304     
  0.911346342653986        1.11989851349726        1.28287951439836     
   1.41515324663301        1.52394539178248        1.61315805146423     
   1.68478743166986        1.73920997629283        1.77415639195310     
  0.721959751409931        1.06375346981256        1.30486292840071     
   1.49226960486212        1.64357025136483        1.76737078688770     
   1.86835849631353        1.94898954298611        2.00987318215228     
   2.04867402823195       0.831654860915130        1.22330861700077     
   1.49816170148633        1.71070622963856        1.88143741565730     
   2.02044430309175        2.13327646675629        2.22291343776684     
   2.29024989283425        2.33294123030053       0.945881849208300     
   1.38906852784909        1.69848218534106        1.93649611330451     
   2.12666969689882        2.28068655638683        2.40505282598903     
   2.50335016790619        2.57682891655607        2.62321554859238     
   1.06604900630706        1.56273658222430        1.90742224422157     
   2.17089079485352        2.38003071920883        2.54829543777943     
   2.68328999083053        2.78932817059073        2.86813911093080     
   2.91766501444138        1.20026426621577        1.75464010308260     
   2.13580887914970        2.42444268501034        2.65147529581580     
   2.83254006274836        2.97658517856008        3.08882981516666     
   3.17164497951108        3.22338783623779        1.37295295739539     
   1.99431413303914        2.41390614931765        2.72707143993852     
   2.97064091910203        3.16309389138365        3.31495333160683     
   3.43244870875336        3.51866068897580        3.57240252886811     
   1.58329181907276        2.27970861323593        2.73845794209822     
   3.07418226690610        3.33138216546832        3.53216643283628     
   3.68905033145314        3.80949713194720        3.89740341100373     
   3.95214457056232        1.72346607917897        2.46492485420131     
   2.94269808662643        3.28494879696649        3.54197768507813     
   3.73915801999782        3.89091123607303        4.00578686101759     
   4.08837758074709        4.13892428738334        1.74611303713119     
   2.47774894504370        2.93750691131236        3.25975113617467     
   3.49748325754391        3.67727632364991        3.81395621504528     
   3.91605689743727        3.98806258769254        4.03075195330791     
   1.64268330017797        2.30142746061145        2.70133016089216     
   2.97510495112927        3.17398210432595        3.32279643424402     
   3.43488101544178        3.51755058530396        3.57434568086757     
   3.60584486313146        1.42469273470282        1.95143284268190     
   2.25901475164826        2.46648291388167        2.61633820002062     
   2.72819460909794        2.81231786414508        2.87428129637335     
   2.91689450011827        2.94093313965560        1.09103278675567     
   1.44713567717367        1.65225109501445        1.79093185246538     
   1.89146674318320        1.96675750286958        2.02360738194109     
   2.06586276652761        2.09601452030014        2.11767176198254     
  0.663590581599935       0.863016357983502       0.978974453242846     
   1.05782131848244        1.11518374383276        1.15824552793136     
   1.19081494516050        1.21502543992644        1.23203991737196     
   1.24217757528476     
  0.000000000000000E+000  0.000000000000000E+000  0.000000000000000E+000
  0.000000000000000E+000  0.000000000000000E+000  0.000000000000000E+000
  0.000000000000000E+000  0.000000000000000E+000  0.000000000000000E+000
  0.000000000000000E+000  0.000000000000000E+000  0.000000000000000E+000
  0.000000000000000E+000  0.000000000000000E+000  0.000000000000000E+000
  0.000000000000000E+000  0.000000000000000E+000  0.000000000000000E+000
  0.000000000000000E+000  0.000000000000000E+000  0.000000000000000E+000
  0.000000000000000E+000  0.000000000000000E+000  0.000000000000000E+000
  0.000000000000000E+000  0.000000000000000E+000  0.000000000000000E+000
  0.000000000000000E+000  0.000000000000000E+000  0.000000000000000E+000
  0.000000000000000E+000  0.000000000000000E+000  0.000000000000000E+000
  0.000000000000000E+000  0.000000000000000E+000  0.000000000000000E+000
  0.000000000000000E+000  0.000000000000000E+000  0.000000000000000E+000
  0.000000000000000E+000  0.000000000000000E+000  0.000000000000000E+000
  0.000000000000000E+000  0.000000000000000E+000  0.000000000000000E+000
  0.000000000000000E+000  0.000000000000000E+000  0.000000000000000E+000
  0.000000000000000E+000  0.000000000000000E+000  0.000000000000000E+000
  0.000000000000000E+000  0.000000000000000E+000  0.000000000000000E+000
  0.000000000000000E+000  0.000000000000000E+000  0.000000000000000E+000
  0.000000000000000E+000  0.000000000000000E+000  0.000000000000000E+000
  0.000000000000000E+000  0.000000000000000E+000  0.000000000000000E+000
  0.000000000000000E+000  0.000000000000000E+000  0.000000000000000E+000
  0.000000000000000E+000  0.000000000000000E+000  0.000000000000000E+000
  0.000000000000000E+000  0.000000000000000E+000  0.000000000000000E+000
  0.000000000000000E+000  0.000000000000000E+000  0.000000000000000E+000
  0.000000000000000E+000  0.000000000000000E+000  0.000000000000000E+000
  0.000000000000000E+000  0.000000000000000E+000  0.000000000000000E+000
  0.000000000000000E+000  0.000000000000000E+000  0.000000000000000E+000
  0.000000000000000E+000  0.000000000000000E+000  0.000000000000000E+000
  0.000000000000000E+000  0.000000000000000E+000  0.000000000000000E+000
  0.000000000000000E+000  0.000000000000000E+000  0.000000000000000E+000
  0.000000000000000E+000  0.000000000000000E+000  0.000000000000000E+000
  0.000000000000000E+000  0.000000000000000E+000  0.000000000000000E+000
  0.000000000000000E+000  0.000000000000000E+000  0.000000000000000E+000
  0.000000000000000E+000  0.000000000000000E+000  0.000000000000000E+000
  0.000000000000000E+000  0.000000000000000E+000  0.000000000000000E+000
  0.000000000000000E+000  0.000000000000000E+000  0.000000000000000E+000
  0.000000000000000E+000  0.000000000000000E+000  0.000000000000000E+000
  0.000000000000000E+000  0.000000000000000E+000  0.000000000000000E+000