 Title = "Wing and Tip"
 VARIABLES = "X" "Y" "Z" "GAM"
 Zone I=   11 J=   26 K=1  T="Blade"
 DATAPACKING=BLOCK
 VARLOCATION=([4]=CELLCENTERED)
  0.111426016776051       9.371703381071325E-002  7.600805084537590E-002
  5.829906788003848E-002  4.059008491470097E-002  2.288110194936361E-002
  5.172118984026078E-003 -1.253686398131139E-002 -3.024584694664880E-002
 -4.795482991198619E-002 -6.566381287732365E-002  0.110131880437776     
  9.242289747243881E-002  7.471391450710131E-002  5.700493154176394E-002
  3.929594857642645E-002  2.158696561108911E-002  3.877982645751683E-003
 -1.383100031958581E-002 -3.153998328492321E-002 -4.924896625026065E-002
 -6.695794921559808E-002  0.106269880726087       8.856089776074970E-002
  7.085191479541227E-002  5.314293183007494E-002  3.543394886473736E-002
  1.772496589939995E-002  1.598293406252348E-005 -1.769300003127495E-002
 -3.540198299661221E-002 -5.311096596194975E-002 -7.081994892728721E-002
  9.990092368348340E-002  8.219194071814581E-002  6.448295775280843E-002
  4.677397478747097E-002  2.906499182213361E-002  1.135600885679617E-002
 -6.352974108541303E-003 -2.406195707387864E-002 -4.177094003921607E-002
 -5.947992300455349E-002 -7.718890596989093E-002  9.112545156715747E-002
  7.341646860181988E-002  5.570748563648262E-002  3.799850267114508E-002
  2.028951970580768E-002  2.580536740470131E-003 -1.512844622486716E-002
 -3.283742919020458E-002 -5.054641215554193E-002 -6.825539512087941E-002
 -8.596437808621686E-002  8.008185881459672E-002  6.237287584925930E-002
  4.466389288392186E-002  2.695490991858442E-002  9.245926953246983E-003
 -8.463056012090384E-003 -2.617203897742786E-002 -4.388102194276525E-002
 -6.159000490810269E-002 -7.929898787344020E-002 -9.700797083877762E-002
  6.694430948063161E-002  4.923532651529409E-002  3.152634354995673E-002
  1.381736058461948E-002 -3.891622380718132E-003 -2.160060534605553E-002
 -3.930958831139293E-002 -5.701857127673036E-002 -7.472755424206785E-002
 -9.243653720740522E-002 -0.110145520172743       5.191999056625023E-002
  3.421100760091277E-002  1.650202463557533E-002 -1.206958329762096E-003
 -1.891594129509932E-002 -3.662492426043701E-002 -5.433390722577432E-002
 -7.204289019111186E-002 -8.975187315644918E-002 -0.107460856121787     
 -0.125169839087124       3.524584455582565E-002  1.753686159048811E-002
 -1.721213748492146E-004 -1.788110434018654E-002 -3.559008730552432E-002
 -5.329907027086142E-002 -7.100805323619896E-002 -8.871703620153640E-002
 -0.106426019166874      -0.124135002132211      -0.141843985097549     
  1.718483269259401E-002 -5.241502727432839E-004 -1.823313323808072E-002
 -3.594211620341782E-002 -5.365109916875560E-002 -7.136008213409305E-002
 -8.906906509943036E-002 -0.106778048064768      -0.124487031030105     
 -0.142196013995442      -0.159904996960780      -1.978212077235490E-003
 -1.968719504257318E-002 -3.739617800791022E-002 -5.510516097324782E-002
 -7.281414393858537E-002 -9.052312690392268E-002 -0.108232109869260     
 -0.125941092834598      -0.143650075799935      -0.161359058765272     
 -0.179068041730610      -2.194107709019536E-002 -3.965006005553291E-002
 -5.735904302087026E-002 -7.506802598620731E-002 -9.277700895154482E-002
 -0.110485991916882      -0.128194974882220      -0.145903957847557     
 -0.163612940812895      -0.181321923778232      -0.199030906743570     
 -4.238893603979326E-002 -6.009791900513033E-002 -7.780690197046780E-002
 -9.551588493580479E-002 -0.113224867901143      -0.130933850866480     
 -0.148642833831817      -0.166351816797155      -0.184060799762492     
 -0.201769782727830      -0.219478765693167      -6.299931397543478E-002
 -8.070829694077208E-002 -9.841727990610950E-002 -0.116126262871447     
 -0.133835245836784      -0.151544228802122      -0.169253211767459     
 -0.186962194732796      -0.204671177698134      -0.222380160663472     
 -0.240089143628809      -8.344717292503237E-002 -0.101156155890370     
 -0.118865138855707      -0.136574121821045      -0.154283104786382     
 -0.171992087751719      -0.189701070717057      -0.207410053682394     
 -0.225119036647732      -0.242828019613070      -0.260537002578407     
 -0.103410037937992      -0.121119020903330      -0.138828003868667     
 -0.156536986834004      -0.174245969799342      -0.191954952764679     
 -0.209663935730017      -0.227372918695354      -0.245081901660691     
 -0.262790884626029      -0.280499867591366      -0.122573082707822     
 -0.140282065673159      -0.157991048638496      -0.175700031603834     
 -0.193409014569172      -0.211117997534509      -0.228826980499846     
 -0.246535963465184      -0.264244946430521      -0.281953929395859     
 -0.299662912361196      -0.140634094571053      -0.158343077536391     
 -0.176052060501728      -0.193761043467066      -0.211470026432403     
 -0.229179009397741      -0.246887992363078      -0.264596975328415     
 -0.282305958293753      -0.300014941259090      -0.317723924224427     
 -0.157308240581478      -0.175017223546816      -0.192726206512153     
 -0.210435189477490      -0.228144172442828      -0.245853155408165     
 -0.263562138373503      -0.281271121338840      -0.298980104304177     
 -0.316689087269515      -0.334398070234852      -0.172332559495859     
 -0.190041542461196      -0.207750525426534      -0.225459508391871     
 -0.243168491357209      -0.260877474322546      -0.278586457287884     
 -0.296295440253221      -0.314004423218559      -0.331713406183895     
 -0.349422389149233      -0.185470108829824      -0.203179091795162     
 -0.220888074760499      -0.238597057725837      -0.256306040691174     
 -0.274015023656511      -0.291724006621848      -0.309432989587187     
 -0.327141972552524      -0.344850955517861      -0.362559938483199     
 -0.196513701582385      -0.214222684547723      -0.231931667513060     
 -0.249640650478397      -0.267349633443734      -0.285058616409072     
 -0.302767599374410      -0.320476582339747      -0.338185565305084     
 -0.355894548270422      -0.373603531235759      -0.205289173698711     
 -0.222998156664048      -0.240707139629386      -0.258416122594723     
 -0.276125105560061      -0.293834088525398      -0.311543071490735     
 -0.329252054456073      -0.346961037421411      -0.364670020386748     
 -0.382379003352086      -0.211658130741315      -0.229367113706652     
 -0.247076096671990      -0.264785079637327      -0.282494062602664     
 -0.300203045568002      -0.317912028533339      -0.335621011498677     
 -0.353329994464014      -0.371038977429352      -0.388747960394689     
 -0.215520130453004      -0.233229113418341      -0.250938096383678     
 -0.268647079349016      -0.286356062314354      -0.304065045279691     
 -0.321774028245028      -0.339483011210366      -0.357191994175703     
 -0.374900977141041      -0.392609960106378      -0.216814266791279     
 -0.234523249756616      -0.252232232721954      -0.269941215687290     
 -0.287650198652628      -0.305359181617966      -0.323068164583303     
 -0.340777147548640      -0.358486130513978      -0.376195113479315     
 -0.393904096444653     
 -0.243877733644435      -0.237376556163508      -0.230875378682580     
 -0.224374201201653      -0.217873023720726      -0.211371846239799     
 -0.204870668758871      -0.198369491277944      -0.191868313797016     
 -0.185367136316089      -0.178865958835162      -0.247402916341964     
 -0.240901738861036      -0.234400561380109      -0.227899383899182     
 -0.221398206418254      -0.214897028937327      -0.208395851456400     
 -0.201894673975472      -0.195393496494545      -0.188892319013618     
 -0.182391141532690      -0.257922870197566      -0.251421692716639     
 -0.244920515235712      -0.238419337754785      -0.231918160273857     
 -0.225416982792930      -0.218915805312003      -0.212414627831075     
 -0.205913450350148      -0.199412272869221      -0.192911095388293     
 -0.275271689254626      -0.268770511773698      -0.262269334292771     
 -0.255768156811844      -0.249266979330917      -0.242765801849989     
 -0.236264624369062      -0.229763446888134      -0.223262269407207     
 -0.216761091926280      -0.210259914445353      -0.299175772272929     
 -0.292674594792002      -0.286173417311074      -0.279672239830147     
 -0.273171062349220      -0.266669884868292      -0.260168707387365     
 -0.253667529906438      -0.247166352425510      -0.240665174944583     
 -0.234163997463656      -0.329258137583670      -0.322756960102743     
 -0.316255782621816      -0.309754605140889      -0.303253427659961     
 -0.296752250179034      -0.290251072698106      -0.283749895217179     
 -0.277248717736252      -0.270747540255324      -0.264246362774397     
 -0.365044368315566      -0.358543190834638      -0.352042013353711     
 -0.345540835872784      -0.339039658391856      -0.332538480910929     
 -0.326037303430002      -0.319536125949074      -0.313034948468147     
 -0.306533770987220      -0.300032593506292      -0.405970094232315     
 -0.399468916751388      -0.392967739270461      -0.386466561789533     
 -0.379965384308606      -0.373464206827679      -0.366963029346751     
 -0.360461851865824      -0.353960674384897      -0.347459496903969     
 -0.340958319423042      -0.451389892188368      -0.444888714707441     
 -0.438387537226514      -0.431886359745586      -0.425385182264659     
 -0.418884004783731      -0.412382827302804      -0.405881649821877     
 -0.399380472340949      -0.392879294860022      -0.386378117379095     
 -0.500587464837485      -0.494086287356557      -0.487585109875630     
 -0.481083932394703      -0.474582754913775      -0.468081577432848     
 -0.461580399951921      -0.455079222470993      -0.448578044990066     
 -0.442076867509139      -0.435575690028211      -0.552786937069784     
 -0.546285759588857      -0.539784582107929      -0.533283404627002     
 -0.526782227146074      -0.520281049665147      -0.513779872184220     
 -0.507278694703292      -0.500777517222366      -0.494276339741438     
 -0.487775162260511      -0.607165092025709      -0.600663914544781     
 -0.594162737063854      -0.587661559582926      -0.581160382101999     
 -0.574659204621072      -0.568158027140145      -0.561656849659217     
 -0.555155672178289      -0.548654494697362      -0.542153317216436     
 -0.662864353717668      -0.656363176236741      -0.649861998755814     
 -0.643360821274886      -0.636859643793959      -0.630358466313032     
 -0.623857288832104      -0.617356111351177      -0.610854933870249     
 -0.604353756389323      -0.597852578908395      -0.719006311515655     
 -0.712505134034728      -0.706003956553800      -0.699502779072873     
 -0.693001601591946      -0.686500424111019      -0.679999246630091     
 -0.673498069149164      -0.666996891668237      -0.660495714187309     
 -0.653994536706382      -0.774705573207615      -0.768204395726689     
 -0.761703218245761      -0.755202040764833      -0.748700863283906     
 -0.742199685802979      -0.735698508322051      -0.729197330841124     
 -0.722696153360197      -0.716194975879270      -0.709693798398342     
 -0.829083728163540      -0.822582550682612      -0.816081373201685     
 -0.809580195720758      -0.803079018239831      -0.796577840758904     
 -0.790076663277976      -0.783575485797049      -0.777074308316121     
 -0.770573130835194      -0.764071953354267      -0.881283200395839     
 -0.874782022914912      -0.868280845433984      -0.861779667953057     
 -0.855278490472130      -0.848777312991202      -0.842276135510274     
 -0.835774958029348      -0.829273780548420      -0.822772603067493     
 -0.816271425586566      -0.930480773044955      -0.923979595564028     
 -0.917478418083101      -0.910977240602174      -0.904476063121246     
 -0.897974885640319      -0.891473708159392      -0.884972530678465     
 -0.878471353197537      -0.871970175716609      -0.865468998235682     
 -0.975900571001008      -0.969399393520081      -0.962898216039154     
 -0.956397038558226      -0.949895861077299      -0.943394683596371     
 -0.936893506115444      -0.930392328634517      -0.923891151153590     
 -0.917389973672663      -0.910888796191735       -1.01682629691776     
  -1.01032511943683       -1.00382394195590      -0.997322764474976     
 -0.990821586994048      -0.984320409513121      -0.977819232032194     
 -0.971318054551266      -0.964816877070339      -0.958315699589412     
 -0.951814522108485       -1.05261252764965       -1.04611135016873     
  -1.03961017268780       -1.03310899520687       -1.02660781772594     
  -1.02010664024502       -1.01360546276409       -1.00710428528316     
  -1.00060310780223      -0.994101930321307      -0.987600752840380     
  -1.08269489296039       -1.07619371547947       -1.06969253799854     
  -1.06319136051761       -1.05669018303669       -1.05018900555576     
  -1.04368782807483       -1.03718665059390       -1.03068547311298     
  -1.02418429563205       -1.01768311815112       -1.10659897597870     
  -1.10009779849777       -1.09359662101684       -1.08709544353592     
  -1.08059426605499       -1.07409308857406       -1.06759191109313     
  -1.06109073361221       -1.05458955613128       -1.04808837865035     
  -1.04158720116942       -1.12394779503576       -1.11744661755483     
  -1.11094544007390       -1.10444426259298       -1.09794308511205     
  -1.09144190763112       -1.08494073015019       -1.07843955266927     
  -1.07193837518834       -1.06543719770741       -1.05893602022648     
  -1.13446774889136       -1.12796657141043       -1.12146539392951     
  -1.11496421644858       -1.10846303896765       -1.10196186148672     
  -1.09546068400580       -1.08895950652487       -1.08245832904394     
  -1.07595715156301       -1.06945597408209       -1.13799293158889     
  -1.13149175410796       -1.12499057662703       -1.11848939914611     
  -1.11198822166518       -1.10548704418425       -1.09898586670332     
  -1.09248468922240       -1.08598351174147       -1.07948233426054     
  -1.07298115677962     
  2.651247573289247E-002  2.386122815960322E-002  2.120998058631397E-002
  1.855873301302472E-002  1.590748543973548E-002  1.325623786644623E-002
  1.060499029315698E-002  7.953742719867740E-003  5.302495146578492E-003
  2.651247573289244E-003  0.000000000000000E+000  2.651247573289247E-002
  2.386122815960322E-002  2.120998058631397E-002  1.855873301302472E-002
  1.590748543973548E-002  1.325623786644623E-002  1.060499029315698E-002
  7.953742719867740E-003  5.302495146578492E-003  2.651247573289244E-003
  0.000000000000000E+000  2.651247573289247E-002  2.386122815960322E-002
  2.120998058631397E-002  1.855873301302472E-002  1.590748543973548E-002
  1.325623786644623E-002  1.060499029315698E-002  7.953742719867740E-003
  5.302495146578492E-003  2.651247573289244E-003  0.000000000000000E+000
  2.651247573289247E-002  2.386122815960322E-002  2.120998058631397E-002
  1.855873301302472E-002  1.590748543973548E-002  1.325623786644623E-002
  1.060499029315698E-002  7.953742719867740E-003  5.302495146578492E-003
  2.651247573289244E-003  0.000000000000000E+000  2.651247573289247E-002
  2.386122815960322E-002  2.120998058631397E-002  1.855873301302472E-002
  1.590748543973548E-002  1.325623786644623E-002  1.060499029315698E-002
  7.953742719867740E-003  5.302495146578492E-003  2.651247573289244E-003
  0.000000000000000E+000  2.651247573289247E-002  2.386122815960322E-002
  2.120998058631397E-002  1.855873301302472E-002  1.590748543973548E-002
  1.325623786644623E-002  1.060499029315698E-002  7.953742719867740E-003
  5.302495146578492E-003  2.651247573289244E-003  0.000000000000000E+000
  2.651247573289247E-002  2.386122815960322E-002  2.120998058631397E-002
  1.855873301302472E-002  1.590748543973548E-002  1.325623786644623E-002
  1.060499029315698E-002  7.953742719867740E-003  5.302495146578492E-003
  2.651247573289244E-003  0.000000000000000E+000  2.651247573289247E-002
  2.386122815960322E-002  2.120998058631397E-002  1.855873301302472E-002
  1.590748543973548E-002  1.325623786644623E-002  1.060499029315698E-002
  7.953742719867740E-003  5.302495146578492E-003  2.651247573289244E-003
  0.000000000000000E+000  2.651247573289247E-002  2.386122815960322E-002
  2.120998058631397E-002  1.855873301302472E-002  1.590748543973548E-002
  1.325623786644623E-002  1.060499029315698E-002  7.953742719867740E-003
  5.302495146578492E-003  2.651247573289244E-003  0.000000000000000E+000
  2.651247573289247E-002  2.386122815960322E-002  2.120998058631397E-002
  1.855873301302472E-002  1.590748543973548E-002  1.325623786644623E-002
  1.060499029315698E-002  7.953742719867740E-003  5.302495146578492E-003
  2.651247573289244E-003  0.000000000000000E+000  2.651247573289247E-002
  2.386122815960322E-002  2.120998058631397E-002  1.855873301302472E-002
  1.590748543973548E-002  1.325623786644623E-002  1.060499029315698E-002
  7.953742719867740E-003  5.302495146578492E-003  2.651247573289244E-003
  0.000000000000000E+000  2.651247573289247E-002  2.386122815960322E-002
  2.120998058631397E-002  1.855873301302472E-002  1.590748543973548E-002
  1.325623786644623E-002  1.060499029315698E-002  7.953742719867740E-003
  5.302495146578492E-003  2.651247573289244E-003  0.000000000000000E+000
  2.651247573289247E-002  2.386122815960322E-002  2.120998058631397E-002
  1.855873301302472E-002  1.590748543973548E-002  1.325623786644623E-002
  1.060499029315698E-002  7.953742719867740E-003  5.302495146578492E-003
  2.651247573289244E-003  0.000000000000000E+000  2.651247573289247E-002
  2.386122815960322E-002  2.120998058631397E-002  1.855873301302472E-002
  1.590748543973548E-002  1.325623786644623E-002  1.060499029315698E-002
  7.953742719867740E-003  5.302495146578492E-003  2.651247573289244E-003
  0.000000000000000E+000  2.651247573289247E-002  2.386122815960322E-002
  2.120998058631397E-002  1.855873301302472E-002  1.590748543973548E-002
  1.325623786644623E-002  1.060499029315698E-002  7.953742719867740E-003
  5.302495146578492E-003  2.651247573289244E-003  0.000000000000000E+000
  2.651247573289247E-002  2.386122815960322E-002  2.120998058631397E-002
  1.855873301302472E-002  1.590748543973548E-002  1.325623786644623E-002
  1.060499029315698E-002  7.953742719867740E-003  5.302495146578492E-003
  2.651247573289244E-003  0.000000000000000E+000  2.651247573289247E-002
  2.386122815960322E-002  2.120998058631397E-002  1.855873301302472E-002
  1.590748543973548E-002  1.325623786644623E-002  1.060499029315698E-002
  7.953742719867740E-003  5.302495146578492E-003  2.651247573289244E-003
  0.000000000000000E+000  2.651247573289247E-002  2.386122815960322E-002
  2.120998058631397E-002  1.855873301302472E-002  1.590748543973548E-002
  1.325623786644623E-002  1.060499029315698E-002  7.953742719867740E-003
  5.302495146578492E-003  2.651247573289244E-003  0.000000000000000E+000
  2.651247573289247E-002  2.386122815960322E-002  2.120998058631397E-002
  1.855873301302472E-002  1.590748543973548E-002  1.325623786644623E-002
  1.060499029315698E-002  7.953742719867740E-003  5.302495146578492E-003
  2.651247573289244E-003  0.000000000000000E+000  2.651247573289247E-002
  2.386122815960322E-002  2.120998058631397E-002  1.855873301302472E-002
  1.590748543973548E-002  1.325623786644623E-002  1.060499029315698E-002
  7.953742719867740E-003  5.302495146578492E-003  2.651247573289244E-003
  0.000000000000000E+000  2.651247573289247E-002  2.386122815960322E-002
  2.120998058631397E-002  1.855873301302472E-002  1.590748543973548E-002
  1.325623786644623E-002  1.060499029315698E-002  7.953742719867740E-003
  5.302495146578492E-003  2.651247573289244E-003  0.000000000000000E+000
  2.651247573289247E-002  2.386122815960322E-002  2.120998058631397E-002
  1.855873301302472E-002  1.590748543973548E-002  1.325623786644623E-002
  1.060499029315698E-002  7.953742719867740E-003  5.302495146578492E-003
  2.651247573289244E-003  0.000000000000000E+000  2.651247573289247E-002
  2.386122815960322E-002  2.120998058631397E-002  1.855873301302472E-002
  1.590748543973548E-002  1.325623786644623E-002  1.060499029315698E-002
  7.953742719867740E-003  5.302495146578492E-003  2.651247573289244E-003
  0.000000000000000E+000  2.651247573289247E-002  2.386122815960322E-002
  2.120998058631397E-002  1.855873301302472E-002  1.590748543973548E-002
  1.325623786644623E-002  1.060499029315698E-002  7.953742719867740E-003
  5.302495146578492E-003  2.651247573289244E-003  0.000000000000000E+000
  2.651247573289247E-002  2.386122815960322E-002  2.120998058631397E-002
  1.855873301302472E-002  1.590748543973548E-002  1.325623786644623E-002
  1.060499029315698E-002  7.953742719867740E-003  5.302495146578492E-003
  2.651247573289244E-003  0.000000000000000E+000  2.651247573289247E-002
  2.386122815960322E-002  2.120998058631397E-002  1.855873301302472E-002
  1.590748543973548E-002  1.325623786644623E-002  1.060499029315698E-002
  7.953742719867740E-003  5.302495146578492E-003  2.651247573289244E-003
  0.000000000000000E+000
  0.281756396067882       0.394288671546285       0.475775426338562     
  0.542436359809847       0.598427210972907       0.644321536159215     
  0.680732664476464       0.709215665160030       0.732032361863390     
  0.750393748052684       0.460431172267949       0.656484144553844     
  0.797597073928106       0.913018530102691        1.01024726437191     
   1.09036848435500        1.15428228574400        1.20455707353067     
   1.24540896999001        1.28074654359254       0.590060518965246     
  0.867678153867689        1.07084174173923        1.23798096304236     
   1.37962555752575        1.49780478784258        1.59337751228545     
   1.66924748514374        1.73061781777389        1.77891589919949     
  0.659456333744424       0.993303213912318        1.24593174781891     
   1.45806271136702        1.64002823495095        1.79402283409436     
   1.92015598418814        2.02068390629860        2.10075872589888     
   2.15919178553300       0.683464138071191        1.04380463067291     
   1.32421970898927        1.56271320519797        1.76941645605319     
   1.94825924156533        2.09799394975407        2.21879808977757     
   2.31450089151242        2.38115331652745       0.694656957596103     
   1.06254294766344        1.35007401836307        1.59490902027073     
   1.80781054560770        1.99291020986495        2.15179555816655     
   2.28369216611746        2.38821040336591        2.46053590294622     
  0.722871259338503        1.09613062961727        1.38230798979943     
   1.62241669228818        1.83031978474893        2.01219262050214     
   2.16978417210878        2.30222293117223        2.40793808195511     
   2.48155335142983       0.778102050245666        1.16873991129790     
   1.46061784103517        1.70051844778087        1.90532458393263     
   2.08275615074085        2.23575425745793        2.36447367685721     
   2.46758996389354        2.54019266152953       0.848684191003691     
   1.26619265300224        1.57245237540338        1.82034772063803     
   2.02926818168167        2.20810350598125        2.36073283168837     
   2.48834955832132        2.59047577376591        2.66273959919757     
  0.926006377905956        1.37583805968039        1.70187157699735     
   1.96277892731573        2.18018018227165        2.36419106797498     
   2.51978862719504        2.64917769268830        2.75244801732777     
   2.82541382373060        1.00409569307434        1.48792996312863     
   1.83580954021361        2.11192892083430        2.34003389709319     
   2.53144567037385        2.69209122868810        2.82492822084240     
   2.93050924245263        3.00484792966063        1.08020117978560     
   1.59745572901908        1.96702231927041        2.25846487137542     
   2.49765498500740        2.69710544526855        2.86355402120537     
   3.00051875475324        3.10889548177340        3.18487685518532     
   1.15124688141636        1.69953750279928        2.08913887422595     
   2.39469138000213        2.64410060295124        2.85099395668163     
   3.02282359531806        3.16359314591071        3.27451229471568     
   3.35195030389143        1.21304060667972        1.78788722603413     
   2.19432703591267        2.51151316233023        2.76916680462988     
   2.98190180879279        3.15779184083488        3.30125919789117     
   3.41382096086557        3.49209025725036        1.26054713149673     
   1.85512398094795        2.27357031967830        2.59862116432967     
   2.86145123671668        3.07746908266054        3.25526053219078     
   3.39961610328631        3.51234743293683        3.59039437154502     
   1.28904275695046        1.89440761394294        2.31855703998749     
   2.64651830340102        2.91042557470814        3.12625248274575     
   3.30297699580958        3.44570445078359        3.55655243078089     
   3.63288470947158        1.29733496766738        1.90387839548693     
   2.32672455988744        2.65182657493741        2.91181363502579     
   3.12304093366017        3.29482031909031        3.43256934883893     
   3.53875139908806        3.61130566551524        1.29456350803656     
   1.89550867973848        2.31077233528784        2.62682588845614     
   2.87684872303624        3.07773575759537        3.23930045823234     
   3.36743417729661        3.46511368849225        3.53111688737627     
   1.30671266883376        1.90296730764301        2.30683503553532     
   2.60772426738357        2.84075876982394        3.02425375669747     
   3.16902674759128        3.28172935161444        3.36611807823179     
   3.42227815957266        1.36752386465554        1.96703125676529     
   2.35738725561479        2.63755840621149        2.84743884907388     
   3.00821643241227        3.13210976496957        3.22630946792121     
   3.29520364265207        3.34024772561836        1.43728859909975     
   2.03311837810952        2.40141375520551        2.65396503093455     
   2.83626848832216        2.97209309215773        3.07439161827221     
   3.15082799830694        3.20602394748630        3.24196280384023     
   1.43455704952237        1.98887020812414        2.31222228407857     
   2.52475373223655        2.67379599826374        2.78260523004197     
   2.86365910542413        2.92352480885326        2.96614398363195     
   2.99315035163342        1.31450933515898        1.77134728321388     
   2.02305762279983        2.18411862272678        2.29575906733482     
   2.37723955121525        2.43814236808397        2.48283381552457     
   2.51504465491612        2.53644958670723        1.04433753787284     
   1.35739263247650        1.52584050642949        1.63329017748079     
   1.70785270050872        1.76258439911164        1.80399695975102     
   1.83461059702497        1.85800284369635        1.87780321001287     
  0.643992542612415       0.819501239225510       0.914682825064514     
  0.975680012693421        1.01813445174511        1.04937202811776     
   1.07307359700991        1.09074586008635        1.10408850037643     
   1.11355289388205     
 Zone I=   61 J=1    K=1  T="NearWake"
 DATAPACKING=BLOCK
 VARLOCATION=([4]=CELLCENTERED)
 -0.386953214242714      -0.624409690310531      -0.815927032466954     
 -0.960334652988598       -1.05034651660870       -1.07364652079917     
  -1.03464067682019      -0.933839494271971      -0.779352149598897     
 -0.571917609961414      -0.332261266655007      -6.247493033352328E-002
  0.222294613346391       0.491121424348655       0.721884087010662     
  0.920596534452962        1.04720522870167        1.14739214342038     
   1.19955273422793        1.15524323366294        1.07982990690268     
  0.932200616194857       0.783118626130921       0.603845359244084     
  0.413275407765048       0.214715539774929      -4.929906899082283E-003
 -0.211341624997145      -0.398425391447956      -0.567983371589598     
 -0.715479727128489      -0.842574907780788      -0.947016237429329     
  -1.02912130403380       -1.09509728057564       -1.10842273296857     
  -1.14238130524618       -1.11699369441859       -1.12509480723671     
  -1.07840285425742       -1.07909382927279      -0.994797499441955     
 -0.953967062604567      -0.875952079571946      -0.811845055326393     
 -0.747660360111674      -0.670782150817587      -0.582423438050001     
 -0.516431208176979      -0.445929026516581      -0.398434070996831     
 -0.338521907951562      -0.273091930012369      -0.225716986785998     
 -0.187360402458778      -0.146021522416654      -0.106989294563070     
 -8.053335784672157E-002 -5.485765539320193E-002 -3.741097123039758E-002
 -2.683876240351343E-002
  -1.01333834566235      -0.886800035219080      -0.699140096657531     
 -0.475850061181210      -0.228278507257360       4.020389598436564E-002
  0.304569122992074       0.553191807033625       0.774951842007133     
  0.944491354661473        1.06113549985512        1.13254686788507     
   1.11055192388888        1.03531956277295       0.897994474827874     
  0.709694169619319       0.483803619538655       0.241410975371786     
 -1.503010047561877E-002 -0.260874884369280      -0.498799984758672     
 -0.682052038866733      -0.850616659403449      -0.985090645402168     
  -1.08242447891238       -1.13677527671265       -1.13346280964774     
  -1.12168891934839       -1.07058647634153      -0.992846787388722     
 -0.893647564762331      -0.765374024864848      -0.636238284621302     
 -0.494028411543736      -0.351040636119006      -0.200740460635131     
 -4.983013793599655E-002  8.515909394191971E-002  0.222397059426759     
  0.344815568478266       0.477284830443207       0.572893582045348     
  0.665909778848832       0.757050434918662       0.832979748869663     
  0.905625576638446       0.953740502675617       0.967701571915629     
   1.03201482438737        1.04673324881567        1.08737815827051     
   1.09591376336985        1.08527428894350        1.09249180211778     