 Title = "Wing and Wake"
 VARIABLES = "X" "Y" "Z" "GAM"
 Zone I=    9 J=   15 K=1  T="Blade"
 DATAPACKING=BLOCK
 VARLOCATION=([4]=CELLCENTERED)
  -1.43891467154348       -1.43895457154348       -1.43906337154348     
  -1.43826257154348       -1.43597007154348       -1.43275037154348     
  -1.42997147154348       -1.42822087154348       -1.42730107154348     
  -1.43950297154348       -1.43952527154348       -1.43958787154348     
  -1.43865497154348       -1.43612117154348       -1.43261287154348     
  -1.42960047154348       -1.42770687154348       -1.42671277154348     
  -1.43951387154348       -1.43947957154348       -1.43939267154348     
  -1.43832457154348       -1.43576227154348       -1.43234647154348     
  -1.42945487154348       -1.42764797154348       -1.42670187154348     
  -1.43928147154348       -1.43917787154348       -1.43890747154348     
  -1.43771137154348       -1.43521217154348       -1.43204297154348     
  -1.42941327154348       -1.42778417154348       -1.42693427154348     
  -1.43880837154348       -1.43874477154348       -1.43857987154348     
  -1.43755107154348       -1.43525697154348       -1.43227497154348     
  -1.42977547154348       -1.42822027154348       -1.42740737154348     
  -1.43826697154348       -1.43823457154348       -1.43815177154348     
  -1.43728007154348       -1.43521447154348       -1.43247187154348     
  -1.43015387154348       -1.42870647154348       -1.42794877154348     
  -1.43769367154348       -1.43768557154348       -1.43766687154348     
  -1.43694107154348       -1.43511387154348       -1.43263997154348     
  -1.43053337154348       -1.42921377154348       -1.42852207154348     
  -1.43713857154348       -1.43714847154348       -1.43717717154348     
  -1.43657947154348       -1.43498067154348       -1.43277657154348     
  -1.43088707154348       -1.42970017154348       -1.42907717154348     
  -1.43665347154348       -1.43667407154348       -1.43673087154348     
  -1.43623337154348       -1.43483207154348       -1.43287247154348     
  -1.43118387154348       -1.43012077154348       -1.42956227154348     
  -1.43623147154348       -1.43625707154348       -1.43632647154348     
  -1.43590547154348       -1.43467397154348       -1.43293487154348     
  -1.43143087154348       -1.43048267154348       -1.42998427154348     
  -1.43585667154348       -1.43588277154348       -1.43595357154348     
  -1.43559157154348       -1.43450947154348       -1.43297277154348     
  -1.43164107154348       -1.43080087154348       -1.43035907154348     
  -1.43552267154348       -1.43554587154348       -1.43560867154348     
  -1.43529127154348       -1.43434067154348       -1.43299027154348     
  -1.43181987154348       -1.43108137154348       -1.43069307154348     
  -1.43519327154348       -1.43521277154348       -1.43526557154348     
  -1.43499017154348       -1.43416907154348       -1.43300377154348     
  -1.43199427154348       -1.43135737154348       -1.43102247154348     
  -1.43493697154348       -1.43494757154348       -1.43497667154348     
  -1.43471987154348       -1.43399697154348       -1.43298617154348     
  -1.43211517154348       -1.43156687154348       -1.43127877154348     
  -1.43473417154348       -1.43473267154348       -1.43472987154348     
  -1.43447577154348       -1.43382837154348       -1.43294857154348     
  -1.43219837154348       -1.43172817154348       -1.43148157154348     
  0.456271136246381       0.455942967918859       0.455077622754231     
  0.453737758842753       0.452140319561336       0.450721722612864     
  0.449752779546823       0.449208933316921       0.448938019161392     
  0.472872643443168       0.472470461956633       0.471410165310308     
  0.469701740492381       0.467572733504208       0.465600508549735     
  0.464213514262506       0.463421874438764       0.463024241820134     
  0.489270144261244       0.488815770500835       0.487618118564951     
  0.485624072725334       0.483053859752272       0.480600720274267     
  0.478841608071100       0.477826731699811       0.477314282919065     
  0.505491290856640       0.504994540800472       0.503685321893836     
  0.501455966195611       0.498518868214801       0.495663478846234     
  0.493592204858253       0.492389798842376       0.491780866179199     
  0.521376265853159       0.520846955479348       0.519451992122781     
  0.517062399987406       0.513896285318627       0.510803944394762     
  0.508554375306066       0.507246456075974       0.506583621038208     
  0.536995114976158       0.536451302948269       0.535018272749750     
  0.532552136506301       0.529270521635118       0.526054164207285     
  0.523709342508672       0.522344579530761       0.521652501770739     
  0.552415874668924       0.551870865570534       0.550434620382666     
  0.547953708869026       0.544640970164800       0.541384972602356     
  0.539007214363941       0.537621998581458       0.536919283994981     
  0.567707273706703       0.567169378627293       0.565752012951337     
  0.563296103110174       0.560007271613968       0.556767280594230     
  0.554397970253355       0.553016619298492       0.552315614812731     
  0.582917545566483       0.582391723798134       0.581006165995508     
  0.578599336044910       0.575368716377101       0.572180233590946     
  0.569845980314763       0.568484295518141       0.567793072808479     
  0.598059080014238       0.597549470000683       0.596206630513958     
  0.593869230652455       0.590725928727235       0.587619017745266     
  0.585342394863232       0.584013715010442       0.583339080277731     
  0.613133022644890       0.612643797031877       0.611354757313698     
  0.609107103537805       0.606079814845200       0.603083855197724     
  0.600886923009085       0.599604244865572       0.598952867502607     
  0.628135483065586       0.627671190721023       0.626447750466331     
  0.624311492651122       0.621430554377844       0.618576498887836     
  0.616482377954280       0.615259313921749       0.614638136937441     
  0.643058800025118       0.642624571251152       0.641480377063672     
  0.639479901245360       0.636778968173515       0.634100813643220     
  0.632134642445283       0.630986036197953       0.630402549833438     
  0.657889301354532       0.657491018897630       0.656441598491863     
  0.654605155534290       0.652123594182376       0.649661391170575     
  0.647853062268785       0.646796391035979       0.646259590421031     
  0.672629227113214       0.672272807921852       0.671333586406266     
  0.669688982547086       0.667465372787269       0.665258043186274     
  0.663636491484752       0.662688822071624       0.662207394517878     
  1.598814811880479E-002  1.688978318844958E-002  1.926729948829920E-002
  2.294854533022811E-002  2.733747368487052E-002  3.123503676810488E-002
  3.389718596279095E-002  3.539139119910301E-002  3.613572172402737E-002
  1.811751449522042E-002  1.922249904800204E-002  2.213564014170108E-002
  2.682949875178866E-002  3.267889737765724E-002  3.809754090615663E-002
  4.190827639122972E-002  4.408328893130070E-002  4.517577557222651E-002
  2.080709141013416E-002  2.205547305684827E-002  2.534599470705445E-002
  3.082459062476044E-002  3.788619273144225E-002  4.462613805402959E-002
  4.945925911051735E-002  5.224760902417622E-002  5.365555047789899E-002
  2.398148995012575E-002  2.534629951255565E-002  2.894334889566205E-002
  3.506845333646837E-002  4.313806371746755E-002  5.098318153136092E-002
  5.667396004283985E-002  5.997754342047491E-002  6.165057216252196E-002
  2.807951236708814E-002  2.953378066701656E-002  3.336641099015382E-002
  3.993176142379846E-002  4.863058998367597E-002  5.712672684525018E-002
  6.330736711994482E-002  6.690084567109161E-002  6.872196997017528E-002
  3.290870961228332E-002  3.440282087933304E-002  3.834003899116384E-002
  4.511569263334114E-002  5.413185539125717E-002  6.296872479712909E-002
  6.941106946671215E-002  7.316072493143425E-002  7.506219294959439E-002
  3.828186071363849E-002  3.977926090486004E-002  4.372531212732643E-002
  5.054156049072121E-002  5.964323527712898E-002  6.858901505774880E-002
  7.512185212671525E-002  7.892770121016046E-002  8.085839366882734E-002
  4.401071967397340E-002  4.548857425868427E-002  4.938275444848214E-002
  5.613031128129813E-002  6.516630155351363E-002  7.406810371947958E-002
  8.057773038071282E-002  8.437296093754364E-002  8.629895493310548E-002
  4.996247372396016E-002  5.140715715915681E-002  5.521394593522284E-002
  6.182665687695509E-002  7.070271146511317E-002  7.946299592238941E-002
  8.587630408999078E-002  8.961750232112546E-002  9.151662110773520E-002
  5.610278988092424E-002  5.750293188589631E-002  6.119235305362430E-002
  6.761430639333811E-002  7.625045745540869E-002  8.478662522262767E-002
  9.104159518362812E-002  9.469211307685649E-002  9.654565677135671E-002
  6.242910540955639E-002  6.377324173432788E-002  6.731484925280817E-002
  7.349022724882744E-002  8.180763457392760E-002  9.003896605496386E-002
  9.607498763531959E-002  9.959911687105347E-002  0.101388761467340     
  6.895181669593116E-002  7.022744942864888E-002  7.358882390246210E-002
  7.945814401189140E-002  8.737345686455746E-002  9.521490987722943E-002
  0.100968459855777       0.104328800667707       0.106035470405579     
  7.569197285475811E-002  7.688500660610728E-002  8.002865429968475E-002
  8.552491643866200E-002  9.294566906500816E-002  0.100303838162810     
  0.105705849131922       0.108861618860308       0.110464734471368     
  8.268684548106466E-002  8.378111753796921E-002  8.666437640632711E-002
  9.170996196437521E-002  9.852799574374914E-002  0.105292842920787     
  0.110261185745406       0.113164366097325       0.114639213665648     
  8.993086482315621E-002  9.091011850327710E-002  9.349060840921709E-002
  9.800912037626615E-002  0.104118437981044       0.110183026217072     
  0.114638202901480       0.117241903215152       0.118564614548172     
  7.345569916794153E-003  5.123460668133790E-002  0.221140133494636     
  0.492082328669888       0.755712433858604       0.924342317434483     
  0.999580251454456        1.02098149432240       2.360011238027030E-002
  8.963286831438304E-002  0.301351106958863       0.625387457397677     
  0.933167324324172        1.11972327925343        1.19839977368492     
   1.22071020983932       3.447959762482054E-002  0.109808646380923     
  0.326279601137753       0.647100878844690       0.947007482300139     
   1.12549310280896        1.19919883569429        1.22013727102202     
  3.112574704936907E-002  0.101741766041001       0.313944079729292     
  0.632153905750851       0.930289956200522        1.10620144208229     
   1.17787069794045        1.19813814798300       1.379806810637804E-002
  6.901200401036348E-002  0.278861184384927       0.604997933008307     
  0.914049464141898        1.09796394152634        1.17396918002496     
   1.19580109820146      -1.067048351152772E-003  4.015568241733063E-002
  0.244672731633264       0.573757173481487       0.889540833385435     
   1.07861287134773        1.15716528046687        1.17985691416939     
 -1.344951102349341E-002  1.548886457110963E-002  0.212311716851115     
  0.538682833369810       0.855029438980676        1.04510326361192     
   1.12419212364797        1.14709569161964      -2.306746762644579E-002
 -4.244661904403617E-003  0.183575379052021       0.502818850825851     
  0.814511665209819        1.00207973176428        1.08011587872494     
   1.10273104696591      -2.911903265489087E-002 -1.741089757017843E-002
  0.161075745632279       0.469898822664332       0.772913384249034     
  0.955489649268279        1.03148623568726        1.05352555949404     
 -3.144537116612777E-002 -2.369024349169195E-002  0.145507004472830     
  0.441104336791677       0.731985109204267       0.907480242675148     
  0.980589094445327        1.00182141459113      -3.024702064248223E-002
 -2.349354196071224E-002  0.136304687800901       0.415936354845342     
  0.691458015665404       0.858031041483544       0.927595365961062     
  0.947850236749384      -2.680261641275615E-002 -1.940937516602135E-002
  0.129597110509878       0.389590277935246       0.646312480752359     
  0.802430534515975       0.868098734103061       0.887317227480469     
 -2.270512180813055E-002 -1.501188759840144E-002  0.119230573974765     
  0.352546883168534       0.584344135167591       0.727795465701089     
  0.789457235993155       0.807768153201306      -2.196448113810638E-002
 -1.993648067378470E-002  8.617957400571763E-002  0.270172429916451     
  0.454748352941719       0.576571863690824       0.634218130987597     
  0.652386299681832     
 Zone I=  361 J=   15 K=1  T="NearWake"
 DATAPACKING=BLOCK
 VARLOCATION=([4]=CELLCENTERED)
  -1.42730107154348       -1.42534925580039       -1.42235552560646     
  -1.41945164498925       -1.41660840428436       -1.41380726238059     
  -1.41103652904140       -1.40828855489936       -1.40555819398781     
  -1.40284193870606       -1.40013739582286       -1.39744294674114     
  -1.39475750890613       -1.39208035376104       -1.38941096252828     
  -1.38674891868205       -1.38409383957604       -1.38144533989291     
  -1.37880301148518       -1.37616640651483       -1.37353501712535     
  -1.37090824978773       -1.36828539479879       -1.36566559232999     
  -1.36304779962860       -1.36043076476929       -1.35781300842125     
  -1.35519282113049       -1.35256828795393       -1.34993735038025     
  -1.34729790911673       -1.34464796220288       -1.34198576264190     
  -1.33930996911096       -1.33661976349657       -1.33391490712135     
  -1.33119572488930       -1.32846301845694       -1.32571793651390     
  -1.32296183377783       -1.32019614074336       -1.31742225763018     
  -1.31464147908237       -1.31185494955052       -1.30906364429610     
  -1.30626836869512       -1.30346976865002       -1.30066834621559     
  -1.29786447645022       -1.29505842356456       -1.29225035598588     
  -1.28944036099472       -1.28662846025474       -1.28381462568797     
  -1.28099879315693       -1.27818087173537       -1.27536074755350     
  -1.27253827827756       -1.26971328699625       -1.26688555518233     
  -1.26405481661567       -1.26122076693333       -1.25838309059104     
  -1.25554148103026       -1.25269563874664       -1.24984527462133     
  -1.24699012938982       -1.24412999281412       -1.24126469421989     
  -1.23839409905466       -1.23551811453051       -1.23263670262787     
  -1.22974986174466       -1.22685762669642       -1.22396008299802     
  -1.22105735477496       -1.21814959134074       -1.21523696210107     
  -1.21231965403835       -1.20939786767756       -1.20647180999332     
  -1.20354168574957       -1.20060768907444       -1.19766999606675     
  -1.19472875804017       -1.19178409446244       -1.18883608645655     
  -1.18588477633532       -1.18293017891559       -1.17997229385414     
  -1.17701109658909       -1.17404659830580       -1.17107879263452     
  -1.16810767029115       -1.16513323037991       -1.16215548754838     
  -1.15917446785099       -1.15619021327212       -1.15320277414854     
  -1.15021218409262       -1.14721842230013       -1.14422138320013     
  -1.14122089193709       -1.13821680496970       -1.13520915781853     
  -1.13219813772093       -1.12918378995905       -1.12616613088356     
  -1.12314540702235       -1.12012164688716       -1.11709491613202     
  -1.11406541116717       -1.11103324773579       -1.10799845847706     
  -1.10496103758776       -1.10192098748778       -1.09887834415755     
  -1.09583316711152       -1.09278551024672       -1.08973539907164     
  -1.08668282255681       -1.08362773367174       -1.08057004421133     
  -1.07750960776143       -1.07444619784212       -1.07137950595434     
  -1.06830918124950       -1.06523494019803       -1.06215676117926     
  -1.05907506430657       -1.05599063490801       -1.05290407591731     
  -1.04981534368329       -1.04672385146734       -1.04362888517439     
  -1.04052986598577       -1.03742649281371       -1.03431885624732     
  -1.03120756572068       -1.02809378131772       -1.02497957130796     
  -1.02193796492848       -1.01861674616358       -1.01550837104723     
  -1.01239545406169       -1.00927975344688       -1.00616276530165     
  -1.00304528491004      -0.999927597770623      -0.996809648806958     
 -0.993691153759220      -0.990571626400681      -0.987450408537385     
 -0.984326877733153      -0.981200824985252      -0.978072610166559     
 -0.974942872853519      -0.971812133834595      -0.968680625986957     
 -0.965548340653916      -0.962415135929378      -0.959280819312319     
 -0.956145196040900      -0.953008100377231      -0.949869420696685     
 -0.946729118561352      -0.943587239187979      -0.940443911514427     
 -0.937299335582533      -0.934153756486310      -0.931007428038374     
 -0.927860573128792      -0.924713349428074      -0.921565827181250     
 -0.918417982199369      -0.915269703521799      -0.912120813958991     
 -0.908971104450225      -0.905820384020400      -0.902668538410444     
 -0.899515578843263      -0.896361662995935      -0.893207084003630     
 -0.890052238094508      -0.886897587561893      -0.883743631301453     
 -0.880590884807887      -0.877439861853053      -0.874291045126453     
 -0.871144836368214      -0.868001489146393      -0.864861043515213     
 -0.861723291890592      -0.858587800535422      -0.855453987181430     
 -0.852321227170657      -0.849188951499736      -0.846056713423671     
 -0.842924217361893      -0.839791311634931      -0.836657953334583     
 -0.833524164136644      -0.830389997018006      -0.827255522690822     
 -0.824120832241505      -0.820986043993004      -0.817851298243253     
 -0.814716730324828      -0.811582431203657      -0.808448415616178     
 -0.805314610882064      -0.802180869127881      -0.799047000929103     
 -0.795912826014728      -0.792778233269400      -0.789643238517828     
 -0.786508026761890      -0.783372966257785      -0.780238585124929     
 -0.777105509556136      -0.773974377778494      -0.770845757520964     
 -0.767720092804757      -0.764597690740298      -0.761478746897175     
 -0.758363400235565      -0.755251797624111      -0.752144138866643     
 -0.749040671568770      -0.745941616168739      -0.742847042116549     
 -0.739756770769296      -0.736670382735288      -0.733587328158701     
 -0.730507055078291      -0.727429076876730      -0.724352972064073     
 -0.721278358437152      -0.718204877835773      -0.715132196273960     
 -0.712060001979001      -0.708987986891990      -0.705915822608079     
 -0.702843158994237      -0.699769655600597      -0.696695029047505     
 -0.693619096731125      -0.690541808329194      -0.687463264933274     
 -0.684383732540244      -0.681303657680110      -0.678223680314908     
 -0.675144621104686      -0.672067414797618      -0.668992984353317     
 -0.665922092334093      -0.662855223636825      -0.659792524638356     
 -0.656733793325193      -0.653678521235221      -0.650626000972008     
 -0.647575494430611      -0.644526425362359      -0.641478558804344     
 -0.638432141063029      -0.635387957677816      -0.632347248789563     
 -0.629311450316962      -0.626281811963751      -0.623259042634516     
 -0.620243170318585      -0.617233693776575      -0.614229907634573     
 -0.611231195324136      -0.608237154902400      -0.605247535481806     
 -0.602262056975752      -0.599280244483764      -0.596301381475161     
 -0.593324590117827      -0.590348974972286      -0.587373765676191     
 -0.584398424637247      -0.581422686745995      -0.578446487191424     
 -0.575469789448783      -0.572492432207171      -0.569514117684193     
 -0.566534504593212      -0.563553243077513      -0.560569850943129     
 -0.557583450725769      -0.554592459103648      -0.551594373770008     
 -0.548585807694921      -0.545562881413989      -0.542521997747677     
 -0.539460789250753      -0.536378828313394      -0.533277867798361     
 -0.530161721688377      -0.527035983237462      -0.523907669285344     
 -0.520784788172728      -0.517675769924224      -0.514588691747884     
 -0.511530452222826      -0.508506318144776      -0.505520021445164     
 -0.502573979661638      -0.499669103395817      -0.496804103535046     
 -0.493974544811128      -0.491171933017310      -0.488383069523667     
 -0.485589868035375      -0.482769879803081      -0.479897828303713     
 -0.476948347415700      -0.473899620175775      -0.470736709608239     
 -0.467453071093645      -0.464049797778117      -0.460533452445745     
 -0.456913769111557      -0.453202335518799      -0.449412798499184     
 -0.445562165191606      -0.441672501282693      -0.437773507278174     
 -0.433906694896837      -0.430129398072948      -0.426515151522325     
 -0.423149016214645      -0.420119179330037      -0.417506105801744     
 -0.415369317922308      -0.413732948215433      -0.412573737454436     
 -0.411815047676805      -0.411327545691706      -0.410935437245217     
 -0.410428103054189      -0.409578968580403      -0.408172881596071     
 -0.406039527547611      -0.403078925541749      -0.399257691639483     
 -0.394580576665378      -0.389067201171132      -0.382754651448215     
 -0.375718291955436      -0.368092211900745      -0.360081291061277     
 -0.351954302180048      -0.343994826017843      -0.336413520100340     
 -0.329286792439690      -0.322576498105986      -0.316208887813051     
 -0.310154213631992       -1.42671277154348       -1.42476095580039     
  -1.42102601030815       -1.41761586603749       -1.41437939106060     
  -1.41124070932397       -1.40816213442362       -1.40512298238079     
  -1.40211097897260       -1.39911841954775       -1.39614029648992     
  -1.39317330721394       -1.39021528318021       -1.38726482673339     
  -1.38432104961148       -1.38138336708516       -1.37845134376175     
  -1.37552459830741       -1.37260275403778       -1.36968540913213     
  -1.36677210893579       -1.36386231420165       -1.36095536420644     
  -1.35805043687940       -1.35514651187317       -1.35224234138000     
  -1.34933642916752       -1.34642702497963       -1.34351214756661     
  -1.34058964843840       -1.33765732179359       -1.33471305587877     
  -1.33175500924245       -1.32878178491404       -1.32579257214418     
  -1.32278722037870       -1.31976622374585       -1.31673061610128     
  -1.31368181308257       -1.31062144300848       -1.30755119491850     
  -1.30447269944609       -1.30138744873184       -1.29829675332218     
  -1.29520172836658       -1.29210329946141       -1.28900221919203     
  -1.28589908720895       -1.28279436892777       -1.27968841030132     
  -1.27658144860875       -1.27347362177345       -1.27036498085915     
  -1.26725551000619       -1.26414515624912       -1.26103386481310     
  -1.25792160719004       -1.25480838486304       -1.25169420531852     
  -1.24857903357994       -1.24546274949186       -1.24234515028924     
  -1.23922599100158       -1.23610501679129       -1.23298197150133     
  -1.22985661694157       -1.22672876574526       -1.22359830718372     
  -1.22046520880998       -1.21732951327724       -1.21419130785680     
  -1.21105068947906       -1.20790774585001       -1.20476257717388     
  -1.20161531996972       -1.19846614131996       -1.19531523221716     
  -1.19216280815110       -1.18900910851492       -1.18585439141989     
  -1.18269892498870       -1.17954297767762       -1.17638680906316     
  -1.17323066123383       -1.17007474922168       -1.16691924884067     
  -1.16376428545626       -1.16060993246226       -1.15745622458016     
  -1.15430317811680       -1.15115079555020       -1.14799911932588     
  -1.14484819556122       -1.14169809089732       -1.13854890611996     
  -1.13540077447751       -1.13225385208032       -1.12910832247878     
  -1.12596438736822       -1.12282223495804       -1.11968198045618     
  -1.11654359649657       -1.11340691122842       -1.11027177506954     
  -1.10713835076444       -1.10400711337214       -1.10087835625381     
  -1.09775212879657       -1.09462871845417       -1.09150822755346     
  -1.08839090481029       -1.08527704823021       -1.08216681767296     
  -1.07906028707310       -1.07595752110247       -1.07285862404584     
  -1.06976374301423       -1.06667303110402       -1.06358660680310     
  -1.06050453722840       -1.05742684526921       -1.05435352187528     
  -1.05128451572159       -1.04821970783923       -1.04515889396957     
  -1.04210180824109       -1.03904820384676       -1.03599799314762     
  -1.03295143756504       -1.02990922296958       -1.02687209560608     
  -1.02384021275902       -1.02081305429490       -1.01778977139449     
  -1.01476942667572       -1.01175110378230       -1.00873405613888     
  -1.00571755417510       -1.00269994668770      -0.999677698944892     
 -0.996644753650384      -0.993648775891505      -0.990451963024401     
 -0.987408122680735      -0.984357139188372      -0.981302491963560     
 -0.978246828833136      -0.975191599898692      -0.972137441853563     
 -0.969084465608115      -0.966032443837452      -0.962980972020026     
 -0.959929665658903      -0.956878393280526      -0.953827460993338     
 -0.950777519437647      -0.947729156165763      -0.944682620464472     
 -0.941637870379868      -0.938594715498448      -0.935552907291086     
 -0.932512177222972      -0.929472258394009      -0.926432911559397     
 -0.923393953877718      -0.920355281890621      -0.917316889453932     
 -0.914278884155538      -0.911241495872864      -0.908205062092854     
 -0.905169974829132      -0.902136593590487      -0.899105158361378     
 -0.896075740896308      -0.893048243802393      -0.890022429532106     
 -0.886997964132930      -0.883974480244536      -0.880951667800502     
 -0.877929375609243      -0.874907680434829      -0.871886890749652     
 -0.868867491182982      -0.865850061744842      -0.862835208176471     
 -0.859823525222699      -0.856815593064351      -0.853811985479258     
 -0.850813255410480      -0.847819870778068      -0.844832102133145     
 -0.841849895298621      -0.838872783185956      -0.835899901622723     
 -0.832930143746753      -0.829962402427356      -0.826995790079491     
 -0.824029753827543      -0.821064069054297      -0.818098737037327     
 -0.815133843737405      -0.812169452729469      -0.809205570970585     
 -0.806242178590574      -0.803279294773916      -0.800317039458417     
 -0.797355641788761      -0.794395373415600      -0.791436442346694     
 -0.788478907502434      -0.785522644098580      -0.782567360594883     
 -0.779612664624693      -0.776658170847205      -0.773703626988720     
 -0.770749021510232      -0.767794641092562      -0.764841064114335     
 -0.761889088902348      -0.758939599938954      -0.755993393665110     
 -0.753051018708475      -0.750112694744297      -0.747178343648020     
 -0.744247721991863      -0.741320610532007      -0.738396999778730     
 -0.735477209349782      -0.732561875467773      -0.729651746828642     
 -0.726747322848413      -0.723848537269476      -0.720954730945188     
 -0.718064927974045      -0.715178152388275      -0.712293552563423     
 -0.709410359864097      -0.706527837902505      -0.703645300340567     
 -0.700762163617912      -0.697877971698129      -0.694992374628025     
 -0.692105099517363      -0.689215951664735      -0.686324833747990     
 -0.683431755740219      -0.680536837565654      -0.677640314623112     
 -0.674742538724910      -0.671843966626514      -0.668945146750105     
 -0.666046725028797      -0.663149461898353      -0.660254199170187     
 -0.657361722448272      -0.654472548582565      -0.651586722990808     
 -0.648703686623816      -0.645822239878078      -0.642940638872445     
 -0.640056873790402      -0.637169131223832      -0.634276311440395     
 -0.631378404836193      -0.628476612258649      -0.625573184191605     
 -0.622671003659794      -0.619772998045289      -0.616881507883534     
 -0.613997781329461      -0.611121833001896      -0.608252790323349     
 -0.605389494426392      -0.602530956970589      -0.599676470815332     
 -0.596825431523536      -0.593977062021847      -0.591130247258621     
 -0.588283588421523      -0.585435629601479      -0.582585110376693     
 -0.579731118569211      -0.576873096827158      -0.574010702420967     
 -0.571143549787427      -0.568270974156112      -0.565392040022035     
 -0.562505835663433      -0.559611767654805      -0.556709523522152     
 -0.553798642815495      -0.550877892830276      -0.547944750736427     
 -0.544995281989996      -0.542024614299489      -0.539028069817154     
 -0.536002711737853      -0.532948687983321      -0.529869852613790     
 -0.526773679077362      -0.523670699339599      -0.520573544435086     
 -0.517495563590445      -0.514449046390355      -0.511443281982447     
 -0.508483028180939      -0.505568104543880      -0.502694418334576     
 -0.499855749167701      -0.497044843776105      -0.494252991687997     
 -0.491468603514724      -0.488675708731379      -0.485852871412430     
 -0.482972666753795      -0.480001962542409      -0.476903805172926     
 -0.473641957138843      -0.470187907903384      -0.466527631989812     
 -0.462664368457160      -0.458616257755622      -0.454411058474914     
 -0.450081329268326      -0.445662439941641      -0.441193113368777     
 -0.436715935080053      -0.432276634769464      -0.427923773568223     
 -0.423709972866542      -0.419693803525503      -0.415941727083325     
 -0.412529873742263      -0.409543737272605      -0.407072833574902     
 -0.405198555277435      -0.403975414479089      -0.403408300853711     
 -0.403430841306513      -0.403891955164699      -0.404558561798369     
 -0.405135793656803      -0.405294668745824      -0.404700730211249     