 Title = "Wing and Wake"
 VARIABLES = "X" "Y" "Z" "GAM"
 Zone I=    9 J=   15 K=1  T="Blade"
 DATAPACKING=BLOCK
 VARLOCATION=([4]=CELLCENTERED)
 -0.658188374308700      -0.658228274308700      -0.658337074308700     
 -0.657536274308700      -0.655243774308700      -0.652024074308700     
 -0.649245174308700      -0.647494574308700      -0.646574774308700     
 -0.658776674308700      -0.658798974308700      -0.658861574308700     
 -0.657928674308700      -0.655394874308700      -0.651886574308700     
 -0.648874174308700      -0.646980574308700      -0.645986474308700     
 -0.658787574308700      -0.658753274308700      -0.658666374308700     
 -0.657598274308700      -0.655035974308700      -0.651620174308700     
 -0.648728574308700      -0.646921674308700      -0.645975574308700     
 -0.658555174308700      -0.658451574308700      -0.658181174308700     
 -0.656985074308700      -0.654485874308700      -0.651316674308700     
 -0.648686974308700      -0.647057874308700      -0.646207974308700     
 -0.658082074308700      -0.658018474308700      -0.657853574308700     
 -0.656824774308700      -0.654530674308700      -0.651548674308700     
 -0.649049174308700      -0.647493974308700      -0.646681074308700     
 -0.657540674308700      -0.657508274308700      -0.657425474308700     
 -0.656553774308700      -0.654488174308700      -0.651745574308700     
 -0.649427574308700      -0.647980174308700      -0.647222474308700     
 -0.656967374308700      -0.656959274308700      -0.656940574308700     
 -0.656214774308700      -0.654387574308700      -0.651913674308700     
 -0.649807074308700      -0.648487474308700      -0.647795774308700     
 -0.656412274308700      -0.656422174308700      -0.656450874308700     
 -0.655853174308700      -0.654254374308700      -0.652050274308700     
 -0.650160774308700      -0.648973874308700      -0.648350874308700     
 -0.655927174308700      -0.655947774308700      -0.656004574308700     
 -0.655507074308700      -0.654105774308700      -0.652146174308700     
 -0.650457574308700      -0.649394474308700      -0.648835974308700     
 -0.655505174308700      -0.655530774308700      -0.655600174308700     
 -0.655179174308700      -0.653947674308700      -0.652208574308700     
 -0.650704574308700      -0.649756374308700      -0.649257974308700     
 -0.655130374308700      -0.655156474308700      -0.655227274308700     
 -0.654865274308700      -0.653783174308700      -0.652246474308700     
 -0.650914774308700      -0.650074574308700      -0.649632774308700     
 -0.654796374308700      -0.654819574308700      -0.654882374308700     
 -0.654564974308700      -0.653614374308700      -0.652263974308700     
 -0.651093574308700      -0.650355074308700      -0.649966774308700     
 -0.654466974308700      -0.654486474308700      -0.654539274308700     
 -0.654263874308700      -0.653442774308700      -0.652277474308700     
 -0.651267974308700      -0.650631074308700      -0.650296174308700     
 -0.654210674308700      -0.654221274308700      -0.654250374308700     
 -0.653993574308700      -0.653270674308700      -0.652259874308700     
 -0.651388874308700      -0.650840574308700      -0.650552474308700     
 -0.654007874308700      -0.654006374308700      -0.654003574308700     
 -0.653749474308700      -0.653102074308700      -0.652222274308700     
 -0.651472074308700      -0.651001874308700      -0.650755274308700     
  0.315736537422211       0.316353292133706       0.317979609064973     
  0.320497729525920       0.323499933335722       0.326166023504419     
  0.327987040802661       0.329009137380824       0.329518289446456     
  0.300864509808720       0.301620363758951       0.303613069627740     
  0.306823858016885       0.310825082329662       0.314531652802158     
  0.317138349395720       0.318626145597101       0.319373450472122     
  0.286375788772569       0.287229732112037       0.289480581484877     
  0.293228161806871       0.298058582136143       0.302668976266620     
  0.305975025779521       0.307882369453744       0.308845458129337     
  0.272218605259810       0.273152189984119       0.275612716675238     
  0.279802534872697       0.285322473470880       0.290688850109109     
  0.294581571873371       0.296841355993985       0.297985775054271     
  0.258693217688612       0.259687995793364       0.262309669338231     
  0.266800633530828       0.272750982712457       0.278562682606677     
  0.282790489551868       0.285248573650071       0.286494296037643     
  0.245667983156512       0.246690015455914       0.249383231261739     
  0.254018051321384       0.260185469878804       0.266230244560297     
  0.270637067854786       0.273201983253718       0.274502663981919     
  0.233014934976103       0.234039217032139       0.236738475041496     
  0.241401063525879       0.247626975755781       0.253746249521235     
  0.258214973262537       0.260818327360529       0.262138998783391     
  0.220605105301517       0.221616017375271       0.224279793508573     
  0.228895394218688       0.235076375594673       0.241165566899994     
  0.245618413787337       0.248214504385339       0.249531961870152     
  0.208347744847947       0.209335966519080       0.211939963404681     
  0.216463324092806       0.222534903017622       0.228527290508925     
  0.232914251666274       0.235473381976720       0.236772455735896     
  0.196219468472087       0.197177222010520       0.199700934723672     
  0.204093809527030       0.210001284775094       0.215840367421486     
  0.220119018866603       0.222616120172713       0.223884018732820     
  0.184218323159739       0.185137766556635       0.187560368778782     
  0.191784576113359       0.197474017804217       0.203104580150027     
  0.207233462082088       0.209644108454695       0.210868297457343     
  0.172351520457816       0.173224104637965       0.175523420196575     
  0.179538271606677       0.184952664479350       0.190316534245901     
  0.194252194222490       0.196550802714729       0.197718233571441     
  0.160633458808774       0.161449541958032       0.163599923627477     
  0.167359588356533       0.172435682110228       0.177468966209117     
  0.181164159340923       0.183322832970533       0.184419428632658     
  0.149089733485162       0.149838259656642       0.151810524879443     
  0.155261908670895       0.159925718451736       0.164553146453869     
  0.167951693103803       0.169937585423930       0.170946440577333     
  0.137716334552434       0.138386183520489       0.140151342575449     
  0.143242186796626       0.147421206162242       0.151569628837637     
  0.154617149173922       0.156398185082842       0.157302972922237     
 -4.076818961454599E-002 -4.150320925771901E-002 -4.344137830325382E-002
 -4.644235740917252E-002 -5.002024458520372E-002 -5.319756712192840E-002
 -5.536777102928463E-002 -5.658585829828836E-002 -5.719264210168273E-002
 -4.844718935628076E-002 -4.934798101694410E-002 -5.172279539505768E-002
 -5.554926399288110E-002 -6.031773744240860E-002 -6.473505611920941E-002
 -6.784159614938975E-002 -6.961468261743287E-002 -7.050528588700311E-002
 -5.658284051624201E-002 -5.760053055892597E-002 -6.028298838539551E-002
 -6.474918069766794E-002 -7.050585147881822E-002 -7.600030524708927E-002
 -7.994030163138285E-002 -8.221338530744983E-002 -8.336114969657502E-002
 -6.511375828316948E-002 -6.622636123235587E-002 -6.915870275617085E-002
 -7.415193364530870E-002 -8.073034030059321E-002 -8.712573893841624E-002
 -9.176490408594452E-002 -9.445800993017366E-002 -9.582187545670276E-002
 -7.439762113323878E-002 -7.558315151340979E-002 -7.870754037911466E-002
 -8.405966308985413E-002 -9.115101310425094E-002 -9.807712733226695E-002
 -0.103115631447993      -0.106045062002924      -0.107529656133689     
 -8.427754316449833E-002 -8.549555382905777E-002 -8.870520344128192E-002
 -9.422876689839174E-002 -0.101578810121229      -0.108782692064320     
 -0.114034539557456      -0.117091286698833      -0.118641377629484     
 -9.460086404511926E-002 -9.582155586522928E-002 -9.903840629521900E-002
 -0.104595062872271      -0.112014816139432      -0.119307482633481     
 -0.124633100206489      -0.127735656805565      -0.129309571718397     
 -0.105214197026222      -0.106418955121915      -0.109593519898644     
 -0.115094178626904      -0.122460385387492      -0.129717201001602     
 -0.135023897276865      -0.138117797573734      -0.139687882264350     
 -0.116009235749232      -0.117186952476082      -0.120290275119602     
 -0.125681006470274      -0.132916832466643      -0.140058281787620     
 -0.145286458507462      -0.148336311248852      -0.149884487068396     
 -0.126957955313214      -0.128099361533462      -0.131107005226035     
 -0.136342229554755      -0.143382484404795      -0.150341232126088     
 -0.155440330357266      -0.158416259809894      -0.159927282473946     
 -0.138058339351252      -0.139154089322689      -0.142041234224360     
 -0.147075448491205      -0.153855861066140      -0.160566103970085     
 -0.165486713846015      -0.168359610321044      -0.169818541962964     
 -0.149318826677900      -0.150358732009434      -0.153098949586915     
 -0.157883663178637      -0.164336285336361      -0.170728696400855     
 -0.175419033317184      -0.178158408245777      -0.179549698163370     
 -0.160756576688687      -0.161729146713671      -0.164291871793681     
 -0.168772465741484      -0.174821918708794      -0.180820353116194     
 -0.185224112806351      -0.187796719859678      -0.189103591679639     
 -0.172401937069242      -0.173293995823254      -0.175644449988076     
 -0.179757649020959      -0.185315761082453      -0.190830515028467     
 -0.194880745208126      -0.197247439515143      -0.198449746268617     
 -0.184250440110429      -0.185048735024604      -0.187152369669853     
 -0.190835894374590      -0.195816255717084      -0.200760153344085     
 -0.204392046653357      -0.206514602596351      -0.207592886754485     
  1.989253554408260E-002  7.696013574644307E-002  0.258306491662657     
  0.537529354548039       0.805886736044999       0.977225262906573     
   1.05379424805361        1.07559611721363       3.677112608352646E-002
  0.116810207009572       0.341336401066994       0.674811564883087     
  0.987107739379425        1.17493366003684        1.25381272270857     
   1.27613853011917       4.652620001009013E-002  0.134698323735819     
  0.363283104252323       0.693241957444402       0.997600130303246     
   1.17730201711581        1.25115446976803        1.27208482781819     
  4.193653628238245E-002  0.124059135519953       0.347259472005370     
  0.674112032399988       0.977034180353679        1.15481020258204     
   1.22705383370976        1.24746403857992       2.352929127164392E-002
  8.913853359025133E-002  0.309022820003205       0.643256550604945     
  0.957061667182225        1.14300091418131        1.21968558216537     
   1.24169511803463       7.601742606772453E-003  5.809959034393722E-002
  0.271620029800646       0.608041604251969       0.928192608890004     
   1.11913336932594        1.19830384353594        1.22115356263359     
 -5.852808388736657E-003  3.121588379307504E-002  0.235951142970164     
  0.568779444151320       0.888965841748501        1.08067225455109     
   1.16029563094659        1.18333437237387      -1.652719304487347E-002
  9.291994744178326E-003  0.203926805242645       0.528717846895678     
  0.843693262082815        1.03265556775857        1.11115343675285     
   1.13388708456114      -2.358796597325567E-002 -5.974960465506120E-003
  0.178243166370916       0.491676537245821       0.797361221790455     
  0.981049393961827        1.05741492699823        1.07955001539917     
 -2.686328886800701E-002 -1.424375106767570E-002  0.159610401433459     
  0.458814188152075       0.751619010009461       0.927817940789010     
   1.00113427463066        1.02241638704796      -2.651472934304602E-002
 -1.584652892092975E-002  0.147575091956689       0.429743647785797     
  0.706250764988119       0.872896883048733       0.942363097838069     
  0.962568608482698      -2.362974909380394E-002 -1.296373349199979E-002
  0.138926260392688       0.400603056911982       0.657427668351535     
  0.812893458661493       0.878043273066192       0.897064012459597     
 -1.936288764370958E-002 -8.232196133880312E-003  0.129050538738277     
  0.364225189149680       0.596338543674938       0.739315472513421     
  0.800560606900261       0.818714151694444      -1.822860488669668E-002
 -1.236964112545680E-002  9.719740597539631E-002  0.283735015296234     
  0.469908061914450       0.592755805470190       0.650986068671446     
  0.669367328644633     
 Zone I=  101 J=   15 K=1  T="NearWake"
 DATAPACKING=BLOCK
 VARLOCATION=([4]=CELLCENTERED)
 -0.646574774308700      -0.644622958565613      -0.641886766284871     
 -0.639229039877539      -0.636643957917635      -0.634112662826081     
 -0.631623106087196      -0.629167481004620      -0.626740635244031     
 -0.624339142505760      -0.621960736843183      -0.619603941232467     
 -0.617267774608267      -0.614951479685803      -0.612654295049781     
 -0.610375315200638      -0.608113421252188      -0.605867233941920     
 -0.603635070137992      -0.601414908681079      -0.599204374439922     
 -0.597000747791398      -0.594801005663089      -0.592601899473019     
 -0.590400071939190      -0.588192206713228      -0.585975200902670     
 -0.583746347435515      -0.581503509861461      -0.579245275749961     
 -0.576971075606606      -0.574681243714127      -0.572376989768575     
 -0.570060268861243      -0.567733596076872      -0.565399891955187     
 -0.563062396229253      -0.560724606548055      -0.558390176983615     
 -0.556062751212365      -0.553745766707417      -0.551442297908878     
 -0.549154985466146      -0.546886040598401      -0.544637257034180     
 -0.542409959873629      -0.540204878427980      -0.538021983435062     
 -0.535860331709537      -0.533717934275313      -0.531591645461743     
 -0.529477092169151      -0.527368752463558      -0.525260438448194     
 -0.523146582082948      -0.521024762769869      -0.518899636693455     
 -0.516787595935234      -0.514720367353500      -0.512745434018506     
 -0.510922258826772      -0.509314590393439      -0.507979445316904     
 -0.506953499725306      -0.506238655864637      -0.505790663505430     
 -0.505517053791727      -0.505289866986198      -0.504971496339980     
 -0.504443388489112      -0.503626091311780      -0.502485501436238     
 -0.501027179759745      -0.499283708441134      -0.497300105990748     
 -0.495121115632539      -0.492782761452091      -0.490309394465951     
 -0.487715755975035      -0.485011184662102      -0.482202589346887     
 -0.479295321800538      -0.476293256577260      -0.473199081188841     
 -0.470014628955561      -0.466740782241483      -0.463377232735711     
 -0.459923331375977      -0.456381201870204      -0.452760888926363     
 -0.449086133083985      -0.445401476877694      -0.441787680646113     
 -0.438397560064807      -0.435514178232879      -0.433588606262274     
 -0.433159635912571      -0.434602280175374      -0.437819018406221     
 -0.442057493462452      -0.446058607362017      -0.645986474308700     
 -0.644034658565613      -0.640366307422760      -0.637056744069389     
 -0.633932010507302      -0.630915954893178      -0.627970632220420     
 -0.625075234381021      -0.622217465595372      -0.619389715005705     
 -0.616587204729939      -0.613806986695578      -0.611047304309013     
 -0.608307110109162      -0.605585646195092      -0.602882096296709     
 -0.600195383454830      -0.597524080837593      -0.594866342092599     
 -0.592219837655337      -0.589581722890670      -0.586948658179970     
 -0.584316899622268      -0.581682476224386      -0.579041450195573     
 -0.576390227511450      -0.573725876042627      -0.571046414279910     
 -0.568351050701643      -0.565640368570120      -0.562916403150518     
 -0.560182425001234      -0.557442226696213      -0.554699195704351     
 -0.551955856217873      -0.549214016295405      -0.546475201613828     
 -0.543741141543182      -0.541014101342010      -0.538296882303105     
 -0.535592486396630      -0.532903670720859      -0.530232729390181     
 -0.527581628179631      -0.524952165152107      -0.522345727251768     
 -0.519762667112000      -0.517201680436018      -0.514659473493949     
 -0.512130794799775      -0.509608784733548      -0.507085598018816     
 -0.504553385191106      -0.502005913972637      -0.499441176237205     
 -0.496865049286704      -0.494295505606003      -0.491766397902057     
 -0.489329792448830      -0.487056263344919      -0.485033460207099     
 -0.483362370443300      -0.482146340901091      -0.481465996776241     
 -0.481340341343853      -0.481688447800956      -0.482317662407400     
 -0.482957698899558      -0.483331192451921      -0.483226923677385     
 -0.482543020276297      -0.481286428989811      -0.479539122270895     
 -0.477414943872596      -0.475025026778093      -0.472456883358879     
 -0.469766293301478      -0.466981177562858      -0.464113575955093     
 -0.461170444658513      -0.458156999284507      -0.455075205144677     
 -0.451922851074225      -0.448694913480698      -0.445385407984420     
 -0.441987341435836      -0.438490703241066      -0.434881529117665     
 -0.431144996978575      -0.427271419983355      -0.423262248375192     
 -0.419140860204481      -0.414981954980150      -0.410976715227308     
 -0.407544992075855      -0.405398586449490      -0.405213207945468     
 -0.406987240386570      -0.410015021575823      -0.413513038933951     
 -0.417621506583183      -0.645975574308700      -0.644023758565613     
 -0.640175271941048      -0.636634172128733      -0.633254897439072     
 -0.629975923983777      -0.626765020424417      -0.623603165957586     
 -0.620478279357256      -0.617382367716586      -0.614310068385424     
 -0.611257806492999      -0.608223253798472      -0.605204947443344     
 -0.602201965537393      -0.599213567569522      -0.596238846714289     
 -0.593276557031087      -0.590325053312187      -0.587382236382794     
 -0.584445531123129      -0.581511941915599      -0.578578210262620     
 -0.575641065516340      -0.572697517998508      -0.569745121109572     
 -0.566782162915466      -0.563807804415166      -0.560822223866944     
 -0.557826834714328      -0.554824452840714      -0.551818704643025     
 -0.548812312365382      -0.545805985615265      -0.542798845014322     
 -0.539789330913036      -0.536776255930280      -0.533759831078768     
 -0.530742045556644      -0.527726145028222      -0.524715620888429     
 -0.521713289808106      -0.518721043830360      -0.515740517963692     
 -0.512773805701352      -0.509823127187929      -0.506889707877070     
 -0.503972819468493      -0.501069479235031      -0.498174821177458     
 -0.495282989101841      -0.492388366981401      -0.489487013602523     
 -0.486578336111015      -0.483667080469130      -0.480765454724105     
 -0.477894749580176      -0.475085716737835      -0.472378512500372     
 -0.469825796484126      -0.467501723621121      -0.465512602960414     
 -0.463995964206106      -0.463091798266590      -0.462880481438633     
 -0.463305801612358      -0.464128721945169      -0.464961288220131     
 -0.465386660384047      -0.465105933809530      -0.464019369229236     
 -0.462201694847980      -0.459820907368685      -0.457062560395881     
 -0.454082851423032      -0.450989296963777      -0.447840102625028     
 -0.444656518759909      -0.441441329172884      -0.438192696569589     
 -0.434908113146432      -0.431582571434164      -0.428207964777967     
 -0.424776089039519      -0.421282691158623      -0.417728973041673     
 -0.414120888218521      -0.410467777923611      -0.406774667122208     
 -0.403029726898051      -0.399202678641433      -0.395258494424678     
 -0.391184401355305      -0.387044824860296      -0.383101586706303     
 -0.380028673954037      -0.379024335076729      -0.381238046529867     
 -0.386676263989466      -0.394092363990861      -0.401685151760909     
 -0.646207974308700      -0.644256158565613      -0.640442932907306     
 -0.636877292370504      -0.633441225544065      -0.630085691758879     
 -0.626785253034540      -0.623525084143464      -0.620295797238406     
 -0.617090991517653      -0.613906044954069      -0.610737578550369     
 -0.607583199471002      -0.604441304543322      -0.601310898949962     
 -0.598191375886862      -0.595082175891614      -0.591982499393468     
 -0.588891264629763      -0.585807113456957      -0.582728427131666     
 -0.579653422960414      -0.576580327070143      -0.573507550798309     
 -0.570433786688100      -0.567358013989693      -0.564279487700654     
 -0.561197746380523      -0.558112648421095      -0.555024611659757     
 -0.551934934526684      -0.548844689523871      -0.545752438135338     
 -0.542654324496505      -0.539545711370217      -0.536422430533770     
 -0.533282210077773      -0.530125899805824      -0.526957136843939     
 -0.523780904386590      -0.520602149991243      -0.517424561572996     
 -0.514250214748861      -0.511080708766061      -0.507918372082205     
 -0.504765948869688      -0.501625349655304      -0.498496939019720     
 -0.495379655806104      -0.492271872623521      -0.489172571902878     
 -0.486082315461443      -0.483003893672713      -0.479942957997388     
 -0.476908790125645      -0.473914652432690      -0.470976766966682     
 -0.468112419673449      -0.465340868531809      -0.462691630971637     
 -0.460221347045580      -0.458033361624124      -0.456283812384542     
 -0.455151180781703      -0.454757348735657      -0.455062188742519     
 -0.455795789696234      -0.456497981874557      -0.456674962978131     
 -0.455996932010919      -0.454402975411885      -0.452050610450850     
 -0.449186520294403      -0.446037229956978      -0.442762493140077     
 -0.439454274048560      -0.436150974888027      -0.432856343854097     
 -0.429559266128864      -0.426247320336027      -0.422911551849569     
 -0.419545760409334      -0.416146887423258      -0.412718335774619     
 -0.409269685544416      -0.405811280631617      -0.402350416826117     
 -0.398881994460143      -0.395374073652533      -0.391770727352245     
 -0.388008950571531      -0.384038789892248      -0.379855127906222     
 -0.375539697356498      -0.371299414443308      -0.367614064176317     
 -0.365825653384372      -0.368349018491377      -0.375765614875648     
 -0.385384072715141      -0.394439718364331      -0.646681074308700     
 -0.644729258565613      -0.640968492530635      -0.637434465177791     
 -0.634015409375556      -0.630665785184769      -0.627362413224999     
 -0.624092090103755      -0.620846757086488      -0.617621220635833     
 -0.614411898826971      -0.611216089176337      -0.608031679688387     
 -0.604857142171218      -0.601691510794978      -0.598534286776464     
 -0.595385236374903      -0.592244069345524      -0.589110331791042     
 -0.585983486684562      -0.582862977543727      -0.579748330001460     
 -0.576639259489460      -0.573535673041184      -0.570437539876109     
 -0.567344778274317      -0.564257239659241      -0.561174586808815     
 -0.558095980585350      -0.555020137125764      -0.551945906466627     
 -0.548870847891377      -0.545788873539077      -0.542691864226594     
 -0.539572410366536      -0.536425444988641      -0.533249353153559     
 -0.530046072321502      -0.526820240231294      -0.523578349999056     
 -0.520327346372038      -0.517072611968474      -0.513817102642909     
 -0.510562533590052      -0.507310952113786      -0.504064735043768     
 -0.500825729044106      -0.497595018706316      -0.494373698321765     
 -0.491163881215757      -0.487968986673370      -0.484793399190280     
 -0.481642507809475      -0.478523483625671      -0.475445960481251     
 -0.472421435690180      -0.469460956015140      -0.466573352253837     
 -0.463768069948349      -0.461065232730327      -0.458514837473994     
 -0.456223544807045      -0.454371573504836      -0.453183438465312     
 -0.452824513281560      -0.453247855413126      -0.454091144434290     
 -0.454746605641433      -0.454627081227260      -0.453463373800204     
 -0.451362931922654      -0.448619543182338      -0.445516766552437     
 -0.442248632121455      -0.438927188486461      -0.435610130902759     
 -0.432318566969874      -0.429049079389299      -0.425786977224539     
 -0.422516893813241      -0.419228138758903      -0.415916188642983     
 -0.412584059973458      -0.409241484227703      -0.405895457569732     
 -0.402545856383404      -0.399184917447518      -0.395786216430326     
 -0.392303490074087      -0.388688404846990      -0.384902927440943     
 -0.380928931476174      -0.376776296232494      -0.372485622943433     
 -0.368144806123142      -0.363966187955948      -0.360866404771066     
 -0.362124091214621      -0.370470140599349      -0.381702901518914     
 -0.391792806922739      -0.647222474308700      -0.645270658565613     
 -0.641553924164693      -0.638060675175515      -0.634676355280805     
 -0.631355812714016      -0.628076564021196      -0.624825967605425     
 -0.621596412771171      -0.618383139366623      -0.615183083739801     
 -0.611994170895324      -0.608814828199234      -0.605643789078166     
 -0.602480193444256      -0.599323641488696      -0.596174116616989     
 -0.593031742257211      -0.589896572904190      -0.586768699644751     
 -0.583648370767000      -0.580536076495545      -0.577432561085453     
 -0.574338661474858      -0.571255089791817      -0.568182414201656     
 -0.565121119637114      -0.562071249881504      -0.559031549496655     
 -0.555999158689380      -0.552970585871969      -0.549940338398597     
 -0.546898532724037      -0.543833581727920      -0.540736047295312     
 -0.537601258020503      -0.534429164380109      -0.531222196991946     
 -0.527985034508186      -0.524725103548697      -0.521451169877580     
 -0.518170528147072      -0.514887400838490      -0.511603708318214     
 -0.508320770261424      -0.505040080835804      -0.501763014991373     
 -0.498491331587726      -0.495228363328890      -0.491978902304761     
 -0.488747846038926      -0.485539708140723      -0.482359645614311     
 -0.479214662164084      -0.476113905943628      -0.473067333753141     
 -0.470083236138438      -0.467167859095117      -0.464329340562633     
 -0.461586142687540      -0.458984559076149      -0.456631528260327     
 -0.454729385209426      -0.453557014516122      -0.453333157074344     
 -0.453986641271533      -0.455006088975535      -0.455593292971616     
 -0.455119466979702      -0.453482229891298      -0.450990922926856     
 -0.448025113915280      -0.444845337614680      -0.441586672635390     
 -0.438312171048687      -0.435051199021093      -0.431815068023033     
 -0.428600696141336      -0.425396110624106      -0.422187590352550     
 -0.418965006567931      -0.415725961311766      -0.412476819870942     
 -0.409224992933953      -0.405967840172801      -0.402695792426669     
 -0.399392805380066      -0.396030006702432      -0.392576131542980     
 -0.389007088451158      -0.385307041356213      -0.381462840933568     
 -0.377450244010205      -0.373246348909452      -0.368875941522713     
 -0.364439522966737      -0.360366864427536      -0.359546526716762     
 -0.367648180921459      -0.380318955692987      -0.391506167712901     
 -0.647795774308700      -0.645843958565613      -0.642180378403823     
 -0.638735359301198      -0.635393942048791      -0.632111860788414     
 -0.628867423473148      -0.625648516019272      -0.622447872509115     
 -0.619260988116193      -0.616085024651451      -0.612918184956557     
 -0.609759296954357      -0.606607486848265      -0.603462078407767     
 -0.600322759819389      -0.597189639471551      -0.594063108058723     
 -0.590943590544156      -0.587831590510962      -0.584727865804442     
 -0.581633495975534      -0.578549789552074      -0.575478002956421     
 -0.572419184327051      -0.569374375179975      -0.566344753686041     
 -0.563331054028101      -0.560332168276529      -0.557344254505662     
 -0.554361979002244      -0.551377652694615      -0.548378741543261     
 -0.545351026721194      -0.542283565342770      -0.539172343732470     
 -0.536018410240646      -0.532824698277132      -0.529596179770801     
 -0.526340561438258      -0.523067563180607      -0.519786129948802     
 -0.516501938340283      -0.513217354634176      -0.509932889468453     
 -0.506648968369975      -0.503366415952818      -0.500087870198421     
 -0.496818451657295      -0.493563694097552      -0.490327819809542     
 -0.487114545508429      -0.483928655421750      -0.480776940077970     
 -0.477668097910486      -0.474611117854858      -0.471613310909134     
 -0.468681385577812      -0.465825405965530      -0.463064401940179     
 -0.460439647395156      -0.458051727376148      -0.456120029614068     
 -0.454985684990366      -0.454934885145236      -0.455860280879539     
 -0.457057211294693      -0.457533821970260      -0.456708406678017     
 -0.454707265796681      -0.451992166217620      -0.448952390165261     
 -0.445797344837138      -0.442612402142717      -0.439427299068340     
 -0.436252903141622      -0.433094111312064      -0.429950210110141     
 -0.426814201028266      -0.423676265357077      -0.420528036704036     
 -0.417368700688363      -0.414205089856933      -0.411039294542303     
 -0.407861760630353      -0.404659438693595      -0.401416938999659     
 -0.398115161082188      -0.394737525007886      -0.391271631526523     
 -0.387706126091381      -0.384016069148640      -0.380154195355127     
 -0.376067293723441      -0.371743670266629      -0.367249734779575     
 -0.362732114107551      -0.359935913217798      -0.366378154110609     