 Title = "Wing and Wake"
 VARIABLES = "X" "Y" "Z" "GAM"
 Zone I=    9 J=   15 K=1  T="Blade"
 DATAPACKING=BLOCK
 VARLOCATION=([4]=CELLCENTERED)
  -1.24373309723479       -1.24377299723479       -1.24388179723479     
  -1.24308099723479       -1.24078849723479       -1.23756879723479     
  -1.23478989723479       -1.23303929723479       -1.23211949723479     
  -1.24432139723479       -1.24434369723479       -1.24440629723479     
  -1.24347339723479       -1.24093959723479       -1.23743129723479     
  -1.23441889723479       -1.23252529723479       -1.23153119723479     
  -1.24433229723479       -1.24429799723479       -1.24421109723479     
  -1.24314299723479       -1.24058069723479       -1.23716489723479     
  -1.23427329723479       -1.23246639723479       -1.23152029723479     
  -1.24409989723479       -1.24399629723479       -1.24372589723479     
  -1.24252979723479       -1.24003059723479       -1.23686139723479     
  -1.23423169723479       -1.23260259723479       -1.23175269723479     
  -1.24362679723479       -1.24356319723479       -1.24339829723479     
  -1.24236949723479       -1.24007539723479       -1.23709339723479     
  -1.23459389723479       -1.23303869723479       -1.23222579723479     
  -1.24308539723479       -1.24305299723479       -1.24297019723479     
  -1.24209849723479       -1.24003289723479       -1.23729029723479     
  -1.23497229723479       -1.23352489723479       -1.23276719723479     
  -1.24251209723479       -1.24250399723479       -1.24248529723479     
  -1.24175949723479       -1.23993229723479       -1.23745839723479     
  -1.23535179723479       -1.23403219723479       -1.23334049723479     
  -1.24195699723479       -1.24196689723479       -1.24199559723479     
  -1.24139789723479       -1.23979909723479       -1.23759499723479     
  -1.23570549723479       -1.23451859723479       -1.23389559723479     
  -1.24147189723479       -1.24149249723479       -1.24154929723479     
  -1.24105179723479       -1.23965049723479       -1.23769089723479     
  -1.23600229723479       -1.23493919723479       -1.23438069723479     
  -1.24104989723479       -1.24107549723479       -1.24114489723479     
  -1.24072389723479       -1.23949239723479       -1.23775329723479     
  -1.23624929723479       -1.23530109723479       -1.23480269723479     
  -1.24067509723479       -1.24070119723479       -1.24077199723479     
  -1.24040999723479       -1.23932789723479       -1.23779119723479     
  -1.23645949723479       -1.23561929723479       -1.23517749723479     
  -1.24034109723479       -1.24036429723479       -1.24042709723479     
  -1.24010969723479       -1.23915909723479       -1.23780869723479     
  -1.23663829723479       -1.23589979723479       -1.23551149723479     
  -1.24001169723479       -1.24003119723479       -1.24008399723479     
  -1.23980859723479       -1.23898749723479       -1.23782219723479     
  -1.23681269723479       -1.23617579723479       -1.23584089723479     
  -1.23975539723479       -1.23976599723479       -1.23979509723479     
  -1.23953829723479       -1.23881539723479       -1.23780459723479     
  -1.23693359723479       -1.23638529723479       -1.23609719723479     
  -1.23955259723479       -1.23955109723479       -1.23954829723479     
  -1.23929419723479       -1.23864679723479       -1.23776699723479     
  -1.23701679723479       -1.23654659723479       -1.23629999723479     
  0.313061980838608       0.312733812511087       0.311868467346459     
  0.310528603434980       0.308931164153564       0.307512567205092     
  0.306543624139050       0.305999777909147       0.305728863753619     
  0.298975758179866       0.298573576693329       0.297513280047005     
  0.295804855229080       0.293675848240905       0.291703623286433     
  0.290316628999204       0.289524989175462       0.289127356556832     
  0.284685717080935       0.284231343320527       0.283033691384644     
  0.281039645545026       0.278469432571962       0.276016293093959     
  0.274257180890792       0.273242304519501       0.272729855738757     
  0.270219133820800       0.269722383764634       0.268413164857998     
  0.266183809159773       0.263246711178964       0.260391321810394     
  0.258320047822415       0.257117641806539       0.256508709143362     
  0.255416378961791       0.254887068587980       0.253492105231412     
  0.251102513096039       0.247936398427258       0.244844057503394     
  0.242594488414698       0.241286569184607       0.240623734146842     
  0.240347498229260       0.239803686201373       0.238370656002852     
  0.235904519759402       0.232622904888222       0.229406547460386     
  0.227061725761775       0.225696962783862       0.225004885023843     
  0.225080716005019       0.224535706906631       0.223099461718763     
  0.220618550205121       0.217305811500899       0.214049813938452     
  0.211672055700037       0.210286839917553       0.209584125331076     
  0.209684385187269       0.209146490107861       0.207729124431905     
  0.205273214590740       0.201984383094535       0.198744392074797     
  0.196375081733923       0.194993730779058       0.194292726293299     
  0.194206927191521       0.193681105423173       0.192295547620546     
  0.189888717669949       0.186658098002136       0.183469615215983     
  0.181135361939800       0.179773677143178       0.179082454433516     
  0.178660919722270       0.178151309708714       0.176808470221990     
  0.174471070360488       0.171327768435267       0.168220857453297     
  0.165944234571264       0.164615554718472       0.163940919985762     
  0.163047132497392       0.162557906884380       0.161268867166199     
  0.159021213390305       0.155993924697702       0.152997965050226     
  0.150801032861589       0.149518354718074       0.148866977355111     
  0.147361863062561       0.146897570717995       0.145674130463306     
  0.143537872648092       0.140656934374818       0.137802878884809     
  0.135708757951255       0.134485693918721       0.133864516934413     
  0.131597450166563       0.131163221392596       0.130019027205114     
  0.128018551386801       0.125317618314960       0.122639463784661     
  0.120673292586726       0.119524686339395       0.118941199974882     
  0.115740409578971       0.115342127122068       0.114292706716302     
  0.112456263758730       0.109974702406816       0.107512499395014     
  0.105704170493222       0.104647499260417       0.104110698645467     
  9.979260548212060E-002  9.943618629076217E-002  9.849696477517578E-002
  9.685236091599331E-002  9.462875115617486E-002  9.242142155517985E-002
  9.079986985365923E-002  8.985220044053366E-002  8.937077288678802E-002
  3.613572172402720E-002  3.523408665438240E-002  3.285657035453268E-002
  2.917532451260382E-002  2.478639615796150E-002  2.088883307472726E-002
  1.822668388004135E-002  1.673247864372957E-002  1.598814811880491E-002
  4.517577557222650E-002  4.407079101944537E-002  4.115764992574599E-002
  3.646379131565822E-002  3.061439268978996E-002  2.519574916129031E-002
  2.138501367621719E-002  1.921000113614620E-002  1.811751449522047E-002
  5.365555047789976E-002  5.240716883118558E-002  4.911664718097889E-002
  4.363805126327317E-002  3.657644915659175E-002  2.983650383400395E-002
  2.500338277751604E-002  2.221503286385825E-002  2.080709141013427E-002
  6.165057216252340E-002  6.028576260009300E-002  5.668871321698679E-002
  5.056360877618033E-002  4.249399839518105E-002  3.464888058128832E-002
  2.895810206980869E-002  2.565451869217334E-002  2.398148995012640E-002
  6.872196997017586E-002  6.726770167024726E-002  6.343507134711092E-002
  5.686972091346524E-002  4.817089235358810E-002  3.967475549201391E-002
  3.349411521731877E-002  2.990063666617208E-002  2.807951236708808E-002
  7.506219294959562E-002  7.356808168254561E-002  6.963086357071496E-002
  6.285520992853781E-002  5.383904717062142E-002  4.500217776475020E-002
  3.855983309516645E-002  3.481017763044510E-002  3.290870961228404E-002
  8.085839366882762E-002  7.936099347760529E-002  7.541494225513876E-002
  6.859869389174464E-002  5.949701910533588E-002  5.055123932471667E-002
  4.401840225575032E-002  4.021255317230520E-002  3.828186071363867E-002
  8.629895493310684E-002  8.482110034839570E-002  8.092692015859776E-002
  7.417936332578227E-002  6.514337305356670E-002  5.624157088760044E-002
  4.973194422636756E-002  4.593671366953711E-002  4.401071967397449E-002
  9.151662110773517E-002  9.007193767253804E-002  8.626514889647258E-002
  7.965243795473970E-002  7.077638336658346E-002  6.201609890930614E-002
  5.560279074170489E-002  5.186159251057003E-002  4.996247372396030E-002
  9.654565677135778E-002  9.514551476638611E-002  9.145609359865706E-002
  8.503414025894360E-002  7.639798919687325E-002  6.786182142965445E-002
  6.160685146865383E-002  5.795633357542565E-002  5.610278988092537E-002
  0.101388761467341       0.100044625142569       9.650301762408936E-002
  9.032763962807000E-002  8.201023230296940E-002  7.377890082193340E-002
  6.774287924157704E-002  6.421875000584336E-002  6.242910540955638E-002
  0.106035470405580       0.104759837672863       0.101398463199049     
  9.552914308962131E-002  8.761383023695403E-002  7.977237722428232E-002
  7.401882724573394E-002  7.065848643380479E-002  6.895181669593289E-002
  0.110464734471368       0.109271700720019       0.106128053026442     
  0.100631790887466       9.321103826111816E-002  8.585286916331766E-002
  8.045085819420512E-002  7.729508846581981E-002  7.569197285475882E-002
  0.114639213665648       0.113544941608744       0.110661682740386     
  0.105616097182337       9.879806340296358E-002  9.203321622592597E-002
  8.706487340130734E-002  8.416169304938804E-002  8.268684548106585E-002
  0.118564614548173       0.117585360868051       0.115004870962111     
  0.110486358995062       0.104377041390285       9.831245315425757E-002
  9.385727646984864E-002  9.125357615617509E-002  8.993086482315606E-002
  7.555617993752584E-003  5.160736168152751E-002  0.221511946624173     
  0.492192325901484       0.755365425719128       0.923578405145177     
  0.998595580111841        1.01993205179567       2.331224622209606E-002
  8.891254488522975E-002  0.299880897037498       0.622639102075837     
  0.928742334397081        1.11386299590556        1.19178093048711     
   1.21385379269237       3.381930012081735E-002  0.108302997005322     
  0.323570907648323       0.642692879176812       0.940696066076822     
   1.11774921488824        1.19075079047942        1.21146929000954     
  3.039055904774609E-002  0.100104472685234       0.311113580441695     
  0.627817484165538       0.924488006256825        1.09945370000136     
   1.17071996928003        1.19087095632320       1.315344147933000E-002
  6.758671193421210E-002  0.276436806224923       0.601384694085486     
  0.909366421960140        1.09264235585130        1.16839472234314     
   1.19015766309658      -1.616174611767383E-003  3.894354592042196E-002
  0.242620814380872       0.570721057438390       0.885626576620021     
   1.07416493201005        1.15249788166193        1.17512806744321     
 -1.396167899403978E-002  1.436085900242693E-002  0.210410207075774     
  0.535879385887977       0.851418913021407        1.04099565049008     
   1.11987658677258        1.14272132299258      -2.361332904720243E-002
 -5.440137052225542E-003  0.181578703706558       0.499905033610595     
  0.810793122032817       0.997878465194235        1.07571971119123     
   1.09828140417484      -2.977725828622355E-002 -1.884274314340291E-002
  0.158709770526777       0.466486688673609       0.768603120059866     
  0.950656464475558        1.02645053966250        1.04843608834364     
 -3.231028880533032E-002 -2.556174582621825E-002  0.142436972527423     
  0.436700491788662       0.726424481444707       0.901232114822380     
  0.974067922095313       0.995225315100010      -3.139919208219380E-002
 -2.597841815329761E-002  0.132240753562621       0.410090382157621     
  0.683986685225959       0.849507908343657       0.918605639863172     
  0.938719527026811      -2.816403304996870E-002 -2.234010730259451E-002
  0.124806590454473       0.382650522998143       0.637278284105398     
  0.791891754315166       0.856808903394242       0.875782540869394     
 -2.379807619035162E-002 -1.736842602877074E-002  0.115366446035621     
  0.346908886390193       0.576899430432590       0.718973361106278     
  0.779920738695792       0.797997937791635      -2.237640558649399E-002
 -2.083007732107875E-002  8.471257787267066E-002  0.268070422051810     
  0.452070849322393       0.573489494366862       0.630938669977201     
  0.649049283290128     
 Zone I=  361 J=   15 K=1  T="NearWake"
 DATAPACKING=BLOCK
 VARLOCATION=([4]=CELLCENTERED)
  -1.23211949723479       -1.23016768149170       -1.22719793475560     
  -1.22432009592952       -1.22150394622649       -1.21873049544238     
  -1.21598783699550       -1.21326848790008       -1.21056770590012     
  -1.20788171762835       -1.20520810945554       -1.20254534336096     
  -1.19989237200865       -1.19724846530060       -1.19461304053256     
  -1.19198556334508       -1.18936552509048       -1.18675242917361     
  -1.18414577581663       -1.18154504497676       -1.17894967411543     
  -1.17635903028171       -1.17377237371987       -1.17118881434964     
  -1.16860726740283       -1.16602641772236       -1.16344470026682     
  -1.16086029810511       -1.15827118108287       -1.15567521791921     
  -1.15307035069885       -1.15045467627924       -1.14782646052717     
  -1.14518424976707       -1.14252701806336       -1.13985429796566     
  -1.13716626243682       -1.13446365715671       -1.13174760959545     
  -1.12901962683863       -1.12628081058290       -1.12354770695688     
  -1.12074731750858       -1.11798473037014       -1.11521490960401     
  -1.11243991217228       -1.10966108731311       -1.10687909610066     
  -1.10409430925980       -1.10130693636955       -1.09851705089284     
  -1.09572458641926       -1.09292935391539       -1.09013115528243     
  -1.08732995725437       -1.08452590288770       -1.08171912409101     
  -1.07890960200928       -1.07609717568007       -1.07328160359289     
  -1.07046260624198       -1.06763988470992       -1.06481312959938     
  -1.06198202978135       -1.05914628323002       -1.05630560860100     
  -1.05345975619228       -1.05060851766593       -1.04775173360491     
  -1.04488929788588       -1.04202115822078       -1.03914731251148     
  -1.03626780132457       -1.03338269783446       -1.03049209735656     
  -1.02759610832013       -1.02469484594135       -1.02178843018361     
  -1.01887698943475       -1.01596066839303       -1.01303963524901     
  -1.01011408384593       -1.00718423049709       -1.00425030824962     
  -1.00131256157866      -0.998371242635689      -0.995426607990882     
 -0.992478913303601      -0.989528402754387      -0.986575291213467     
 -0.983619740760415      -0.980661838059358      -0.977701582805956     
 -0.974738896300426      -0.971773650506676      -0.968805706918008     
 -0.965834950919354      -0.962861312913885      -0.959884774384625     
 -0.956905359919815      -0.953923119109684      -0.950938106961978     
 -0.947950371867075      -0.944959954842342      -0.941966898206346     
 -0.938971258015851      -0.935973111860439      -0.932972555122561     
 -0.929969686730215      -0.926964592455619      -0.923957333412479     
 -0.920947942967847      -0.917936431840118      -0.914922799545688     
 -0.911907049460147      -0.908889203885041      -0.905869315197907     
 -0.902847469900930      -0.899823783919162      -0.896798389744372     
 -0.893771419124309      -0.890742987445467      -0.887713185219194     
 -0.884682079596281      -0.881649727515137      -0.878616198941903     
 -0.875581601354120      -0.872546091690133      -0.869509864382038     
 -0.866473112780160      -0.863435977731208      -0.860398514761299     
 -0.857360707131070      -0.854322516285919      -0.851283928108757     
 -0.848244962832883      -0.845205653772007      -0.842166021465420     
 -0.839126062930957      -0.836085758060976      -0.833045084552081     
 -0.830004032752778      -0.826962616608421      -0.823920880009838     
 -0.820878898164302      -0.817836774618567      -0.814794636350146     
 -0.811752628321273      -0.808710906602544      -0.805669630193222     
 -0.802628954037067      -0.799589025684109      -0.796549985044775     
 -0.793511961037155      -0.790475056928190      -0.787439324420746     
 -0.784404737548440      -0.781371178997021      -0.778338445192769     
 -0.775306272549096      -0.772274386400977      -0.769242566562288     
 -0.766210711361602      -0.763178883543167      -0.760147332765558     
 -0.757116489590062      -0.754086916635600      -0.751059205326085     
 -0.748033835479643      -0.745011057597050      -0.741990869394306     
 -0.738973100820931      -0.735957539408378      -0.732944013830119     
 -0.729932408487742      -0.726922628838632      -0.723914550855480     
 -0.720907987777723      -0.717902695953521      -0.714898418959042     
 -0.711894950612182      -0.708892195584396      -0.705890214980072     
 -0.702889247505243      -0.699889694519818      -0.696892068732225     
 -0.693896930731712      -0.690904841673289      -0.687916333897274     
 -0.684931881202834      -0.681951857764926      -0.678976486146276     
 -0.676005781962098      -0.673039512955518      -0.670077198626298     
 -0.667118186199420      -0.664161826153091      -0.661207698310193     
 -0.658255772223672      -0.655306424363752      -0.652360330600369     
 -0.649418305837543      -0.646481164773903      -0.643549637021396     
 -0.640624293092145      -0.637705397359524      -0.634792696796384     
 -0.631885313835305      -0.628981891338241      -0.626080878015937     
 -0.623180663640326      -0.620279423962374      -0.617374804277382     
 -0.614463651541707      -0.611541909227023      -0.608604705628960     
 -0.605646660778414      -0.602662414260483      -0.599647293678005     
 -0.596597976857667      -0.593512996452780      -0.590393003089691     
 -0.587240803353594      -0.584061214418899      -0.580860749282275     
 -0.577647211431307      -0.574429382766207      -0.571216910029562     
 -0.568020331872868      -0.564851293447706      -0.561723151861796     
 -0.558651948904689      -0.555657359428486      -0.552763025362509     
 -0.549995622307213      -0.547382184931932      -0.544945779368343     
 -0.542700234675287      -0.540644906822336      -0.538760448291252     
 -0.537006504766975      -0.535322084302474      -0.533628919693291     
 -0.531837698027199      -0.529856585954330      -0.527600234305904     
 -0.524996261484301      -0.521987177542233      -0.518528163853577     
 -0.514583506990145      -0.510126647438510      -0.505148381456568     
 -0.499672281888480      -0.493770330648510      -0.487568874299725     
 -0.481230983945428      -0.474911323113558      -0.468710640135082     
 -0.462664213578808      -0.456767413049766      -0.451013387217637     
 -0.445419171825027      -0.440034385074762      -0.434939367051383     
 -0.430240007291061      -0.426060666780945      -0.422533011576831     
 -0.419781860134453      -0.417913466629346      -0.417008772722547     
 -0.417117698051569      -0.418249217472525      -0.420357268172708     
 -0.423325081656197      -0.426947550724597      -0.430917156753020     
 -0.434826407508230      -0.438163530702066      -0.440279132320283     
 -0.440438811654133      -0.438038808804253      -0.432778965662699     
 -0.424731380156865      -0.414575019476358      -0.403687134593798     
 -0.393617829383721      -0.385434061228128      -0.379322840085420     
 -0.374876788832628      -0.371710473901656      -0.369675682101263     
 -0.368681093175055      -0.368527807959804      -0.368901017609102     
 -0.369456641737841      -0.369915014591253      -0.370112983062837     
 -0.370009672195939      -0.369660740051270      -0.369178063959174     
 -0.368689960723823      -0.368311943881405      -0.368128551465854     
 -0.368180494548338      -0.368452785581805      -0.368860874165815     
 -0.369231031868644      -0.369277593867577      -0.368595965493305     
 -0.366708641312081      -0.363210965560897      -0.358020603018217     
 -0.351582727815336      -0.344709611112097      -0.338271651996297     
 -0.333376521957093      -0.331158484612397      -0.330884433627266     
 -0.330634028508518      -0.328740497011742      -0.327266719406381     
 -0.330472941390708      -0.338204806907836      -0.348602665880647     
 -0.360712291660027      -0.373924116165286      -0.387671604935870     
 -0.401331346517282      -0.414203884451641      -0.425791352779544     
 -0.436186174593187      -0.445888195330401      -0.455391567276833     
 -0.464886854722102      -0.474203529132041      -0.482926837849253     
 -0.490627800520854      -0.497036679712919      -0.502049317122749     
 -0.505611390027762      -0.507623726123587      -0.507914402496638     
 -0.506176548907779      -0.501945690117605      -0.494715593319438     
 -0.484254066966389      -0.470691747089182      -0.453394918562907     
 -0.428381898488355      -0.390181604890732      -0.351717214572756     
 -0.318140368069539      -0.285307147411546      -0.257870756018794     
 -0.238917866803481      -0.227260312972813      -0.220666576651154     
 -0.217682976691229      -0.217417178939273      -0.218820745754344     
 -0.220705794455314       -1.23153119723479       -1.22957938149170     
  -1.22582620493415       -1.22239186121722       -1.21912867623477     
  -1.21596195918825       -1.21285443124304       -1.20978585849427     
  -1.20674454029193       -1.20372271279188       -1.20071539126067     
  -1.19771937694503       -1.19473260526607       -1.19175380070218     
  -1.18878217055306       -1.18581716073802       -1.18285832308465     
  -1.17990525072511       -1.17695754434159       -1.17401478826307     
  -1.17107652521512       -1.16814222546437       -1.16521124921822     
  -1.16228279879511       -1.15935586426471       -1.15642917883564     
  -1.15350120047116       -1.15057014631421       -1.14763413294295     
  -1.14469135053679       -1.14174000995109       -1.13877818521494     
  -1.13580407597653       -1.13281637746527       -1.12981433175177     
  -1.12679765403956       -1.12376648121693       -1.12072137380982     
  -1.11766332902115       -1.11459375393418       -1.11151781357343     
  -1.10848147903912       -1.10535986614047       -1.10229599049065     
  -1.09921994629576       -1.09614049250944       -1.09306063636710     
  -1.08998122262393       -1.08690259751570       -1.08382495700520     
  -1.08074840377274       -1.07767294482376       -1.07459845984012     
  -1.07152466245020       -1.06845119548925       -1.06537792423961     
  -1.06230499068277       -1.05923251989477       -1.05616046729244     
  -1.05308867227223       -1.05001692621918       -1.04694500057976     
  -1.04387265670054       -1.04079965489815       -1.03772576478314     
  -1.03465077345416       -1.03157449205831       -1.02849676361478     
  -1.02541747228324       -1.02233655151215       -1.01925398663162     
  -1.01616980816942       -1.01308407785718       -1.00999687498136     
  -1.00690828860232       -1.00381841375844       -1.00072734784402     
 -0.997635188767101      -0.994542040377704      -0.991448024884507     
 -0.988353292789171      -0.985258022030745      -0.982162407987202     
 -0.979066651763267      -0.975970952692986      -0.972875507398610     
 -0.969780514447310      -0.966686180479619      -0.963592721250381     
 -0.960500351249382      -0.957409259205357      -0.954319571370689     
 -0.951231312624979      -0.948144389483013      -0.945058618514721     
 -0.941973792155368      -0.938889744539568      -0.935806387801930     
 -0.932723713793473      -0.929641768282630      -0.926560612320975     
 -0.923480292467862      -0.920400830817112      -0.917322231143265     
 -0.914244497499583      -0.911167661438879      -0.908091803400227     
 -0.905017049297241      -0.901943541225343      -0.898871402122877     
 -0.895800712078457      -0.892731500537619      -0.889663752676328     
 -0.886597427020987      -0.883532479124766      -0.880468884035792     
 -0.877406651455712      -0.874345831544637      -0.871286511718060     
 -0.868228803388097      -0.865172817257687      -0.862118631548025     
 -0.859066265692572      -0.856015674826176      -0.852966774551370     
 -0.849919494127203      -0.846873842927078      -0.843829964701338     
 -0.840788148122080      -0.837748762907096      -0.834712124401229     
 -0.831678361194710      -0.828647393941918      -0.825619046131062     
 -0.822593176230426      -0.819569720021203      -0.816548647905901     
 -0.813529909082082      -0.810513408393174      -0.807499017603195     
 -0.804486606160452      -0.801476078515016      -0.798467408232697     
 -0.795460656323007      -0.792455963034377      -0.789453519272190     
 -0.786453539087921      -0.783456245485262      -0.780461861657616     
 -0.777470595609507      -0.774482618152190      -0.771498049367473     
 -0.768516968093461      -0.765539433774567      -0.762565490502624     
 -0.759595139403332      -0.756628294522981      -0.753664742137240     
 -0.750704112172580      -0.747745874211572      -0.744789392373816     
 -0.741834066027166      -0.738879512084429      -0.735925698752368     
 -0.732972985435064      -0.730022073735707      -0.727073881139008     
 -0.724129349120546      -0.721189211861078      -0.718253794917517     
 -0.715322966566009      -0.712396299182195      -0.709473315370627     
 -0.706553635588191      -0.703636971254356      -0.700723028507054     
 -0.697811410933296      -0.694901583064694      -0.691992920757334     
 -0.689084830795698      -0.686176883236634      -0.683268899952304     
 -0.680360982259318      -0.677453490087387      -0.674546978716814     
 -0.671642104565121      -0.668739543584617      -0.665839961390780     
 -0.662944021897218      -0.660052385264178      -0.657165656859136     
 -0.654284279612958      -0.651408399171888      -0.648537768495535     
 -0.645671777025406      -0.642809670803765      -0.639950929869278     
 -0.637095627699493      -0.634244606796752      -0.631399456354124     
 -0.628562317463729      -0.625735515991971      -0.622921084793964     
 -0.620120264696804      -0.617333041688162      -0.614557817651460     
 -0.611791401134049      -0.609029494739253      -0.606267559220425     
 -0.603501458806063      -0.600727332826258      -0.597940800959048     
 -0.595136033322148      -0.592305110811164      -0.589437859933904     
 -0.586522218940082      -0.583545150078655      -0.580494032065351     
 -0.577358303484140      -0.574130988350294      -0.570809823466883     
 -0.567397940356226      -0.563904018636094      -0.560341725196071     
 -0.556728583983563      -0.553084716638857      -0.549431808012212     
 -0.545792730875157      -0.542192143110366      -0.538657578585865     
 -0.535220335363874      -0.531916198331166      -0.528786100737390     
 -0.525875989399543      -0.523234896307673      -0.520910614428583     
 -0.518942588161336      -0.517352126718358      -0.516131218291795     
 -0.515232519335378      -0.514563796039048      -0.513988877097797     
 -0.513335241374231      -0.512408647102517      -0.511015682915287     
 -0.508989149807227      -0.506202792125228      -0.502570301340631     
 -0.498040454050561      -0.492600777933371      -0.486295380844315     
 -0.479260746544209      -0.471766246960336      -0.464195012976839     
 -0.456909102420964      -0.450087653926747      -0.443688853728467     
 -0.437554680073027      -0.431561900202441      -0.425704725956387     
 -0.420077396763533      -0.414819295337586      -0.410071804994793     
 -0.405956664182639      -0.402566407934881      -0.399955120139782     
 -0.398128489027236      -0.397041277830765      -0.396607284232209     
 -0.396714730726158      -0.397237577976123      -0.398049406861531     
 -0.399064504219912      -0.400318466611811      -0.402032769986281     
 -0.404520149375573      -0.407819498515386      -0.411298961363591     
 -0.413847309197325      -0.414186545806132      -0.411556063727193     
 -0.405786377922781      -0.397018243658342      -0.387264914134137     
 -0.379556662642402      -0.375613639026253      -0.375291152997836     
 -0.377368521659941      -0.381225365569798      -0.386855412660697     
 -0.393943458679712      -0.401819810738401      -0.409725456707211     
 -0.417040313405917      -0.423389667903233      -0.428623688597332     
 -0.432746013238978      -0.435847373476502      -0.438064249585903     
 -0.439558107275413      -0.440501501044737      -0.441058980855248     
 -0.441358294511324      -0.441455957445447      -0.441304885581667     
 -0.440730234420717      -0.439417662209570      -0.436915727973908     
 -0.432650294317571      -0.425958830968869      -0.416209608927381     
 -0.403160627272738      -0.387369891793733      -0.370255385708121     
 -0.354473094152097      -0.341491194880116      -0.331305432658307     
 -0.324162970890210      -0.321253399703382      -0.321839109173497     
 -0.322176152171649      -0.324128372052600      -0.330335879828468     
 -0.342341269826434      -0.358305364472012      -0.377166429072484     
 -0.396273378168219      -0.414389333027962      -0.428922973359358     
 -0.441695912855994      -0.454743586690965      -0.467983289945993     
 -0.480802080901436      -0.492305660369259      -0.502042814222030     
 -0.510201730869832      -0.517116767426630      -0.523021418974141     
 -0.527976542836145      -0.531895110694391      -0.534586672010671     
 -0.535770419658407      -0.535055413397051      -0.531913206963710     