 Title = "Wing and Wake"
 VARIABLES = "X" "Y" "Z" "GAM"
 Zone I=    9 J=   15 K=1  T="Blade"
 DATAPACKING=BLOCK
 VARLOCATION=([4]=CELLCENTERED)
 -0.853369948617401      -0.853409848617401      -0.853518648617401     
 -0.852717848617401      -0.850425348617401      -0.847205648617401     
 -0.844426748617401      -0.842676148617401      -0.841756348617401     
 -0.853958248617401      -0.853980548617401      -0.854043148617401     
 -0.853110248617401      -0.850576448617401      -0.847068148617401     
 -0.844055748617401      -0.842162148617401      -0.841168048617401     
 -0.853969148617401      -0.853934848617401      -0.853847948617401     
 -0.852779848617401      -0.850217548617401      -0.846801748617401     
 -0.843910148617401      -0.842103248617401      -0.841157148617401     
 -0.853736748617401      -0.853633148617401      -0.853362748617401     
 -0.852166648617401      -0.849667448617401      -0.846498248617401     
 -0.843868548617401      -0.842239448617401      -0.841389548617401     
 -0.853263648617401      -0.853200048617401      -0.853035148617401     
 -0.852006348617401      -0.849712248617401      -0.846730248617401     
 -0.844230748617401      -0.842675548617401      -0.841862648617401     
 -0.852722248617401      -0.852689848617401      -0.852607048617401     
 -0.851735348617401      -0.849669748617401      -0.846927148617401     
 -0.844609148617401      -0.843161748617401      -0.842404048617401     
 -0.852148948617401      -0.852140848617401      -0.852122148617401     
 -0.851396348617401      -0.849569148617401      -0.847095248617401     
 -0.844988648617401      -0.843669048617401      -0.842977348617401     
 -0.851593848617401      -0.851603748617401      -0.851632448617401     
 -0.851034748617401      -0.849435948617401      -0.847231848617401     
 -0.845342348617401      -0.844155448617401      -0.843532448617401     
 -0.851108748617401      -0.851129348617401      -0.851186148617401     
 -0.850688648617401      -0.849287348617401      -0.847327748617401     
 -0.845639148617401      -0.844576048617401      -0.844017548617401     
 -0.850686748617401      -0.850712348617401      -0.850781748617401     
 -0.850360748617401      -0.849129248617401      -0.847390148617401     
 -0.845886148617401      -0.844937948617401      -0.844439548617401     
 -0.850311948617401      -0.850338048617401      -0.850408848617401     
 -0.850046848617401      -0.848964748617401      -0.847428048617401     
 -0.846096348617401      -0.845256148617401      -0.844814348617401     
 -0.849977948617401      -0.850001148617401      -0.850063948617401     
 -0.849746548617401      -0.848795948617401      -0.847445548617401     
 -0.846275148617401      -0.845536648617401      -0.845148348617401     
 -0.849648548617401      -0.849668048617401      -0.849720848617401     
 -0.849445448617401      -0.848624348617401      -0.847459048617401     
 -0.846449548617401      -0.845812648617401      -0.845477748617401     
 -0.849392248617401      -0.849402848617401      -0.849431948617401     
 -0.849175148617401      -0.848452248617401      -0.847441448617401     
 -0.846570448617401      -0.846022148617401      -0.845734048617401     
 -0.849189448617401      -0.849187948617401      -0.849185148617401     
 -0.848931048617401      -0.848283648617401      -0.847403848617401     
 -0.846653648617401      -0.846183448617401      -0.845936848617401     
  0.404789425692837       0.403844502653821       0.401352840557926     
  0.397494856185500       0.392895213094282       0.388810525977112     
  0.386020565612829       0.384454622804764       0.383674556583603     
  0.411246093915290       0.410088058478524       0.407035055963410     
  0.402115842756339       0.395985611455388       0.390306816028419     
  0.386313125147628       0.384033689122507       0.382888751628854     
  0.417115602390580       0.415807285290703       0.412358783981980     
  0.406617157820369       0.399216524518033       0.392152990909552     
  0.387087829193485       0.384165609147972       0.382690071691633     
  0.422477065910909       0.421046731130434       0.417276985532678     
  0.410857811636994       0.402400775058002       0.394179009051204     
  0.388215013298963       0.384752823162473       0.382999471439010     
  0.426870561890802       0.425346473412240       0.421329836510805     
  0.414449280182834       0.405332816332424       0.396428775514340     
  0.389951399480453       0.386185396152159       0.384276838726821     
  0.430497778958076       0.428931934630786       0.424805688626441     
  0.417704732323346       0.408255698894745       0.398994566785417     
  0.392242921792316       0.388313243415472       0.386320484927252     
  0.433554873452313       0.431985582297889       0.427850079100664     
  0.420706579102640       0.411167928168514       0.401792656840613     
  0.394946174860897       0.390957604980422       0.388934218971083     
  0.436239235576854       0.434690428423691       0.430609286614434     
  0.423537776063154       0.414067963190964       0.404738780865904     
  0.397916623637687       0.393939182084821       0.391920720114248     
  0.438690001302379       0.437175957862898       0.433186403174670     
  0.426256212535948       0.416954013943321       0.407773143665864     
  0.401051929232332       0.397131114125264       0.395140817656426     
  0.440943098747058       0.439475735195069       0.435609182995193     
  0.428878908330332       0.419828131157049       0.410882137528686     
  0.404326863201535       0.400501082042634       0.398558548749817     
  0.443001320102232       0.441592651092324       0.437881009151997     
  0.431409148041526       0.422692417658064       0.414065895664778     
  0.407740081544080       0.404046757027958       0.402171190662346     
  0.444853716637028       0.443516840112314       0.439994084299014     
  0.433842975073700       0.425547643927751       0.417329718671191     
  0.411299937761048       0.407778265236276       0.405989657395255     
  0.446478228657776       0.445227916734552       0.441933340877625     
  0.436173200330257       0.428396173504719       0.420684734875533     
  0.415023370545791       0.411716090668851       0.410036008642211     
  0.447835741931866       0.446688933303483       0.443667247674915     
  0.438379420925891       0.431234049793136       0.424144418779202     
  0.418937543227476       0.415894979674543       0.414349323906192     
  0.448932200035449       0.447905931876034       0.445201551305488     
  0.440466103225129       0.434063474099695       0.427707721823305     
  0.423038649785499       0.420309944463453       0.418923729070312     
  7.318079022048779E-002  7.334740564695914E-002  7.378675290127391E-002
  7.446701963728422E-002  7.527806081589536E-002  7.599830136240421E-002
  7.649024664973517E-002  7.676636461704371E-002  7.690391133857347E-002
  8.862280038222352E-002  8.882699327434189E-002  8.936531998992753E-002
  9.023271000219135E-002  9.131363517853296E-002  9.231496003023108E-002
  9.301915548512377E-002  9.342108155715162E-002  9.362296492850729E-002
  0.104168241106710       0.104398932710741       0.105006996534476     
  0.106019400139910       0.107324331465441       0.108569823019758     
  0.109462947691952       0.109978213929543       0.110238390994141     
  0.119803365406829       0.120055572020073       0.120720279879364     
  0.121852153431033       0.123343357156747       0.124793076332818     
  0.125844689696768       0.126455167230174       0.126764330445692     
  0.135609168500778       0.135877906420535       0.136586147877967     
  0.137799375600872       0.139406854146353       0.140976876779911     
  0.142119012938880       0.142783060935096       0.143119591103414     
  0.151550087241768       0.151826187844259       0.152553756343865     
  0.153805846528933       0.155471966064011       0.157104953526791     
  0.158295450703241       0.158988359026585       0.159339736114093     
  0.167591432432036       0.167868140803147       0.168597341595624     
  0.169856933381967       0.171538854901213       0.173191968187785     
  0.174399187683743       0.175102480168112       0.175459257713946     
  0.183698601938325       0.183971698427341       0.184691313840411     
  0.185938211944966       0.187607995456594       0.189252982008450     
  0.190455912394420       0.191157242654381       0.191513151959327     
  0.199846960792357       0.200113927500701       0.200817393633248     
  0.202039373224308       0.203679601816097       0.205298436952397     
  0.206483568400156       0.207174913889901       0.207525856856966     
  0.216030072354871       0.216288808139595       0.216970585614750     
  0.218157314625744       0.219753210837774       0.221330630883701     
  0.222486502613523       0.223161091054124       0.223503612084571     
  0.232247647372521       0.232496033725856       0.233150496342665     
  0.234291660071839       0.235828654822004       0.237349743399096     
  0.238465155103520       0.239116387864226       0.239447100818591     
  0.248501514859302       0.248737242260486       0.249358399156818     
  0.250443005674527       0.251905696369468       0.253354738317645     
  0.254417951379863       0.255038917263201       0.255354297083480     
  0.264795564534397       0.265016028260763       0.265596950874331     
  0.266612619065505       0.267983918724539       0.269343653414944     
  0.270341904693897       0.270925067368956       0.271221311160056     
  0.281136591749682       0.281338805052575       0.281871609756110     
  0.282803996281275       0.284063917999155       0.285314011230180     
  0.286232123875141       0.286768609920043       0.287041150734891     
  0.297523751577641       0.297704710343588       0.298181565604279     
  0.299016552866591       0.300145509128875       0.301266199737901     
  0.302089483113039       0.302570627483717       0.302815054658601     
  9.771897581934651E-003  5.613453256143296E-002  0.228002030005376     
  0.500020555831958       0.763854947905645       0.932388608866975     
   1.00755449849130        1.02893575178542       2.552055282076798E-002
  9.343333910393120E-002  0.306415497797900       0.630449459538634     
  0.936857271249395        1.12178745556215        1.19952259527072     
   1.22152946121958       3.577292715014050E-002  0.112306780474193     
  0.329415810003696       0.649748813802043       0.948109870053565     
   1.12507508695504        1.19796277215580        1.21863756407510     
  3.214731124043339E-002  0.103708327066004       0.316420759275668     
  0.634357785531021       0.931602186104769        1.10673789705537     
   1.17804755137980        1.19820923900684       1.475115805734623E-002
  7.087565504901212E-002  0.281316775224587       0.607479276171577     
  0.916105629083545        1.09962275066287        1.17544955266569     
   1.19723163792127      -1.845880717441421E-004  4.189502149625669E-002
  0.247015503148292       0.576232822342632       0.891735883682136     
   1.08048614411979        1.15887371133454        1.18151517172076     
 -1.270006944666862E-002  1.696260641613833E-002  0.214288605984683     
  0.540744756150079       0.856804321598135        1.04655582273434     
   1.12547643835062        1.14832796816340      -2.251139754955958E-002
 -3.169016872699282E-003  0.184963468423695       0.504145806276362     
  0.815480078859275        1.00271503254973        1.08059198166970     
   1.10316059991795      -2.881953980306811E-002 -1.687309077556634E-002
  0.161635790123380       0.470133001857098       0.772612400752150     
  0.954784906335246        1.03060965716409        1.05260223636115     
 -3.149052883574254E-002 -2.388508097126159E-002  0.144902276144749     
  0.439720236528936       0.729680805727885       0.904542641000870     
  0.977387663357255       0.998547062917523      -3.072485709089694E-002
 -2.461559945251440E-002  0.134194509489380       0.412372215809500     
  0.686288733923521       0.851715140233998       0.920752030731515     
  0.940845765300869      -2.762103507111263E-002 -2.126314700053338E-002
  0.126283642540129       0.384209369533711       0.638570711964770     
  0.792838431919222       0.857546854535624       0.876447626318170     
 -2.322467022941481E-002 -1.623080611969778E-002  0.116932122286377     
  0.348575297055859       0.578291756855114       0.719980741095453     
  0.780684718863738       0.798676430512698      -2.163785558840641E-002
 -1.934399840740882E-002  8.684820700244647E-002  0.270641178339538     
  0.454865519944091       0.576403530493394       0.633922008290761     
  0.652060392151269     
 Zone I=  201 J=   15 K=1  T="NearWake"
 DATAPACKING=BLOCK
 VARLOCATION=([4]=CELLCENTERED)
 -0.841756348617401      -0.839804532874314      -0.836895009503579     
 -0.834063863379602      -0.831297449009302      -0.828576033695359     
 -0.825887392847911      -0.823223655523675      -0.820579624142018     
 -0.817951838515734      -0.815338006248040      -0.812736617709732     
 -0.810146652994249      -0.807567352510311      -0.804998069318207     
 -0.802438210220234      -0.799887225281027      -0.797344601629324     
 -0.794809849011364      -0.792282479823382      -0.789761984530919     
 -0.787247801004750      -0.784739277550158      -0.782235631124261     
 -0.779735903156064      -0.777238916623002      -0.774743240999554     
 -0.772247175137473      -0.769748758336342      -0.767245820179414     
 -0.764736079784116      -0.762217296478015      -0.759687458325394     
 -0.757144979363686      -0.754588865166036      -0.752018803745756     
 -0.749435157405818      -0.746838866052679      -0.744231296582023     
 -0.741614074860718      -0.738988925460776      -0.736357535333358     
 -0.733721453802077      -0.731082035395584      -0.728440422031346     
 -0.725797553388360      -0.723154191663252      -0.720510947843377     
 -0.717868301250714      -0.715226613041156      -0.712586142184667     
 -0.709947071011805      -0.707309539713068      -0.704673682638912     
 -0.702039652636071      -0.699407616060575      -0.696777715326201     
 -0.694150023605392      -0.691524523828421      -0.688901120962055     
 -0.686279673818545      -0.683660029059736      -0.681042046928819     
 -0.678425614839657      -0.675810650471998      -0.673197099228125     
 -0.670584929196486      -0.667974124817949      -0.665364682496155     
 -0.662756612474840      -0.660149947020711      -0.657544748678921     
 -0.654941110135340      -0.652339137444313      -0.649738913765197     
 -0.647140451300361      -0.644543633402836      -0.641948129656159     
 -0.639353285984109      -0.636758048588878      -0.634160977079356     
 -0.631560327451390      -0.628954151833073      -0.626340373636013     
 -0.623716796055910      -0.621081039879046      -0.618430505474026     
 -0.615762504232096      -0.613074650239753      -0.610365483052302     
 -0.607635074505688      -0.604885156782065      -0.602118566645080     
 -0.599338522022814      -0.596548407635342      -0.593752106105305     
 -0.590954459056294      -0.588161535999082      -0.585380593013174     
 -0.582619699696883      -0.579887145805827      -0.577190877077610     
 -0.574538115139135      -0.571935149032564      -0.569387419199473     
 -0.566900089223806      -0.564478973401222      -0.562131360129800     
 -0.559866232055799      -0.557693596490516      -0.555622883076880     
 -0.553660321150540      -0.551805035277360      -0.550044072771851     
 -0.548347982735909      -0.546669483006707      -0.544946017970320     
 -0.543103915964192      -0.541062261261968      -0.538738305397066     
 -0.536056308379832      -0.532957447880210      -0.529408101782546     
 -0.525407614388005      -0.520995753231286      -0.516255409823052     
 -0.511305635799315      -0.506285601534345      -0.501335564256085     
 -0.496580466928317      -0.492118018492055      -0.488011952151798     
 -0.484291264696849      -0.480954490932301      -0.477976199422937     
 -0.475313541283598      -0.472912827656725      -0.470716491408350     
 -0.468669500965788      -0.466724128104236      -0.464842940124577     
 -0.463000373870003      -0.461183213728103      -0.459390054845920     
 -0.457629580739177      -0.455917725505590      -0.454273681888207     
 -0.452713882267336      -0.451243355106889      -0.449846492610522     
 -0.448482289692563      -0.447087988776375      -0.445587830786973     
 -0.443895545987270      -0.441906649654439      -0.439507001682607     
 -0.436639788158918      -0.433422949552432      -0.430218874229138     
 -0.427569640273463      -0.426053945822306      -0.426181474975990     
 -0.428374066064638      -0.432973462159688      -0.440149639986648     
 -0.449745120267162      -0.461223275612329      -0.473760911915356     
 -0.485766966115567      -0.495357299980863      -0.501817663955129     
 -0.505602901249844      -0.507471028919297      -0.508045167840328     
 -0.507760829362422      -0.506901552433153      -0.505632552262320     
 -0.504027298990682      -0.502090812173315      -0.499779279150027     
 -0.497015169074008      -0.493699037840055      -0.489719240230286     
 -0.484959220895027      -0.479302230276109      -0.472636713603031     
 -0.464873100892897      -0.455996703367812      -0.446200339348434     
 -0.436085059368644      -0.426654109898310      -0.418909848606887     
 -0.413405483914842      -0.410107043915512      -0.408662604235970     
 -0.408790218507077      -0.410574974787198      -0.414303261063245     
 -0.420109397536298      -0.428069012100826      -0.436780193316343     
 -0.841168048617401      -0.839216232874314      -0.835447098067468     
 -0.832023274423831      -0.828772827370800      -0.825621184862852     
 -0.822531330487300      -0.819482957055157      -0.816464016640642     
 -0.813466981003731      -0.810487024164037      -0.807521053053997     
 -0.804567132221848      -0.801624082600208      -0.798691152774137     
 -0.795767776090213      -0.792853461884990      -0.789947769653178     
 -0.787050288189443      -0.784160606132966      -0.781278279936694     
 -0.778402799595714      -0.775533551880129      -0.772669783580065     
 -0.769810567321319      -0.766954766888031      -0.764101003789765     
 -0.761247641140134      -0.758392799250791      -0.755534408415358     
 -0.752670304139374      -0.749798366461161      -0.746916695049620     
 -0.744023799495057      -0.741118768243160      -0.738201365080995     
 -0.735272020403680      -0.732331731226729      -0.729381914057283     
 -0.726424249463844      -0.723460528628593      -0.720492502418802     
 -0.717521753991134      -0.714549626092435      -0.711577215509208     
 -0.708605415287840      -0.705634966664358      -0.702666491321854     
 -0.699700495193504      -0.696737360127360      -0.693777353009760     
 -0.690820667530960      -0.687867496044809      -0.684918108470862     
 -0.681972873231533      -0.679032156294982      -0.676096158454531     
 -0.673164844206495      -0.670238011138703      -0.667315425401693     
 -0.664396942113060      -0.661482559681959      -0.658572407357685     
 -0.655666706606168      -0.652765734705132      -0.649869777672048     
 -0.646979053328799      -0.644093625201188      -0.641213358344898     
 -0.638337973136375      -0.635467214976040      -0.632601076217747     
 -0.629739960497758      -0.626884678515921      -0.624036222873327     
 -0.621195393666314      -0.618362412000114      -0.615536594862326     
 -0.612716169783145      -0.609898451348831      -0.607080336639662     
 -0.604258583124672      -0.601429662915746      -0.598589605103871     
 -0.595734007572508      -0.592857936413236      -0.589955731438055     
 -0.587021284909552      -0.584049250786305      -0.581036908426191     
 -0.577985291044150      -0.574898132379918      -0.571779701719973     
 -0.568634109164227      -0.565466333743437      -0.562283377833509     
 -0.559094668136807      -0.555911826052991      -0.552748137084219     
 -0.549617772000131      -0.546534759027247      -0.543512070971338     
 -0.540561151170856      -0.537691812605045      -0.534912553464220     
 -0.532231458840564      -0.529657398080635      -0.527200927328561     
 -0.524874495051813      -0.522691737741000      -0.520665783849235     
 -0.518806599549802      -0.517117208538860      -0.515587960633357     
 -0.514188147056240      -0.512856915511843      -0.511497339817615     
 -0.509974926665390      -0.508123265132598      -0.505767595009104     
 -0.502770865712466      -0.499089832314964      -0.494821915706316     
 -0.490212143392033      -0.485589923794329      -0.481259946478551     
 -0.477425511478328      -0.474183349064042      -0.471555399118572     
 -0.469517102338841      -0.468013325799118      -0.466966573856409     
 -0.466281276118805      -0.465847305872517      -0.465546414314744     
 -0.465262598755685      -0.464893402342873      -0.464358214869681     
 -0.463601549608429      -0.462591604427351      -0.461315897556041     
 -0.459776067818962      -0.457983258479844      -0.455954536090675     
 -0.453710188757116      -0.451271820216896      -0.448660893311433     
 -0.445896078958413      -0.442986306422190      -0.439916861887831     
 -0.436628749014939      -0.432994806654158      -0.428802650556771     
 -0.423776028831157      -0.417697143673803      -0.410656759307112     
 -0.403227897245815      -0.396219732482335      -0.390242991022742     
 -0.385612168248683      -0.382509042313973      -0.381142840557291     
 -0.381845229850287      -0.385098000111127      -0.391436980841033     
 -0.401274850768385      -0.414877890968041      -0.432317886212480     
 -0.451363291025010      -0.469422766719493      -0.485338905461344     
 -0.497732862395383      -0.506246837007234      -0.511538908789233     
 -0.514347959199767      -0.515202520860694      -0.514457434133009     
 -0.512338780766400      -0.508976986563818      -0.504452154909393     
 -0.498843682239479      -0.492259327590197      -0.484832244409465     
 -0.476703933382113      -0.468021920824234      -0.458958710626411     
 -0.449718607023679      -0.440465406534496      -0.431107822072403     
 -0.420902345488937      -0.408708436546796      -0.395857033606891     
 -0.384309227258494      -0.374960912815709      -0.368751198444137     
 -0.366490424194284      -0.367899531413647      -0.371173777693379     
 -0.373862695297346      -0.373813460383094      -0.372019065577024     
 -0.841157148617401      -0.839205332874314      -0.835294702619432     
 -0.831679647132386      -0.828217459506116      -0.824847960320659     
 -0.821539607811209      -0.818273742038147      -0.815038433497253     
 -0.811825677886154      -0.808629979767262      -0.805447562706869     
 -0.802275884587756      -0.799113311714569      -0.795958856610254     
 -0.792811904904254      -0.789671981794057      -0.786538674356649     
 -0.783411623341732      -0.780290482135160      -0.777174865035253     
 -0.774064311271901      -0.770958251981293      -0.767855976027215     
 -0.764756601302373      -0.761659034698647      -0.758561917338820     
 -0.755463591087402      -0.752362105456852      -0.749255262149324     
 -0.746140705395873      -0.743016066559914      -0.739879162612606     
 -0.736728235079675      -0.733562182144780      -0.730380701831178     
 -0.727184294486579      -0.723974148854193      -0.720751974184214     
 -0.717519813881842      -0.714279831004123      -0.711034070541691     
 -0.707784266710187      -0.704531770346561      -0.701277609412217     
 -0.698022609332858      -0.694767479378808      -0.691512831673549     
 -0.688259145471439      -0.685006729721448      -0.681755737122303     
 -0.678506260839178      -0.675258519776150      -0.672013007864600     
 -0.668770351096002      -0.665530888758134      -0.662294433240065     
 -0.659060426302180      -0.655828246387442      -0.652597474553282     
 -0.649368051616726      -0.646140251264432      -0.642914533503627     
 -0.639691426884422      -0.636471457145978      -0.633255026217255     
 -0.630042212750734      -0.626832571293703      -0.623625057656026     
 -0.620418229526910      -0.617210739110183      -0.614002041642948     
 -0.610793079205047      -0.607586429577812      -0.604385654401645     
 -0.601193944521514      -0.598012458511080      -0.594839066012151     
 -0.591668513251265      -0.588494405281504      -0.585311291364404     
 -0.582114788784826      -0.578900482030022      -0.575663604176842     
 -0.572399260077571      -0.569101918836419      -0.565765164871701     
 -0.562383269269489      -0.558953722313015      -0.555477923378661     
 -0.551958878859739      -0.548399193721308      -0.544801964489866     
 -0.541172541830287      -0.537519185398164      -0.533853068879721     
 -0.530188387622554      -0.526542463429170      -0.522935156123445     
 -0.519386503598126      -0.515912971669667      -0.512525666904068     
 -0.509231711222084      -0.506035972310255      -0.502941969368548     
 -0.499952609183644      -0.497070891565161      -0.494300908977169     
 -0.491649442547927      -0.489126534152444      -0.486742958944424     
 -0.484505426730185      -0.482411801502930      -0.480446026042212     
 -0.478569605162654      -0.476707152384907      -0.474727821930274     
 -0.472435714466453      -0.469601537774463      -0.466058859836288     
 -0.461843129405959      -0.457279726718441      -0.452873261274030     
 -0.449021324427752      -0.445834103248834      -0.443226759590105     
 -0.441103548424274      -0.439432768354586      -0.438220259280541     
 -0.437462020658414      -0.437116530800591      -0.437099512897614     
 -0.437291708865591      -0.437553953854971      -0.437746772176682     
 -0.437749222448302      -0.437472096918043      -0.436862978393952     
 -0.435902978832728      -0.434597314220888      -0.432963571542311     
 -0.431021369765583      -0.428785555542293      -0.426263553809321     
 -0.423456854203049      -0.420365446094206      -0.416991182904041     
 -0.413334192749491      -0.409382562146981      -0.405101014635111     
 -0.400422071240286      -0.395252406407912      -0.389528255845900     
 -0.383320386287203      -0.376885808560613      -0.370574722563663     
 -0.364681643130632      -0.359372560255301      -0.354699479913581     
 -0.350667142085790      -0.347312619441887      -0.344762317582543     
 -0.343253999509412      -0.343132984518345      -0.344835153714335     
 -0.348839025420067      -0.355576832471680      -0.365290394059786     
 -0.377702680170324      -0.391576377068733      -0.405087054491274     
 -0.416526464431104      -0.424450869513031      -0.428320578925964     
 -0.428667441881907      -0.426538516638905      -0.422876960255603     
 -0.418292406001362      -0.413118578466968      -0.407520226150008     
 -0.401565940458766      -0.395277287459676      -0.388673560594356     
 -0.381806905893747      -0.374768143119766      -0.367657652513338     
 -0.360546290353013      -0.353463456964335      -0.346424297395865     
 -0.339470186773575      -0.332695940700151      -0.326276773443955     
 -0.320534536522985      -0.316079980156016      -0.313964590804895     
 -0.315292013387498      -0.319748491080335      -0.325613801030996     
 -0.331111897125754      -0.334473923657648      -0.334331266759773     
 -0.841389548617401      -0.839437732874314      -0.835583123531872     
 -0.831967401680657      -0.828475073280426      -0.825058093378711     
 -0.821691420516595      -0.818360336405017      -0.815055397883897     
 -0.811770062199080      -0.808499526999529      -0.805240207976482     
 -0.801989484655704      -0.798745524652305      -0.795507141653197     
 -0.792273639735223      -0.789044577153686      -0.785819585457446     
 -0.782598348622290      -0.779380562677135      -0.776165887610810     
 -0.772953930081478      -0.769744208536645      -0.766536107955457     
 -0.763328848588275      -0.760121430779533      -0.756912544527680     
 -0.753700509911538      -0.750483262051535      -0.747258363576981     
 -0.744023077075383      -0.740774527227190      -0.737509954869911     
 -0.734227048099879      -0.730924291611902      -0.727601205883665     
 -0.724258383967247      -0.720897369193223      -0.717520440531818     
 -0.714130317209412      -0.710729785572028      -0.707321308496601     
 -0.703906785404799      -0.700487564588750      -0.697064628532883     
 -0.693638782950278      -0.690210748083881      -0.686781146070254     
 -0.683350407269330      -0.679918702671863      -0.676485999723606     
 -0.673052314010550      -0.669618095665082      -0.666184251131555     
 -0.662751448734138      -0.659319499854445      -0.655887522221016     
 -0.652454492025521      -0.649019685663692      -0.645582966084451     
 -0.642144839666334      -0.638706181310611      -0.635267890356932     
 -0.631830735891181      -0.628395300772218      -0.624961865589135     
 -0.621530275890468      -0.618099834618789      -0.614669251866244     
 -0.611236873267699      -0.607801238573237      -0.604362012542687     
 -0.600921008464794      -0.597482365633363      -0.594051191125349     
 -0.590630787773766      -0.587220034867352      -0.583812859911930     
 -0.580400248236370      -0.576973625299477      -0.573526834801148     
 -0.570055564696279      -0.566556770482848      -0.563029027528107     
 -0.559472024480990      -0.555885430715495      -0.552268947292545     
 -0.548623081398486      -0.544949136421551      -0.541248324958737     
 -0.537521784852384      -0.533772108501121      -0.530004836358663     
 -0.526229359558287      -0.522459111629609      -0.518710454844896     
 -0.515000378351783      -0.511344314598071      -0.507753890549063     
 -0.504233449491146      -0.500780115353937      -0.497388952455968     