 Title = "Wing and Wake"
 VARIABLES = "X" "Y" "Z" "GAM"
 Zone I=   11 J=   35 K=1  T="Blade"
 DATAPACKING=BLOCK
 VARLOCATION=([4]=CELLCENTERED)
   35.3870000000000        35.6159880566035        36.1592027477496     
   37.0641188481484        38.3757555277537        39.9766205749876     
   41.5748272317974        42.8820055397633        43.7877605977340     
   44.3455943688894        44.6645852450192        31.7030179610980     
   31.9599052097049        32.5434663552785        33.5124413016363     
   34.9159883767880        36.6290666303946        38.3396429523983     
   39.7389939241211        40.7087584941882        41.3060787130846     
   41.6476744590230        28.0190360161652        28.3038223628062     
   28.9277298688381        29.9607637551241        31.4562213197915     
   33.2815126858015        35.1044585790300        36.5959822145097     
   37.6297563906424        38.2665630572798        38.6307636730268     
   24.3350539772632        24.6477394219383        25.3119934763670     
   26.4090862086120        27.9964541688258        29.9339588351777     
   31.8692742056616        33.4529705048983        34.5507541931274     
   35.2270474014750        35.6138528870306        20.6510719383612     
   20.9916565750397        21.6962569899266        22.8574086620999     
   24.5366870178602        26.5864048905846        28.6340898322933     
   30.3099588892561        31.4717520895816        32.1875317456702     
   32.5969421010344        16.9670899934285        17.3355737281410     
   18.0805205974555        19.3057311155878        21.0769198668945     
   23.2388509459916        25.3989054589250        27.1669471796447     
   28.3927498920665        29.1480160898655        29.5800312210689     
   13.2831079545265        13.6794908812424        14.4647841110152     
   15.7540535690756        17.6171528098981        19.8912970013985     
   22.1637210855566        24.0239354700333        25.3137477885208     
   26.1085004340607        26.5631204350727        9.59912591562451     
   10.0234079403745        10.8490477185441        12.2023760225635     
   14.1573856589324        16.5437430568055        18.9285368061576     
   20.8809237604219        22.2347456849750        23.0689847782559     
   23.5462096490765        5.91514397069178        6.36732509347584     
   7.23331123210369        8.65069847605135        10.6976185079667     
   13.1961891122124        15.6933524327892        17.7379121447797     
   19.1557434874599        20.0294692164204        20.5292988630803     
   2.23116193178979        2.71124224657720        3.61757483963257     
   5.09902092953921        7.23785135700101        9.84863526158861     
   12.4581680594209        14.5949004351683        16.0767413839142     
   16.9899535606156        17.5123880770841       -1.45282001314295     
 -0.944840694290716       1.838447161463641E-003   1.54734338302709     
   3.77808430000460        6.50108131699556        9.22298368605255     
   11.4518887255568        12.9977391863991        13.9504379048108     
   14.4954772910879       -5.13680205204495       -4.60092354118938     
  -3.61389803927891       -2.00433416348505       0.318317149038907     
   3.15352737240249        5.98779931268423        8.30887710991468     
   9.91873708285334        10.9109222490060        11.4785665050917     
  -8.82078409094696       -8.25700638808803       -7.22963443175003     
  -5.55601170999719       -3.14145000192678      -0.194026572190564     
   2.75261503328516        5.16586540030325        6.83973497930756     
   7.87140659320123        8.46165571909548       -12.5047660358797     
  -11.9130893289559       -10.8453709181904       -9.10768925650933     
  -6.60121715289247       -3.54158051678363      -0.482569340083186     
   2.02285369069184        3.76073278179252        4.83189093739646     
   5.44474483913001       -16.1887480747817       -15.5691721758546     
  -14.4611073106615       -12.6593668030215       -10.0609842098889     
  -6.88913446137670       -3.71775371345153       -1.12015792495034     
  0.681730678246740        1.79237528159167        2.42783405313381     
  -19.8727301136837       -19.2252550227533       -18.0768437971019     
  -16.2110443495336       -13.5207513608546       -10.2366883120005     
  -6.95293808681987       -4.26316963456177       -2.39727151926831     
  -1.24714037421312      -0.589076732862400       -23.5567120586164     
  -22.8813378696519       -21.6925801895730       -19.7627218960457     
  -16.9805185118203       -13.5842422565936       -10.1881224601882     
  -7.40618134417320       -5.47627362281409       -4.28665593604864     
  -3.60598751885861       -27.2406940975184       -26.5374208105198     
  -25.3083166760134       -23.3143994425579       -20.4402855688167     
  -16.9317962011866       -13.4233068335565       -10.5491929598154     
  -8.55527572635988       -7.32617159185344       -6.62289830485481     
  -23.5567120586164       -22.8813378696519       -21.6925801895730     
  -19.7627218960457       -16.9805185118203       -13.5842422565936     
  -10.1881224601882       -7.40618134417320       -5.47627362281409     
  -4.28665593604864       -3.60598751885861       -19.8727301136837     
  -19.2252550227533       -18.0768437971019       -16.2110443495336     
  -13.5207513608546       -10.2366883120005       -6.95293808681987     
  -4.26316963456177       -2.39727151926831       -1.24714037421312     
 -0.589076732862400       -16.1887480747817       -15.5691721758546     
  -14.4611073106615       -12.6593668030215       -10.0609842098889     
  -6.88913446137670       -3.71775371345153       -1.12015792495034     
  0.681730678246740        1.79237528159167        2.42783405313381     
  -12.5047660358797       -11.9130893289559       -10.8453709181904     
  -9.10768925650933       -6.60121715289247       -3.54158051678363     
 -0.482569340083186        2.02285369069184        3.76073278179252     
   4.83189093739646        5.44474483913001       -8.82078409094696     
  -8.25700638808803       -7.22963443175003       -5.55601170999719     
  -3.14145000192678      -0.194026572190564        2.75261503328516     
   5.16586540030325        6.83973497930756        7.87140659320123     
   8.46165571909548       -5.13680205204495       -4.60092354118938     
  -3.61389803927891       -2.00433416348505       0.318317149038907     
   3.15352737240249        5.98779931268423        8.30887710991468     
   9.91873708285334        10.9109222490060        11.4785665050917     
  -1.45282001314295      -0.944840694290716       1.838447161463641E-003
   1.54734338302709        3.77808430000460        6.50108131699556     
   9.22298368605255        11.4518887255568        12.9977391863991     
   13.9504379048108        14.4954772910879        2.23116193178979     
   2.71124224657720        3.61757483963257        5.09902092953921     
   7.23785135700101        9.84863526158861        12.4581680594209     
   14.5949004351683        16.0767413839142        16.9899535606156     
   17.5123880770841        5.91514397069178        6.36732509347584     
   7.23331123210369        8.65069847605135        10.6976185079667     
   13.1961891122124        15.6933524327892        17.7379121447797     
   19.1557434874599        20.0294692164204        20.5292988630803     
   9.59912591562451        10.0234079403745        10.8490477185441     
   12.2023760225635        14.1573856589324        16.5437430568055     
   18.9285368061576        20.8809237604219        22.2347456849750     
   23.0689847782559        23.5462096490765        13.2831079545265     
   13.6794908812424        14.4647841110152        15.7540535690756     
   17.6171528098981        19.8912970013985        22.1637210855566     
   24.0239354700333        25.3137477885208        26.1085004340607     
   26.5631204350727        16.9670899934285        17.3355737281410     
   18.0805205974555        19.3057311155878        21.0769198668945     
   23.2388509459916        25.3989054589250        27.1669471796447     
   28.3927498920665        29.1480160898655        29.5800312210689     
   20.6510719383612        20.9916565750397        21.6962569899266     
   22.8574086620999        24.5366870178602        26.5864048905846     
   28.6340898322933        30.3099588892561        31.4717520895816     
   32.1875317456702        32.5969421010344        24.3350539772632     
   24.6477394219383        25.3119934763670        26.4090862086120     
   27.9964541688258        29.9339588351777        31.8692742056616     
   33.4529705048983        34.5507541931274        35.2270474014750     
   35.6138528870306        28.0190360161652        28.3038223628062     
   28.9277298688381        29.9607637551241        31.4562213197915     
   33.2815126858015        35.1044585790300        36.5959822145097     
   37.6297563906424        38.2665630572798        38.6307636730268     
   31.7030179610980        31.9599052097049        32.5434663552785     
   33.5124413016363        34.9159883767880        36.6290666303946     
   38.3396429523983        39.7389939241211        40.7087584941882     
   41.3060787130846        41.6476744590230        35.3870000000000     
   35.6159880566035        36.1592027477496        37.0641188481484     
   38.3757555277537        39.9766205749876        41.5748272317974     
   42.8820055397633        43.7877605977340        44.3455943688894     
   44.6645852450192     
  -63.6300000000000       -63.6300000000000       -63.6300000000000     
  -63.6300000000000       -63.6300000000000       -63.6300000000000     
  -63.6300000000000       -63.6300000000000       -63.6300000000000     
  -63.6300000000000       -63.6300000000000       -59.8870588000000     
  -59.8870588000000       -59.8870588000000       -59.8870588000000     
  -59.8870588000000       -59.8870588000000       -59.8870588000000     
  -59.8870588000000       -59.8870588000000       -59.8870588000000     
  -59.8870588000000       -56.1441176000000       -56.1441176000000     
  -56.1441176000000       -56.1441176000000       -56.1441176000000     
  -56.1441176000000       -56.1441176000000       -56.1441176000000     
  -56.1441176000000       -56.1441176000000       -56.1441176000000     
  -52.4011765000000       -52.4011765000000       -52.4011765000000     
  -52.4011765000000       -52.4011765000000       -52.4011765000000     
  -52.4011765000000       -52.4011765000000       -52.4011765000000     
  -52.4011765000000       -52.4011765000000       -48.6582353000000     
  -48.6582353000000       -48.6582353000000       -48.6582353000000     
  -48.6582353000000       -48.6582353000000       -48.6582353000000     
  -48.6582353000000       -48.6582353000000       -48.6582353000000     
  -48.6582353000000       -44.9152941000000       -44.9152941000000     
  -44.9152941000000       -44.9152941000000       -44.9152941000000     
  -44.9152941000000       -44.9152941000000       -44.9152941000000     
  -44.9152941000000       -44.9152941000000       -44.9152941000000     
  -41.1723529000000       -41.1723529000000       -41.1723529000000     
  -41.1723529000000       -41.1723529000000       -41.1723529000000     
  -41.1723529000000       -41.1723529000000       -41.1723529000000     
  -41.1723529000000       -41.1723529000000       -37.4294118000000     
  -37.4294118000000       -37.4294118000000       -37.4294118000000     
  -37.4294118000000       -37.4294118000000       -37.4294118000000     
  -37.4294118000000       -37.4294118000000       -37.4294118000000     
  -37.4294118000000       -33.6864706000000       -33.6864706000000     
  -33.6864706000000       -33.6864706000000       -33.6864706000000     
  -33.6864706000000       -33.6864706000000       -33.6864706000000     
  -33.6864706000000       -33.6864706000000       -33.6864706000000     
  -29.9435294000000       -29.9435294000000       -29.9435294000000     
  -29.9435294000000       -29.9435294000000       -29.9435294000000     
  -29.9435294000000       -29.9435294000000       -29.9435294000000     
  -29.9435294000000       -29.9435294000000       -26.2005882000000     
  -26.2005882000000       -26.2005882000000       -26.2005882000000     
  -26.2005882000000       -26.2005882000000       -26.2005882000000     
  -26.2005882000000       -26.2005882000000       -26.2005882000000     
  -26.2005882000000       -22.4576471000000       -22.4576471000000     
  -22.4576471000000       -22.4576471000000       -22.4576471000000     
  -22.4576471000000       -22.4576471000000       -22.4576471000000     
  -22.4576471000000       -22.4576471000000       -22.4576471000000     
  -18.7147059000000       -18.7147059000000       -18.7147059000000     
  -18.7147059000000       -18.7147059000000       -18.7147059000000     
  -18.7147059000000       -18.7147059000000       -18.7147059000000     
  -18.7147059000000       -18.7147059000000       -14.9717647000000     
  -14.9717647000000       -14.9717647000000       -14.9717647000000     
  -14.9717647000000       -14.9717647000000       -14.9717647000000     
  -14.9717647000000       -14.9717647000000       -14.9717647000000     
  -14.9717647000000       -11.2288235000000       -11.2288235000000     
  -11.2288235000000       -11.2288235000000       -11.2288235000000     
  -11.2288235000000       -11.2288235000000       -11.2288235000000     
  -11.2288235000000       -11.2288235000000       -11.2288235000000     
  -7.48588240000000       -7.48588240000000       -7.48588240000000     
  -7.48588240000000       -7.48588240000000       -7.48588240000000     
  -7.48588240000000       -7.48588240000000       -7.48588240000000     
  -7.48588240000000       -7.48588240000000       -3.74294120000000     
  -3.74294120000000       -3.74294120000000       -3.74294120000000     
  -3.74294120000000       -3.74294120000000       -3.74294120000000     
  -3.74294120000000       -3.74294120000000       -3.74294120000000     
  -3.74294120000000       0.000000000000000E+000  0.000000000000000E+000
  0.000000000000000E+000  0.000000000000000E+000  0.000000000000000E+000
  0.000000000000000E+000  0.000000000000000E+000  0.000000000000000E+000
  0.000000000000000E+000  0.000000000000000E+000  0.000000000000000E+000
   3.74294120000000        3.74294120000000        3.74294120000000     
   3.74294120000000        3.74294120000000        3.74294120000000     
   3.74294120000000        3.74294120000000        3.74294120000000     
   3.74294120000000        3.74294120000000        7.48588240000000     
   7.48588240000000        7.48588240000000        7.48588240000000     
   7.48588240000000        7.48588240000000        7.48588240000000     
   7.48588240000000        7.48588240000000        7.48588240000000     
   7.48588240000000        11.2288235000000        11.2288235000000     
   11.2288235000000        11.2288235000000        11.2288235000000     
   11.2288235000000        11.2288235000000        11.2288235000000     
   11.2288235000000        11.2288235000000        11.2288235000000     
   14.9717647000000        14.9717647000000        14.9717647000000     
   14.9717647000000        14.9717647000000        14.9717647000000     
   14.9717647000000        14.9717647000000        14.9717647000000     
   14.9717647000000        14.9717647000000        18.7147059000000     
   18.7147059000000        18.7147059000000        18.7147059000000     
   18.7147059000000        18.7147059000000        18.7147059000000     
   18.7147059000000        18.7147059000000        18.7147059000000     
   18.7147059000000        22.4576471000000        22.4576471000000     
   22.4576471000000        22.4576471000000        22.4576471000000     
   22.4576471000000        22.4576471000000        22.4576471000000     
   22.4576471000000        22.4576471000000        22.4576471000000     
   26.2005882000000        26.2005882000000        26.2005882000000     
   26.2005882000000        26.2005882000000        26.2005882000000     
   26.2005882000000        26.2005882000000        26.2005882000000     
   26.2005882000000        26.2005882000000        29.9435294000000     
   29.9435294000000        29.9435294000000        29.9435294000000     
   29.9435294000000        29.9435294000000        29.9435294000000     
   29.9435294000000        29.9435294000000        29.9435294000000     
   29.9435294000000        33.6864706000000        33.6864706000000     
   33.6864706000000        33.6864706000000        33.6864706000000     
   33.6864706000000        33.6864706000000        33.6864706000000     
   33.6864706000000        33.6864706000000        33.6864706000000     
   37.4294118000000        37.4294118000000        37.4294118000000     
   37.4294118000000        37.4294118000000        37.4294118000000     
   37.4294118000000        37.4294118000000        37.4294118000000     
   37.4294118000000        37.4294118000000        41.1723529000000     
   41.1723529000000        41.1723529000000        41.1723529000000     
   41.1723529000000        41.1723529000000        41.1723529000000     
   41.1723529000000        41.1723529000000        41.1723529000000     
   41.1723529000000        44.9152941000000        44.9152941000000     
   44.9152941000000        44.9152941000000        44.9152941000000     
   44.9152941000000        44.9152941000000        44.9152941000000     
   44.9152941000000        44.9152941000000        44.9152941000000     
   48.6582353000000        48.6582353000000        48.6582353000000     
   48.6582353000000        48.6582353000000        48.6582353000000     
   48.6582353000000        48.6582353000000        48.6582353000000     
   48.6582353000000        48.6582353000000        52.4011765000000     
   52.4011765000000        52.4011765000000        52.4011765000000     
   52.4011765000000        52.4011765000000        52.4011765000000     
   52.4011765000000        52.4011765000000        52.4011765000000     
   52.4011765000000        56.1441176000000        56.1441176000000     
   56.1441176000000        56.1441176000000        56.1441176000000     
   56.1441176000000        56.1441176000000        56.1441176000000     
   56.1441176000000        56.1441176000000        56.1441176000000     
   59.8870588000000        59.8870588000000        59.8870588000000     
   59.8870588000000        59.8870588000000        59.8870588000000     
   59.8870588000000        59.8870588000000        59.8870588000000     
   59.8870588000000        59.8870588000000        63.6300000000000     
   63.6300000000000        63.6300000000000        63.6300000000000     
   63.6300000000000        63.6300000000000        63.6300000000000     
   63.6300000000000        63.6300000000000        63.6300000000000     
   63.6300000000000     
  0.000000000000000E+000 -8.334483660616801E-002 -0.281058814999443     
 -0.610421340052857       -1.08781804960092       -1.67048527587124     
  -2.25218492715610       -2.72795892213415       -3.05762680277153     
  -3.26066169114056       -3.37676487505432        1.34085980573164     
   1.24736049367618        1.03496160681310       0.682283568589177     
  0.171434210842574      -0.452075282438957       -1.07467414708888     
  -1.58399624808748       -1.93696168583784       -2.15436846584151     
  -2.27869914951505        2.68171957726127        2.57806582395852     
   2.35098206282766        1.97498847723121        1.43068643708405     
  0.766334710993331       0.102836667180349      -0.440033539838790     
 -0.816296568904154       -1.04807524054245       -1.18063342397578     
   4.02257938299292        3.90877118844288        3.66700248464021     
   3.26769338587324        2.68993869752755        1.98474467022360     
   1.28034748144958       0.703929168409901       0.304368582231550     
  5.821798475661057E-002 -8.256769843650580E-002   5.36343918872456     
   5.23947651872523        4.98302294065476        4.56039829451528     
   3.94919095797104        3.20315466365589        2.45785829571881     
   1.84789184245657        1.42503369916524        1.16451121005567     
   1.01549802710277        6.70429896025419        6.57018184900758     
   6.29904336246731        5.85310320315731        5.20844321841453     
   4.42156465708818        3.63536910998804        2.99185455070526     
   2.54569885030094        2.27080443535473        2.11356378684405     
   8.04515876598583        7.90088717928993        7.61506381848187     
   7.14580811179934        6.46769544465601        5.63997465052046     
   4.81287992425727        4.13581725895395        3.66636396723463     
   3.37709766065379        3.21162951238333        9.38601857171748     
   9.23159254377429        8.93108424029441        8.43851302044138     
   7.72694770509951        6.85838464395275        5.99039070432449     
   5.27977996720264        4.78702908416832        4.48339088595284     
   4.30969523792260        10.7268783432471        10.5622978740566     
   10.2471046963090        9.73121792908341        8.98619996554300     
   8.07679463738504        7.16790151859372        6.42374264124932     
   5.90769423530402        5.58968407704989        5.40776096346188     
   12.0677381489787        11.8930032043390        11.5631251181215     
   11.0239228377254        10.2454522259865        9.29520459661531     
   8.34541233286296        7.56770534949801        7.02835935223771     
   6.69597730234895        6.50582668900115        13.4085979205084     
   13.2237085688233        12.8791455399341        12.3166277463675     
   11.5047044522280        10.5136145900476        9.52292314713219     
   8.71166805774669        8.14902450337341        7.80227052764800     
   7.60389241454042        14.7494577262400        14.5544138991057     
   14.1951659959486        13.6093326550095        12.7639567126715     
   11.7320245834799        10.7004339614014        9.85563073179337     
   9.26968962030710        8.90856375294706        8.70195814007969     
   16.0903175319717        15.8851192293880        15.5111864177612     
   14.9020375636515        14.0232089731150        12.9504345769122     
   11.8779447414686        10.9995934400421        10.3903547372408     
   10.0148569782461        9.80002386561897        17.4311773035013     
   17.2158245938724        16.8272068737757        16.1947424722936     
   15.2824612335585        14.1688445703445        13.0554555557379     
   12.1435561482907        11.5110198883765        11.1211502035452     
   10.8980896253603        18.7720371092329        18.5465299241547     
   18.1432272955883        17.4874473809356        16.5417134597999     
   15.3872545637768        14.2329663700071        13.2875188223374     
   12.6316850053102        12.2274434288442        11.9961553508995     
   20.1128969149646        19.8772352544371        19.4592477516028     
   18.7801522895776        17.8009657202434        16.6056645230070     
   15.4104771842763        14.4314815305861        13.7523501564459     
   13.3337366541433        13.0942210764388        21.4537566864942     
   21.2079405847194        20.7752681734154        20.0728571982197     
   19.0602179806869        17.8240745164393        16.5879879985456     
   15.5754442388348        14.8730152733796        14.4400298452403     
   14.1922868019781        22.7946164922258        22.5386459492038     
   22.0912886294299        21.3655621068617        20.3194702069284     
   19.0424845098716        17.7654988128148        16.7194069128815     
   15.9936803903133        15.5463230705394        15.2903525275173     
   21.4537566864942        21.2079405847194        20.7752681734154     
   20.0728571982197        19.0602179806869        17.8240745164393     
   16.5879879985456        15.5754442388348        14.8730152733796     
   14.4400298452403        14.1922868019781        20.1128969149646     
   19.8772352544371        19.4592477516028        18.7801522895776     
   17.8009657202434        16.6056645230070        15.4104771842763     
   14.4314815305861        13.7523501564459        13.3337366541433     
   13.0942210764388        18.7720371092329        18.5465299241547     
   18.1432272955883        17.4874473809356        16.5417134597999     
   15.3872545637768        14.2329663700071        13.2875188223374     
   12.6316850053102        12.2274434288442        11.9961553508995     
   17.4311773035013        17.2158245938724        16.8272068737757     
   16.1947424722936        15.2824612335585        14.1688445703445     
   13.0554555557379        12.1435561482907        11.5110198883765     
   11.1211502035452        10.8980896253603        16.0903175319717     
   15.8851192293880        15.5111864177612        14.9020375636515     
   14.0232089731150        12.9504345769122        11.8779447414686     
   10.9995934400421        10.3903547372408        10.0148569782461     
   9.80002386561897        14.7494577262400        14.5544138991057     
   14.1951659959486        13.6093326550095        12.7639567126715     
   11.7320245834799        10.7004339614014        9.85563073179337     
   9.26968962030710        8.90856375294706        8.70195814007969     
   13.4085979205084        13.2237085688233        12.8791455399341     
   12.3166277463675        11.5047044522280        10.5136145900476     
   9.52292314713219        8.71166805774669        8.14902450337341     
   7.80227052764800        7.60389241454042        12.0677381489787     
   11.8930032043390        11.5631251181215        11.0239228377254     
   10.2454522259865        9.29520459661531        8.34541233286296     
   7.56770534949801        7.02835935223771        6.69597730234895     
   6.50582668900115        10.7268783432471        10.5622978740566     
   10.2471046963090        9.73121792908341        8.98619996554300     
   8.07679463738504        7.16790151859372        6.42374264124932     
   5.90769423530402        5.58968407704989        5.40776096346188     
   9.38601857171748        9.23159254377429        8.93108424029441     
   8.43851302044138        7.72694770509951        6.85838464395275     
   5.99039070432449        5.27977996720264        4.78702908416832     
   4.48339088595284        4.30969523792260        8.04515876598583     
   7.90088717928993        7.61506381848187        7.14580811179934     
   6.46769544465601        5.63997465052046        4.81287992425727     
   4.13581725895395        3.66636396723463        3.37709766065379     
   3.21162951238333        6.70429896025419        6.57018184900758     
   6.29904336246731        5.85310320315731        5.20844321841453     
   4.42156465708818        3.63536910998804        2.99185455070526     
   2.54569885030094        2.27080443535473        2.11356378684405     
   5.36343918872456        5.23947651872523        4.98302294065476     
   4.56039829451528        3.94919095797104        3.20315466365589     
   2.45785829571881        1.84789184245657        1.42503369916524     
   1.16451121005567        1.01549802710277        4.02257938299292     
   3.90877118844288        3.66700248464021        3.26769338587324     
   2.68993869752755        1.98474467022360        1.28034748144958     
  0.703929168409901       0.304368582231550       5.821798475661057E-002
 -8.256769843650580E-002   2.68171957726127        2.57806582395852     
   2.35098206282766        1.97498847723121        1.43068643708405     
  0.766334710993331       0.102836667180349      -0.440033539838790     
 -0.816296568904154       -1.04807524054245       -1.18063342397578     
   1.34085980573164        1.24736049367618        1.03496160681310     
  0.682283568589177       0.171434210842574      -0.452075282438957     
  -1.07467414708888       -1.58399624808748       -1.93696168583784     
  -2.15436846584151       -2.27869914951505       0.000000000000000E+000
 -8.334483660616801E-002 -0.281058814999443      -0.610421340052857     
  -1.08781804960092       -1.67048527587124       -2.25218492715610     
  -2.72795892213415       -3.05762680277153       -3.26066169114056     
  -3.37676487505432     
   9.47811980989183        18.5232968539678        27.2250764491858     
   34.8395517711618        40.1434937033278        42.9986688263403     
   44.2012330192800        44.5855938897799        44.6724455902720     
   44.6924750793895        11.2676807298935        21.7964445593582     
   32.3163359373988        42.3181859521015        50.3998565598219     
   55.6002487814568        58.2265248505921        59.2864926771921     
   59.6390826796328        59.7459366350588        12.4737509695362     
   23.8264921835927        35.2759439309593        46.3560729335601     
   55.6128418294685        61.8882020345142        65.2672214266235     
   66.7255338850511        67.2424985539293        67.4041086648537     
   13.4953681719709        25.4840410179852        37.6208860084485     
   49.4369429515628        59.4091546326923        66.2734811214775     
   70.0384626029514        71.6909064310107        72.2817615588459     
   72.4668763817619        14.4315577578051        26.9791794373455     
   39.7068091825700        52.1290824625123        62.6490443709549     
   69.9215489125295        73.9252221034262        75.6820902710575     
   76.3040162677883        76.4969586049070        15.3165842889621     
   28.3829856127271        41.6524220192619        54.6190858833472     
   65.6117241622855        73.2141502409718        77.3927484609011     
   79.2143273995153        79.8476503588680        80.0407579678695     
   16.1628599723530        29.7210619220242        43.5011219264902     
   56.9763908026921        68.4024922329275        76.2966992637525     
   80.6199992377258        82.4874334919742        83.1225138316478     