 Title = "Wing and Wake"
 VARIABLES = "X" "Y" "Z" "GAM" "skew"
 Zone I=   17 J=   20 K=1  T="Blade 01"
 DATAPACKING=BLOCK
 VARLOCATION=([4]=CELLCENTERED,[5]=CELLCENTERED)
  0.221663389895089       0.222945346372701       0.226247273857758     
  0.231211479631007       0.237987540569032       0.246850225223240     
  0.257876833540092       0.270737092178081       0.284664269726170     
  0.298568610849389       0.311369581437882       0.322310953790682     
  0.331067286214962       0.337733685419691       0.342607807512595     
  0.346067152300401       0.348454094645646       0.227471095821215     
  0.228753052298827       0.232054979783884       0.237019185557133     
  0.243795246495156       0.252657931149364       0.263684539466218     
  0.276544798104207       0.290471975652297       0.304376316775514     
  0.317177287364007       0.328118659716809       0.336874992141088     
  0.343541391345818       0.348415513438719       0.351874858226527     
  0.354261800571772       0.235684515813590       0.236966472291201     
  0.240268399776258       0.245232605549508       0.252008666487531     
  0.260871351141738       0.271897959458592       0.284758218096580     
  0.298685395644671       0.312589736767889       0.325390707356382     
  0.336332079709183       0.345088412133462       0.351754811338191     
  0.356628933431095       0.360088278218901       0.362475220564147     
  0.247150746589874       0.248432703067485       0.251734630552543     
  0.256698836325791       0.263474897263816       0.272337581918023     
  0.283364190234877       0.296224448872865       0.310151626420955     
  0.324055967544172       0.336856938132665       0.347798310485467     
  0.356554642909746       0.363221042114476       0.368095164207379     
  0.371554508995185       0.373941451340431       0.262872225416433     
  0.264154181894045       0.267456109379102       0.272420315152351     
  0.279196376090375       0.288059060744583       0.299085669061436     
  0.311945927699424       0.325873105247515       0.339777446370731     
  0.352578416959224       0.363519789312026       0.372276121736306     
  0.378942520941036       0.383816643033938       0.387275987821745     
  0.389662930166990       0.283903846607671       0.285185803085282     
  0.288487730570338       0.293451936343589       0.300227997281611     
  0.309090681935821       0.320117290252672       0.332977548890662     
  0.346904726438750       0.360809067561969       0.373610038150462     
  0.384551410503263       0.393307742927543       0.399974142132271     
  0.404848264225174       0.408307609012981       0.410694551358227     
  0.311131152820970       0.312413109298579       0.315715036783635     
  0.320679242556885       0.327455303494910       0.336317988149118     
  0.347344596465969       0.360204855103959       0.374132032652047     
  0.388036373775265       0.400837344363759       0.411778716716561     
  0.420535049140841       0.427201448345571       0.432075570438474     
  0.435534915226278       0.437921857571524       0.344920598840938     
  0.346202555318550       0.349504482803608       0.354468688576856     
  0.361244749514881       0.370107434169088       0.381134042485939     
  0.393994301123930       0.407921478672018       0.421825819795237     
  0.434626790383729       0.445568162736532       0.454324495160811     
  0.460990894365539       0.465865016458442       0.469324361246250     
  0.471711303591496       0.384721419506447       0.386003375984058     
  0.389305303469115       0.394269509242364       0.401045570180386     
  0.409908254834596       0.420934863151449       0.433795121789438     
  0.447722299337527       0.461626640460744       0.474427611049238     
  0.485368983402039       0.494125315826320       0.500791715031048     
  0.505665837123950       0.509125181911759       0.511512124257002     
  0.428820063039282       0.430102019516893       0.433403947001951     
  0.438368152775199       0.445144213713222       0.454006898367431     
  0.465033506684284       0.477893765322273       0.491820942870361     
  0.505725283993577       0.518526254582073       0.529467626934874     
  0.538223959359154       0.544890358563883       0.549764480656787     
  0.553223825444593       0.555610767789837       0.474487341524718     
  0.475769298002329       0.479071225487385       0.484035431260634     
  0.490811492198657       0.499674176852866       0.510700785169720     
  0.523561043807709       0.537488221355797       0.551392562479016     
  0.564193533067507       0.575134905420311       0.583891237844589     
  0.590557637049319       0.595431759142223       0.598891103930027     
  0.601278046275273       0.518585985057553       0.519867941535164     
  0.523169869020220       0.528134074793471       0.534910135731495     
  0.543772820385700       0.554799428702555       0.567659687340542     
  0.581586864888633       0.595491206011852       0.608292176600345     
  0.619233548953146       0.627989881377426       0.634656280582155     
  0.639530402675058       0.642989747462866       0.645376689808110     
  0.558386805723062       0.559668762200671       0.562970689685729     
  0.567934895458977       0.574710956397004       0.583573641051211     
  0.594600249368064       0.607460508006051       0.621387685554142     
  0.635292026677359       0.648092997265852       0.659034369618654     
  0.667790702042932       0.674457101247663       0.679331223340566     
  0.682790568128371       0.685177510473618       0.592176251743032     
  0.593458208220642       0.596760135705698       0.601724341478950     
  0.608500402416973       0.617363087071182       0.628389695388034     
  0.641249954026022       0.655177131574113       0.669081472697330     
  0.681882443285823       0.692823815638624       0.701580148062904     
  0.708246547267635       0.713120669360537       0.716580014148342     
  0.718966956493588       0.619403557956330       0.620685514433940     
  0.623987441918997       0.628951647692246       0.635727708630269     
  0.644590393284480       0.655617001601331       0.668477260239320     
  0.682404437787412       0.696308778910628       0.709109749499121     
  0.720051121851922       0.728807454276201       0.735473853480930     
  0.740347975573832       0.743807320361641       0.746194262706886     
  0.640435179147566       0.641717135625177       0.645019063110233     
  0.649983268883482       0.656759329821505       0.665622014475717     
  0.676648622792569       0.689508881430554       0.703436058978644     
  0.717340400101861       0.730141370690358       0.741082743043159     
  0.749839075467438       0.756505474672166       0.761379596765069     
  0.764838941552877       0.767225883898124       0.656156657974126     
  0.657438614451736       0.660740541936794       0.665704747710042     
  0.672480808648067       0.681343493302275       0.692370101619129     
  0.705230360257116       0.719157537805207       0.733061878928424     
  0.745862849516917       0.756804221869720       0.765560554293997     
  0.772226953498728       0.777101075591630       0.780560420379435     
  0.782947362724681       0.667622888750410       0.668904845228024     
  0.672206772713078       0.677170978486328       0.683947039424353     
  0.692809724078557       0.703836332395412       0.716696591033400     
  0.730623768581492       0.744528109704709       0.757329080293202     
  0.768270452646001       0.777026785070283       0.783693184275015     
  0.788567306367915       0.792026651155723       0.794413593500966     
  0.675836308742788       0.677118265220395       0.680420192705455     
  0.685384398478703       0.692160459416727       0.701023144070936     
  0.712049752387786       0.724910011025774       0.738837188573864     
  0.752741529697080       0.765542500285574       0.776483872638373     
  0.785240205062654       0.791906604267386       0.796780726360288     
  0.800240071148096       0.802627013493341       0.681644014668912     
  0.682925971146521       0.686227898631577       0.691192104404825     
  0.697968165342851       0.706830849997056       0.717857458313909     
  0.730717716951899       0.744644894499989       0.758549235623209     
  0.771350206211701       0.782291578564501       0.791047910988780     
  0.797714310193512       0.802588432286417       0.806047777074220     
  0.808434719419467     
  0.374115123339686       0.372936338750409       0.369900150469241     
  0.365335464096730       0.359104740706946       0.350955325128140     
  0.340816138515416       0.328990873803766       0.316184555841714     
  0.303399236428509       0.291628488262696       0.281567677821573     
  0.273516055242660       0.267386168007220       0.262904315378283     
  0.259723378742699       0.257528537575151       0.380431142652959     
  0.379252358063684       0.376216169782516       0.371651483410004     
  0.365420760020219       0.357271344441413       0.347132157828690     
  0.335306893117040       0.322500575154989       0.309715255741783     
  0.297944507575970       0.287883697134848       0.279832074555933     
  0.273702187320493       0.269220334691556       0.266039398055972     
  0.263844556888424       0.389363433640096       0.388184649050819     
  0.385148460769649       0.380583774397141       0.374353051007355     
  0.366203635428549       0.356064448815825       0.344239184104175     
  0.331432866142124       0.318647546728917       0.306876798563105     
  0.296815988121984       0.288764365543069       0.282634478307629     
  0.278152625678693       0.274971689043107       0.272776847875560     
  0.401833234273023       0.400654449683747       0.397618261402578     
  0.393053575030069       0.386822851640284       0.378673436061477     
  0.368534249448754       0.356708984737105       0.343902666775053     
  0.331117347361847       0.319346599196034       0.309285788754911     
  0.301234166175997       0.295104278940558       0.290622426311621     
  0.287441489676036       0.285246648508488       0.418930719091442     
  0.417751934502166       0.414715746220998       0.410151059848487     
  0.403920336458702       0.395770920879897       0.385631734267172     
  0.373806469555523       0.361000151593472       0.348214832180265     
  0.336444084014452       0.326383273573330       0.318331650994416     
  0.312201763758976       0.307719911130040       0.304538974494454     
  0.302344133326907       0.441803110931353       0.440624326342076     
  0.437588138060906       0.433023451688397       0.426792728298610     
  0.418643312719806       0.408504126107081       0.396678861395431     
  0.383872543433379       0.371087224020174       0.359316475854362     
  0.349255665413240       0.341204042834325       0.335074155598884     
  0.330592302969947       0.327411366334363       0.325216525166817     
  0.471413458645070       0.470234674055795       0.467198485774624     
  0.462633799402115       0.456403076012331       0.448253660433524     
  0.438114473820799       0.426289209109151       0.413482891147098     
  0.400697571733891       0.388926823568079       0.378866013126958     
  0.370814390548044       0.364684503312605       0.360202650683668     
  0.357021714048082       0.354826872880535       0.508160290588973     
  0.506981505999698       0.503945317718529       0.499380631346019     
  0.493149907956234       0.485000492377428       0.474861305764704     
  0.463036041053056       0.450229723091001       0.437444403677796     
  0.425673655511983       0.415612845070863       0.407561222491948     
  0.401431335256507       0.396949482627571       0.393768545991986     
  0.391573704824439       0.551444636457222       0.550265851867947     
  0.547229663586777       0.542664977214267       0.536434253824481     
  0.528284838245675       0.518145651632951       0.506320386921302     
  0.493514068959250       0.480728749546044       0.468958001380232     
  0.458897190939109       0.450845568360195       0.444715681124755     
  0.440233828495817       0.437052891860235       0.434858050692686     
  0.599402967644347       0.598224183055071       0.595187994773902     
  0.590623308401391       0.584392585011606       0.576243169432798     
  0.566103982820076       0.554278718108426       0.541472400146374     
  0.528687080733168       0.516916332567355       0.506855522126232     
  0.498803899547320       0.492674012311879       0.488192159682943     
  0.485011223047358       0.482816381879811       0.649067226917728     
  0.647888442328452       0.644852254047282       0.640287567674774     
  0.634056844284987       0.625907428706183       0.615768242093458     
  0.603942977381811       0.591136659419756       0.578351340006550     
  0.566580591840738       0.556519781399616       0.548468158820701     
  0.542338271585263       0.537856418956324       0.534675482320739     
  0.532480641153192       0.697025558104853       0.695846773515578     
  0.692810585234408       0.688245898861898       0.682015175472111     
  0.673865759893305       0.663726573280582       0.651901308568932     
  0.639094990606881       0.626309671193676       0.614538923027863     
  0.604478112586741       0.596426490007826       0.590296602772388     
  0.585814750143451       0.582633813507866       0.580438972340318     
  0.740309903973100       0.739131119383824       0.736094931102655     
  0.731530244730144       0.725299521340360       0.717150105761554     
  0.707010919148831       0.695185654437183       0.682379336475130     
  0.669594017061925       0.657823268896110       0.647762458454988     
  0.639710835876076       0.633580948640634       0.629099096011697     
  0.625918159376111       0.623723318208566       0.777056735917005     
  0.775877951327730       0.772841763046559       0.768277076674052     
  0.762046353284266       0.753896937705458       0.743757751092735     
  0.731932486381086       0.719126168419033       0.706340849005826     
  0.694570100840015       0.684509290398891       0.676457667819979     
  0.670327780584540       0.665845927955600       0.662664991320016     
  0.660470150152468       0.806667083630724       0.805488299041448     
  0.802452110760280       0.797887424387767       0.791656700997982     
  0.783507285419178       0.773368098806452       0.761542834094804     
  0.748736516132753       0.735951196719546       0.724180448553733     
  0.714119638112612       0.706068015533697       0.699938128298257     
  0.695456275669320       0.692275339033736       0.690080497866187     
  0.829539475470632       0.828360690881357       0.825324502600187     
  0.820759816227678       0.814529092837890       0.806379677259087     
  0.796240490646363       0.784415225934710       0.771608907972660     
  0.758823588559451       0.747052840393642       0.736992029952520     
  0.728940407373606       0.722810520138164       0.718328667509229     
  0.715147730873644       0.712952889706099       0.846636960289052     
  0.845458175699773       0.842421987418606       0.837857301046094     
  0.831626577656310       0.823477162077505       0.813337975464783     
  0.801512710753132       0.788706392791080       0.775921073377875     
  0.764150325212060       0.754089514770939       0.746037892192023     
  0.739908004956583       0.735426152327648       0.732245215692061     
  0.730050374524514       0.859106760921979       0.857927976332703     
  0.854891788051533       0.850327101679022       0.844096378289240     
  0.835946962710432       0.825807776097710       0.813982511386059     
  0.801176193424008       0.788390874010802       0.776620125844988     
  0.766559315403868       0.758507692824955       0.752377805589517     
  0.747895952960575       0.744715016324993       0.742520175157443     
  0.868039051909118       0.866860267319840       0.863824079038673     
  0.859259392666159       0.853028669276375       0.844879253697572     
  0.834740067084845       0.822914802373193       0.810108484411144     
  0.797323164997935       0.785552416832124       0.775491606391003     
  0.767439983812086       0.761310096576649       0.756828243947712     
  0.753647307312128       0.751452466144579       0.874355071222389     
  0.873176286633113       0.870140098351943       0.865575411979432     
  0.859344688589649       0.851195273010841       0.841056086398117     
  0.829230821686469       0.816424503724416       0.803639184311212     
  0.791868436145399       0.781807625704275       0.773756003125360     
  0.767626115889923       0.763144263260987       0.759963326625401     
  0.757768485457853     
  0.000000000000000E+000 -3.282172018590466E-004 -1.033620650049141E-003
 -2.198955220658941E-003 -4.476742922393904E-003 -7.979640656267073E-003
 -1.263026983295655E-002 -1.826709190868895E-002 -2.441396652989334E-002
 -3.056244072773302E-002 -3.622807327755116E-002 -4.107753596790794E-002
 -4.495244726653555E-002 -4.790767994332594E-002 -5.006842939802218E-002
 -5.160152297946802E-002 -5.266055883330620E-002  0.000000000000000E+000
 -3.282172018590466E-004 -1.033620650049141E-003 -2.198955220658941E-003
 -4.476742922393904E-003 -7.979640656267073E-003 -1.263026983295655E-002
 -1.826709190868895E-002 -2.441396652989334E-002 -3.056244072773302E-002
 -3.622807327755116E-002 -4.107753596790794E-002 -4.495244726653555E-002
 -4.790767994332594E-002 -5.006842939802218E-002 -5.160152297946802E-002
 -5.266055883330620E-002  0.000000000000000E+000 -3.282172018590466E-004
 -1.033620650049141E-003 -2.198955220658941E-003 -4.476742922393904E-003
 -7.979640656267073E-003 -1.263026983295655E-002 -1.826709190868895E-002
 -2.441396652989334E-002 -3.056244072773302E-002 -3.622807327755116E-002
 -4.107753596790794E-002 -4.495244726653555E-002 -4.790767994332594E-002
 -5.006842939802218E-002 -5.160152297946802E-002 -5.266055883330620E-002
  0.000000000000000E+000 -3.282172018590466E-004 -1.033620650049141E-003
 -2.198955220658941E-003 -4.476742922393904E-003 -7.979640656267073E-003
 -1.263026983295655E-002 -1.826709190868895E-002 -2.441396652989334E-002
 -3.056244072773302E-002 -3.622807327755116E-002 -4.107753596790794E-002
 -4.495244726653555E-002 -4.790767994332594E-002 -5.006842939802218E-002
 -5.160152297946802E-002 -5.266055883330620E-002  0.000000000000000E+000
 -3.282172018590466E-004 -1.033620650049141E-003 -2.198955220658941E-003
 -4.476742922393904E-003 -7.979640656267073E-003 -1.263026983295655E-002
 -1.826709190868895E-002 -2.441396652989334E-002 -3.056244072773302E-002
 -3.622807327755116E-002 -4.107753596790794E-002 -4.495244726653555E-002
 -4.790767994332594E-002 -5.006842939802218E-002 -5.160152297946802E-002
 -5.266055883330620E-002  0.000000000000000E+000 -3.282172018590466E-004
 -1.033620650049141E-003 -2.198955220658941E-003 -4.476742922393904E-003
 -7.979640656267073E-003 -1.263026983295655E-002 -1.826709190868895E-002
 -2.441396652989334E-002 -3.056244072773302E-002 -3.622807327755116E-002
 -4.107753596790794E-002 -4.495244726653555E-002 -4.790767994332594E-002
 -5.006842939802218E-002 -5.160152297946802E-002 -5.266055883330620E-002
  0.000000000000000E+000 -3.282172018590466E-004 -1.033620650049141E-003
 -2.198955220658941E-003 -4.476742922393904E-003 -7.979640656267073E-003
 -1.263026983295655E-002 -1.826709190868895E-002 -2.441396652989334E-002
 -3.056244072773302E-002 -3.622807327755116E-002 -4.107753596790794E-002
 -4.495244726653555E-002 -4.790767994332594E-002 -5.006842939802218E-002
 -5.160152297946802E-002 -5.266055883330620E-002  0.000000000000000E+000
 -3.282172018590466E-004 -1.033620650049141E-003 -2.198955220658941E-003
 -4.476742922393904E-003 -7.979640656267073E-003 -1.263026983295655E-002
 -1.826709190868895E-002 -2.441396652989334E-002 -3.056244072773302E-002
 -3.622807327755116E-002 -4.107753596790794E-002 -4.495244726653555E-002
 -4.790767994332594E-002 -5.006842939802218E-002 -5.160152297946802E-002
 -5.266055883330620E-002  0.000000000000000E+000 -3.282172018590466E-004
 -1.033620650049141E-003 -2.198955220658941E-003 -4.476742922393904E-003
 -7.979640656267073E-003 -1.263026983295655E-002 -1.826709190868895E-002
 -2.441396652989334E-002 -3.056244072773302E-002 -3.622807327755116E-002
 -4.107753596790794E-002 -4.495244726653555E-002 -4.790767994332594E-002
 -5.006842939802218E-002 -5.160152297946802E-002 -5.266055883330620E-002
  0.000000000000000E+000 -3.282172018590466E-004 -1.033620650049141E-003
 -2.198955220658941E-003 -4.476742922393904E-003 -7.979640656267073E-003
 -1.263026983295655E-002 -1.826709190868895E-002 -2.441396652989334E-002
 -3.056244072773302E-002 -3.622807327755116E-002 -4.107753596790794E-002
 -4.495244726653555E-002 -4.790767994332594E-002 -5.006842939802218E-002
 -5.160152297946802E-002 -5.266055883330620E-002  0.000000000000000E+000
 -3.282172018590466E-004 -1.033620650049141E-003 -2.198955220658941E-003
 -4.476742922393904E-003 -7.979640656267073E-003 -1.263026983295655E-002
 -1.826709190868895E-002 -2.441396652989334E-002 -3.056244072773302E-002
 -3.622807327755116E-002 -4.107753596790794E-002 -4.495244726653555E-002
 -4.790767994332594E-002 -5.006842939802218E-002 -5.160152297946802E-002
 -5.266055883330620E-002  0.000000000000000E+000 -3.282172018590466E-004
 -1.033620650049141E-003 -2.198955220658941E-003 -4.476742922393904E-003
 -7.979640656267073E-003 -1.263026983295655E-002 -1.826709190868895E-002
 -2.441396652989334E-002 -3.056244072773302E-002 -3.622807327755116E-002
 -4.107753596790794E-002 -4.495244726653555E-002 -4.790767994332594E-002
 -5.006842939802218E-002 -5.160152297946802E-002 -5.266055883330620E-002
  0.000000000000000E+000 -3.282172018590466E-004 -1.033620650049141E-003
 -2.198955220658941E-003 -4.476742922393904E-003 -7.979640656267073E-003
 -1.263026983295655E-002 -1.826709190868895E-002 -2.441396652989334E-002
 -3.056244072773302E-002 -3.622807327755116E-002 -4.107753596790794E-002
 -4.495244726653555E-002 -4.790767994332594E-002 -5.006842939802218E-002
 -5.160152297946802E-002 -5.266055883330620E-002  0.000000000000000E+000
 -3.282172018590466E-004 -1.033620650049141E-003 -2.198955220658941E-003
 -4.476742922393904E-003 -7.979640656267073E-003 -1.263026983295655E-002
 -1.826709190868895E-002 -2.441396652989334E-002 -3.056244072773302E-002
 -3.622807327755116E-002 -4.107753596790794E-002 -4.495244726653555E-002
 -4.790767994332594E-002 -5.006842939802218E-002 -5.160152297946802E-002
 -5.266055883330620E-002  0.000000000000000E+000 -3.282172018590466E-004
 -1.033620650049141E-003 -2.198955220658941E-003 -4.476742922393904E-003
 -7.979640656267073E-003 -1.263026983295655E-002 -1.826709190868895E-002
 -2.441396652989334E-002 -3.056244072773302E-002 -3.622807327755116E-002
 -4.107753596790794E-002 -4.495244726653555E-002 -4.790767994332594E-002
 -5.006842939802218E-002 -5.160152297946802E-002 -5.266055883330620E-002
  0.000000000000000E+000 -3.282172018590466E-004 -1.033620650049141E-003
 -2.198955220658941E-003 -4.476742922393904E-003 -7.979640656267073E-003
 -1.263026983295655E-002 -1.826709190868895E-002 -2.441396652989334E-002
 -3.056244072773302E-002 -3.622807327755116E-002 -4.107753596790794E-002
 -4.495244726653555E-002 -4.790767994332594E-002 -5.006842939802218E-002
 -5.160152297946802E-002 -5.266055883330620E-002  0.000000000000000E+000
 -3.282172018590466E-004 -1.033620650049141E-003 -2.198955220658941E-003
 -4.476742922393904E-003 -7.979640656267073E-003 -1.263026983295655E-002
 -1.826709190868895E-002 -2.441396652989334E-002 -3.056244072773302E-002
 -3.622807327755116E-002 -4.107753596790794E-002 -4.495244726653555E-002
 -4.790767994332594E-002 -5.006842939802218E-002 -5.160152297946802E-002
 -5.266055883330620E-002  0.000000000000000E+000 -3.282172018590466E-004
 -1.033620650049141E-003 -2.198955220658941E-003 -4.476742922393904E-003
 -7.979640656267073E-003 -1.263026983295655E-002 -1.826709190868895E-002
 -2.441396652989334E-002 -3.056244072773302E-002 -3.622807327755116E-002
 -4.107753596790794E-002 -4.495244726653555E-002 -4.790767994332594E-002
 -5.006842939802218E-002 -5.160152297946802E-002 -5.266055883330620E-002
  0.000000000000000E+000 -3.282172018590466E-004 -1.033620650049141E-003
 -2.198955220658941E-003 -4.476742922393904E-003 -7.979640656267073E-003
 -1.263026983295655E-002 -1.826709190868895E-002 -2.441396652989334E-002
 -3.056244072773302E-002 -3.622807327755116E-002 -4.107753596790794E-002
 -4.495244726653555E-002 -4.790767994332594E-002 -5.006842939802218E-002
 -5.160152297946802E-002 -5.266055883330620E-002  0.000000000000000E+000
 -3.282172018590466E-004 -1.033620650049141E-003 -2.198955220658941E-003
 -4.476742922393904E-003 -7.979640656267073E-003 -1.263026983295655E-002
 -1.826709190868895E-002 -2.441396652989334E-002 -3.056244072773302E-002
 -3.622807327755116E-002 -4.107753596790794E-002 -4.495244726653555E-002
 -4.790767994332594E-002 -5.006842939802218E-002 -5.160152297946802E-002
 -5.266055883330620E-002
  0.162319312615870       0.318326849936766       0.480808503983421     
  0.695613470384071       0.907759217357419        1.09738196699785     
   1.26415878343860        1.39646447305261        1.49841033478628     
   1.57173761340016        1.61979183677356        1.64652905511862     
   1.65945973127430        1.66351227279505        1.66506301975830     
   1.66799543665053       0.236580137532497       0.482666116381095     
  0.744601385873020        1.07419574497310        1.40902179563383     
   1.71596011630786        1.98738530422662        2.20573204499087     
   2.37561502144992        2.50073206605141        2.58783853046145     
   2.64532414066553        2.68573232440180        2.71588210601370     
   2.73873579619727        2.75251779749271       0.306521894527046     
  0.632598449013372       0.979699685212280        1.40708679784565     
   1.84997187261616        2.26652995488344        2.63987245367458     
   2.94550410865833        3.18664120576043        3.36864647778448     
   3.50150539138578        3.59636363409840        3.66600960457410     
   3.71472160476827        3.74525001343474        3.76015027198576     
  0.379986232808876       0.787726429653540        1.21861794251190     
   1.74060206053499        2.28837948158056        2.81477096497416     
   3.29467451590381        3.69526912835911        4.01619204559909     
   4.26252637138196        4.44514214668963        4.57509559823180     
   4.66524223671977        4.72239107941066        4.75455949327626     
   4.76897596343220       0.459979614913819       0.955363961025678     
   1.47448188321521        2.09468347408517        2.74986790790598     
   3.38899790241461        3.98050521899182        4.48275814943986     
   4.88961073809270        5.20294618307214        5.43256895222918     
   5.59053631890735        5.69400256768840        5.75564047953987     
   5.78856418258366        5.80280197158135       0.547586956004687     
   1.13818627088154        1.75235332994151        2.47766750000429     
   3.24585487744783        4.00176125184939        4.70804205358797     
   5.31409115850228        5.80696462027248        6.18425150807857     
   6.45551832052517        6.63652246269277        6.75080695772030     
   6.81669320920287        6.85103819587739        6.86566316414020     
  0.641865286654080        1.33441973369164        2.05011142153452     
   2.88761410785009        3.77464613982058        4.65076480460685     
   5.47262064304177        6.18058903069056        6.75563179686406     
   7.19222738794506        7.50140187122649        7.70374615661616     
   7.82900220231625        7.90006408902054        7.93668842135586     
   7.95217627489531       0.740023806554897        1.53838044817125     
   2.35955527631426        3.31407208203388        4.32380617700673     
   5.32179212003331        6.25837182236489        7.06516047978654     
   7.71848572632267        8.21128547405395        8.55698386554036     
   8.78086970915562        8.91811611202323        8.99539188319840     
   9.03500651369443        9.05170915576392       0.838493032494718     
   1.74274779326931        2.66984675178665        3.74264824855522     
   4.87572809752259        5.99479381904383        7.04392877302839     
   7.94650876844060        8.67552598442430        9.22332240516510     
   9.60582870467812        9.85241733939868        10.0029908099807     
   10.0875223310319        10.1307686522164        10.1489886706814     
  0.933492229330756        1.93969506919923        2.96904979442689     
   4.15673125170414        5.40915492447217        6.64449729287783     
   7.80112901549338        8.79512144449219        9.59725880461365     
   10.1996905068688        10.6203476707685        10.8917062085025     
   11.0575882985627        11.1508422242439        11.1986103827881     
   11.2187609486861        1.01902662959612        2.11667354139919     
   3.23777803618888        4.52892418995742        5.88808105644239     
   7.22634204305865        8.47761923910753        9.55253900920853     
   10.4212327147846        11.0760072307146        11.5357817126899     
   11.8345000143465        12.0184998682485        12.1227103676639     
   12.1764180752347        12.1991688343696        1.08330167823375     
   2.24899101032083        3.43834723833923        4.80705208220380     
   6.24457004598863        7.65592764592105        8.97274105197774     
   10.1035331751889        11.0205847987489        11.7173720261556     
   12.2125320181125        12.5389778823136        12.7431577940775     
   12.8605273182014        12.9217678793755        12.9479230629637     
   1.11101061188209        2.30463168177950        3.52224319506439     
   4.92470821471262        6.39265083810312        7.82624577650995     
   9.15766559641743        10.2981855333029        11.2268588767581     
   11.9408827713611        12.4577695600277        12.8062108546464     