 Title = "Wing and Wake"
 VARIABLES = "X" "Y" "Z" "GAM" "skew"
 Zone I=   17 J=   20 K=1  T="Blade 01"
 DATAPACKING=BLOCK
 VARLOCATION=([4]=CELLCENTERED,[5]=CELLCENTERED)
 -0.221663389895089      -0.222945346372700      -0.226247273857757     
 -0.231211479631006      -0.237987540569030      -0.246850225223239     
 -0.257876833540091      -0.270737092178080      -0.284664269726169     
 -0.298568610849387      -0.311369581437880      -0.322310953790681     
 -0.331067286214961      -0.337733685419691      -0.342607807512594     
 -0.346067152300400      -0.348454094645645      -0.227471095821214     
 -0.228753052298826      -0.232054979783882      -0.237019185557132     
 -0.243795246495155      -0.252657931149364      -0.263684539466217     
 -0.276544798104206      -0.290471975652295      -0.304376316775512     
 -0.317177287364006      -0.328118659716807      -0.336874992141087     
 -0.343541391345816      -0.348415513438719      -0.351874858226525     
 -0.354261800571770      -0.235684515813589      -0.236966472291200     
 -0.240268399776257      -0.245232605549507      -0.252008666487530     
 -0.260871351141738      -0.271897959458591      -0.284758218096579     
 -0.298685395644670      -0.312589736767887      -0.325390707356380     
 -0.336332079709182      -0.345088412133461      -0.351754811338190     
 -0.356628933431094      -0.360088278218900      -0.362475220564145     
 -0.247150746589873      -0.248432703067484      -0.251734630552541     
 -0.256698836325790      -0.263474897263815      -0.272337581918022     
 -0.283364190234876      -0.296224448872864      -0.310151626420954     
 -0.324055967544171      -0.336856938132664      -0.347798310485466     
 -0.356554642909745      -0.363221042114475      -0.368095164207378     
 -0.371554508995184      -0.373941451340429      -0.262872225416432     
 -0.264154181894044      -0.267456109379100      -0.272420315152350     
 -0.279196376090374      -0.288059060744582      -0.299085669061435     
 -0.311945927699423      -0.325873105247514      -0.339777446370730     
 -0.352578416959223      -0.363519789312025      -0.372276121736305     
 -0.378942520941035      -0.383816643033937      -0.387275987821744     
 -0.389662930166988      -0.283903846607670      -0.285185803085280     
 -0.288487730570337      -0.293451936343587      -0.300227997281610     
 -0.309090681935819      -0.320117290252672      -0.332977548890660     
 -0.346904726438749      -0.360809067561967      -0.373610038150461     
 -0.384551410503262      -0.393307742927541      -0.399974142132270     
 -0.404848264225173      -0.408307609012980      -0.410694551358226     
 -0.311131152820968      -0.312413109298577      -0.315715036783634     
 -0.320679242556884      -0.327455303494908      -0.336317988149117     
 -0.347344596465968      -0.360204855103957      -0.374132032652046     
 -0.388036373775264      -0.400837344363758      -0.411778716716559     
 -0.420535049140839      -0.427201448345569      -0.432075570438472     
 -0.435534915226277      -0.437921857571522      -0.344920598840937     
 -0.346202555318548      -0.349504482803606      -0.354468688576854     
 -0.361244749514879      -0.370107434169087      -0.381134042485939     
 -0.393994301123928      -0.407921478672017      -0.421825819795235     
 -0.434626790383728      -0.445568162736531      -0.454324495160809     
 -0.460990894365538      -0.465865016458441      -0.469324361246248     
 -0.471711303591493      -0.384721419506446      -0.386003375984056     
 -0.389305303469113      -0.394269509242363      -0.401045570180385     
 -0.409908254834595      -0.420934863151447      -0.433795121789436     
 -0.447722299337525      -0.461626640460742      -0.474427611049236     
 -0.485368983402037      -0.494125315826318      -0.500791715031047     
 -0.505665837123948      -0.509125181911757      -0.511512124257001     
 -0.428820063039281      -0.430102019516890      -0.433403947001949     
 -0.438368152775198      -0.445144213713221      -0.454006898367430     
 -0.465033506684282      -0.477893765322271      -0.491820942870360     
 -0.505725283993577      -0.518526254582071      -0.529467626934872     
 -0.538223959359153      -0.544890358563882      -0.549764480656785     
 -0.553223825444592      -0.555610767789835      -0.474487341524716     
 -0.475769298002327      -0.479071225487383      -0.484035431260633     
 -0.490811492198655      -0.499674176852865      -0.510700785169718     
 -0.523561043807707      -0.537488221355795      -0.551392562479013     
 -0.564193533067506      -0.575134905420309      -0.583891237844588     
 -0.590557637049317      -0.595431759142221      -0.598891103930025     
 -0.601278046275271      -0.518585985057550      -0.519867941535162     
 -0.523169869020218      -0.528134074793470      -0.534910135731492     
 -0.543772820385700      -0.554799428702554      -0.567659687340541     
 -0.581586864888630      -0.595491206011849      -0.608292176600342     
 -0.619233548953144      -0.627989881377423      -0.634656280582153     
 -0.639530402675055      -0.642989747462862      -0.645376689808108     
 -0.558386805723059      -0.559668762200669      -0.562970689685727     
 -0.567934895458976      -0.574710956397001      -0.583573641051208     
 -0.594600249368061      -0.607460508006049      -0.621387685554140     
 -0.635292026677357      -0.648092997265849      -0.659034369618652     
 -0.667790702042930      -0.674457101247660      -0.679331223340564     
 -0.682790568128369      -0.685177510473615      -0.592176251743030     
 -0.593458208220639      -0.596760135705697      -0.601724341478948     
 -0.608500402416970      -0.617363087071179      -0.628389695388031     
 -0.641249954026020      -0.655177131574110      -0.669081472697328     
 -0.681882443285821      -0.692823815638621      -0.701580148062901     
 -0.708246547267632      -0.713120669360535      -0.716580014148339     
 -0.718966956493585      -0.619403557956327      -0.620685514433938     
 -0.623987441918995      -0.628951647692244      -0.635727708630266     
 -0.644590393284477      -0.655617001601329      -0.668477260239318     
 -0.682404437787408      -0.696308778910625      -0.709109749499117     
 -0.720051121851920      -0.728807454276198      -0.735473853480927     
 -0.740347975573831      -0.743807320361637      -0.746194262706883     
 -0.640435179147564      -0.641717135625175      -0.645019063110230     
 -0.649983268883480      -0.656759329821504      -0.665622014475713     
 -0.676648622792567      -0.689508881430553      -0.703436058978643     
 -0.717340400101859      -0.730141370690354      -0.741082743043156     
 -0.749839075467435      -0.756505474672164      -0.761379596765067     
 -0.764838941552874      -0.767225883898121      -0.656156657974123     
 -0.657438614451733      -0.660740541936791      -0.665704747710040     
 -0.672480808648064      -0.681343493302273      -0.692370101619126     
 -0.705230360257114      -0.719157537805204      -0.733061878928420     
 -0.745862849516914      -0.756804221869716      -0.765560554293994     
 -0.772226953498724      -0.777101075591626      -0.780560420379432     
 -0.782947362724678      -0.667622888750407      -0.668904845228019     
 -0.672206772713075      -0.677170978486325      -0.683947039424348     
 -0.692809724078557      -0.703836332395409      -0.716696591033397     
 -0.730623768581489      -0.744528109704705      -0.757329080293198     
 -0.768270452645998      -0.777026785070280      -0.783693184275011     
 -0.788567306367912      -0.792026651155719      -0.794413593500963     
 -0.675836308742783      -0.677118265220391      -0.680420192705451     
 -0.685384398478699      -0.692160459416724      -0.701023144070931     
 -0.712049752387784      -0.724910011025771      -0.738837188573862     
 -0.752741529697078      -0.765542500285572      -0.776483872638372     
 -0.785240205062652      -0.791906604267384      -0.796780726360285     
 -0.800240071148092      -0.802627013493337      -0.681644014668907     
 -0.682925971146518      -0.686227898631574      -0.691192104404823     
 -0.697968165342847      -0.706830849997055      -0.717857458313908     
 -0.730717716951897      -0.744644894499987      -0.758549235623206     
 -0.771350206211697      -0.782291578564498      -0.791047910988777     
 -0.797714310193508      -0.802588432286412      -0.806047777074218     
 -0.808434719419463     
 -0.374115123339686      -0.372936338750409      -0.369900150469240     
 -0.365335464096730      -0.359104740706945      -0.350955325128140     
 -0.340816138515415      -0.328990873803766      -0.316184555841714     
 -0.303399236428509      -0.291628488262696      -0.281567677821574     
 -0.273516055242660      -0.267386168007220      -0.262904315378283     
 -0.259723378742698      -0.257528537575151      -0.380431142652959     
 -0.379252358063683      -0.376216169782515      -0.371651483410004     
 -0.365420760020219      -0.357271344441413      -0.347132157828689     
 -0.335306893117040      -0.322500575154989      -0.309715255741782     
 -0.297944507575969      -0.287883697134847      -0.279832074555933     
 -0.273702187320493      -0.269220334691556      -0.266039398055972     
 -0.263844556888424      -0.389363433640095      -0.388184649050819     
 -0.385148460769649      -0.380583774397140      -0.374353051007354     
 -0.366203635428549      -0.356064448815824      -0.344239184104175     
 -0.331432866142123      -0.318647546728917      -0.306876798563105     
 -0.296815988121984      -0.288764365543069      -0.282634478307629     
 -0.278152625678692      -0.274971689043107      -0.272776847875560     
 -0.401833234273023      -0.400654449683747      -0.397618261402578     
 -0.393053575030069      -0.386822851640284      -0.378673436061477     
 -0.368534249448754      -0.356708984737104      -0.343902666775052     
 -0.331117347361846      -0.319346599196034      -0.309285788754912     
 -0.301234166175997      -0.295104278940558      -0.290622426311621     
 -0.287441489676036      -0.285246648508488      -0.418930719091442     
 -0.417751934502166      -0.414715746220997      -0.410151059848487     
 -0.403920336458702      -0.395770920879897      -0.385631734267172     
 -0.373806469555522      -0.361000151593471      -0.348214832180264     
 -0.336444084014452      -0.326383273573330      -0.318331650994416     
 -0.312201763758976      -0.307719911130039      -0.304538974494454     
 -0.302344133326907      -0.441803110931352      -0.440624326342075     
 -0.437588138060906      -0.433023451688396      -0.426792728298610     
 -0.418643312719805      -0.408504126107081      -0.396678861395431     
 -0.383872543433379      -0.371087224020173      -0.359316475854362     
 -0.349255665413239      -0.341204042834325      -0.335074155598885     
 -0.330592302969948      -0.327411366334363      -0.325216525166817     
 -0.471413458645070      -0.470234674055794      -0.467198485774624     
 -0.462633799402114      -0.456403076012330      -0.448253660433524     
 -0.438114473820799      -0.426289209109151      -0.413482891147097     
 -0.400697571733892      -0.388926823568079      -0.378866013126957     
 -0.370814390548043      -0.364684503312604      -0.360202650683668     
 -0.357021714048082      -0.354826872880535      -0.508160290588973     
 -0.506981505999698      -0.503945317718528      -0.499380631346019     
 -0.493149907956233      -0.485000492377428      -0.474861305764704     
 -0.463036041053055      -0.450229723091001      -0.437444403677796     
 -0.425673655511983      -0.415612845070863      -0.407561222491948     
 -0.401431335256507      -0.396949482627571      -0.393768545991986     
 -0.391573704824438      -0.551444636457222      -0.550265851867946     
 -0.547229663586776      -0.542664977214266      -0.536434253824481     
 -0.528284838245675      -0.518145651632951      -0.506320386921302     
 -0.493514068959250      -0.480728749546043      -0.468958001380231     
 -0.458897190939109      -0.450845568360195      -0.444715681124755     
 -0.440233828495817      -0.437052891860235      -0.434858050692686     
 -0.599402967644346      -0.598224183055070      -0.595187994773901     
 -0.590623308401391      -0.584392585011606      -0.576243169432799     
 -0.566103982820076      -0.554278718108426      -0.541472400146374     
 -0.528687080733168      -0.516916332567355      -0.506855522126233     
 -0.498803899547320      -0.492674012311880      -0.488192159682943     
 -0.485011223047359      -0.482816381879810      -0.649067226917727     
 -0.647888442328451      -0.644852254047281      -0.640287567674774     
 -0.634056844284986      -0.625907428706181      -0.615768242093458     
 -0.603942977381809      -0.591136659419756      -0.578351340006550     
 -0.566580591840738      -0.556519781399615      -0.548468158820702     
 -0.542338271585262      -0.537856418956325      -0.534675482320740     
 -0.532480641153192      -0.697025558104852      -0.695846773515577     
 -0.692810585234407      -0.688245898861898      -0.682015175472111     
 -0.673865759893305      -0.663726573280582      -0.651901308568932     
 -0.639094990606881      -0.626309671193675      -0.614538923027862     
 -0.604478112586741      -0.596426490007826      -0.590296602772387     
 -0.585814750143450      -0.582633813507865      -0.580438972340318     
 -0.740309903973099      -0.739131119383823      -0.736094931102655     
 -0.731530244730143      -0.725299521340360      -0.717150105761554     
 -0.707010919148830      -0.695185654437181      -0.682379336475129     
 -0.669594017061923      -0.657823268896110      -0.647762458454987     
 -0.639710835876075      -0.633580948640633      -0.629099096011697     
 -0.625918159376111      -0.623723318208565      -0.777056735917004     
 -0.775877951327728      -0.772841763046558      -0.768277076674051     
 -0.762046353284264      -0.753896937705458      -0.743757751092733     
 -0.731932486381085      -0.719126168419032      -0.706340849005826     
 -0.694570100840013      -0.684509290398891      -0.676457667819979     
 -0.670327780584539      -0.665845927955601      -0.662664991320015     
 -0.660470150152468      -0.806667083630723      -0.805488299041447     
 -0.802452110760278      -0.797887424387766      -0.791656700997981     
 -0.783507285419177      -0.773368098806452      -0.761542834094803     
 -0.748736516132752      -0.735951196719545      -0.724180448553733     
 -0.714119638112611      -0.706068015533696      -0.699938128298256     
 -0.695456275669319      -0.692275339033734      -0.690080497866187     
 -0.829539475470631      -0.828360690881355      -0.825324502600186     
 -0.820759816227677      -0.814529092837891      -0.806379677259086     
 -0.796240490646363      -0.784415225934710      -0.771608907972660     
 -0.758823588559452      -0.747052840393640      -0.736992029952520     
 -0.728940407373605      -0.722810520138165      -0.718328667509229     
 -0.715147730873644      -0.712952889706098      -0.846636960289051     
 -0.845458175699772      -0.842421987418604      -0.837857301046094     
 -0.831626577656309      -0.823477162077504      -0.813337975464781     
 -0.801512710753131      -0.788706392791080      -0.775921073377872     
 -0.764150325212060      -0.754089514770939      -0.746037892192023     
 -0.739908004956583      -0.735426152327647      -0.732245215692061     
 -0.730050374524513      -0.859106760921978      -0.857927976332703     
 -0.854891788051532      -0.850327101679023      -0.844096378289238     
 -0.835946962710432      -0.825807776097709      -0.813982511386058     
 -0.801176193424007      -0.788390874010802      -0.776620125844988     
 -0.766559315403866      -0.758507692824953      -0.752377805589515     
 -0.747895952960576      -0.744715016324992      -0.742520175157443     
 -0.868039051909116      -0.866860267319837      -0.863824079038671     
 -0.859259392666158      -0.853028669276374      -0.844879253697569     
 -0.834740067084844      -0.822914802373193      -0.810108484411143     
 -0.797323164997936      -0.785552416832122      -0.775491606391002     
 -0.767439983812086      -0.761310096576649      -0.756828243947711     
 -0.753647307312127      -0.751452466144579      -0.874355071222387     
 -0.873176286633112      -0.870140098351942      -0.865575411979433     
 -0.859344688589647      -0.851195273010841      -0.841056086398117     
 -0.829230821686469      -0.816424503724417      -0.803639184311212     
 -0.791868436145397      -0.781807625704274      -0.773756003125361     
 -0.767626115889922      -0.763144263260986      -0.759963326625401     
 -0.757768485457853     
  0.000000000000000E+000 -3.282172018590466E-004 -1.033620650049141E-003
 -2.198955220658941E-003 -4.476742922393904E-003 -7.979640656267073E-003
 -1.263026983295655E-002 -1.826709190868895E-002 -2.441396652989334E-002
 -3.056244072773302E-002 -3.622807327755116E-002 -4.107753596790794E-002
 -4.495244726653555E-002 -4.790767994332594E-002 -5.006842939802218E-002
 -5.160152297946802E-002 -5.266055883330620E-002  0.000000000000000E+000
 -3.282172018590466E-004 -1.033620650049141E-003 -2.198955220658941E-003
 -4.476742922393904E-003 -7.979640656267073E-003 -1.263026983295655E-002
 -1.826709190868895E-002 -2.441396652989334E-002 -3.056244072773302E-002
 -3.622807327755116E-002 -4.107753596790794E-002 -4.495244726653555E-002
 -4.790767994332594E-002 -5.006842939802218E-002 -5.160152297946802E-002
 -5.266055883330620E-002  0.000000000000000E+000 -3.282172018590466E-004
 -1.033620650049141E-003 -2.198955220658941E-003 -4.476742922393904E-003
 -7.979640656267073E-003 -1.263026983295655E-002 -1.826709190868895E-002
 -2.441396652989334E-002 -3.056244072773302E-002 -3.622807327755116E-002
 -4.107753596790794E-002 -4.495244726653555E-002 -4.790767994332594E-002
 -5.006842939802218E-002 -5.160152297946802E-002 -5.266055883330620E-002
  0.000000000000000E+000 -3.282172018590466E-004 -1.033620650049141E-003
 -2.198955220658941E-003 -4.476742922393904E-003 -7.979640656267073E-003
 -1.263026983295655E-002 -1.826709190868895E-002 -2.441396652989334E-002
 -3.056244072773302E-002 -3.622807327755116E-002 -4.107753596790794E-002
 -4.495244726653555E-002 -4.790767994332594E-002 -5.006842939802218E-002
 -5.160152297946802E-002 -5.266055883330620E-002  0.000000000000000E+000
 -3.282172018590466E-004 -1.033620650049141E-003 -2.198955220658941E-003
 -4.476742922393904E-003 -7.979640656267073E-003 -1.263026983295655E-002
 -1.826709190868895E-002 -2.441396652989334E-002 -3.056244072773302E-002
 -3.622807327755116E-002 -4.107753596790794E-002 -4.495244726653555E-002
 -4.790767994332594E-002 -5.006842939802218E-002 -5.160152297946802E-002
 -5.266055883330620E-002  0.000000000000000E+000 -3.282172018590466E-004
 -1.033620650049141E-003 -2.198955220658941E-003 -4.476742922393904E-003
 -7.979640656267073E-003 -1.263026983295655E-002 -1.826709190868895E-002
 -2.441396652989334E-002 -3.056244072773302E-002 -3.622807327755116E-002
 -4.107753596790794E-002 -4.495244726653555E-002 -4.790767994332594E-002
 -5.006842939802218E-002 -5.160152297946802E-002 -5.266055883330620E-002
  0.000000000000000E+000 -3.282172018590466E-004 -1.033620650049141E-003
 -2.198955220658941E-003 -4.476742922393904E-003 -7.979640656267073E-003
 -1.263026983295655E-002 -1.826709190868895E-002 -2.441396652989334E-002
 -3.056244072773302E-002 -3.622807327755116E-002 -4.107753596790794E-002
 -4.495244726653555E-002 -4.790767994332594E-002 -5.006842939802218E-002
 -5.160152297946802E-002 -5.266055883330620E-002  0.000000000000000E+000
 -3.282172018590466E-004 -1.033620650049141E-003 -2.198955220658941E-003
 -4.476742922393904E-003 -7.979640656267073E-003 -1.263026983295655E-002
 -1.826709190868895E-002 -2.441396652989334E-002 -3.056244072773302E-002
 -3.622807327755116E-002 -4.107753596790794E-002 -4.495244726653555E-002
 -4.790767994332594E-002 -5.006842939802218E-002 -5.160152297946802E-002
 -5.266055883330620E-002  0.000000000000000E+000 -3.282172018590466E-004
 -1.033620650049141E-003 -2.198955220658941E-003 -4.476742922393904E-003
 -7.979640656267073E-003 -1.263026983295655E-002 -1.826709190868895E-002
 -2.441396652989334E-002 -3.056244072773302E-002 -3.622807327755116E-002
 -4.107753596790794E-002 -4.495244726653555E-002 -4.790767994332594E-002
 -5.006842939802218E-002 -5.160152297946802E-002 -5.266055883330620E-002
  0.000000000000000E+000 -3.282172018590466E-004 -1.033620650049141E-003
 -2.198955220658941E-003 -4.476742922393904E-003 -7.979640656267073E-003
 -1.263026983295655E-002 -1.826709190868895E-002 -2.441396652989334E-002
 -3.056244072773302E-002 -3.622807327755116E-002 -4.107753596790794E-002
 -4.495244726653555E-002 -4.790767994332594E-002 -5.006842939802218E-002
 -5.160152297946802E-002 -5.266055883330620E-002  0.000000000000000E+000
 -3.282172018590466E-004 -1.033620650049141E-003 -2.198955220658941E-003
 -4.476742922393904E-003 -7.979640656267073E-003 -1.263026983295655E-002
 -1.826709190868895E-002 -2.441396652989334E-002 -3.056244072773302E-002
 -3.622807327755116E-002 -4.107753596790794E-002 -4.495244726653555E-002
 -4.790767994332594E-002 -5.006842939802218E-002 -5.160152297946802E-002
 -5.266055883330620E-002  0.000000000000000E+000 -3.282172018590466E-004
 -1.033620650049141E-003 -2.198955220658941E-003 -4.476742922393904E-003
 -7.979640656267073E-003 -1.263026983295655E-002 -1.826709190868895E-002
 -2.441396652989334E-002 -3.056244072773302E-002 -3.622807327755116E-002
 -4.107753596790794E-002 -4.495244726653555E-002 -4.790767994332594E-002
 -5.006842939802218E-002 -5.160152297946802E-002 -5.266055883330620E-002
  0.000000000000000E+000 -3.282172018590466E-004 -1.033620650049141E-003
 -2.198955220658941E-003 -4.476742922393904E-003 -7.979640656267073E-003
 -1.263026983295655E-002 -1.826709190868895E-002 -2.441396652989334E-002
 -3.056244072773302E-002 -3.622807327755116E-002 -4.107753596790794E-002
 -4.495244726653555E-002 -4.790767994332594E-002 -5.006842939802218E-002
 -5.160152297946802E-002 -5.266055883330620E-002  0.000000000000000E+000
 -3.282172018590466E-004 -1.033620650049141E-003 -2.198955220658941E-003
 -4.476742922393904E-003 -7.979640656267073E-003 -1.263026983295655E-002
 -1.826709190868895E-002 -2.441396652989334E-002 -3.056244072773302E-002
 -3.622807327755116E-002 -4.107753596790794E-002 -4.495244726653555E-002
 -4.790767994332594E-002 -5.006842939802218E-002 -5.160152297946802E-002
 -5.266055883330620E-002  0.000000000000000E+000 -3.282172018590466E-004
 -1.033620650049141E-003 -2.198955220658941E-003 -4.476742922393904E-003
 -7.979640656267073E-003 -1.263026983295655E-002 -1.826709190868895E-002
 -2.441396652989334E-002 -3.056244072773302E-002 -3.622807327755116E-002
 -4.107753596790794E-002 -4.495244726653555E-002 -4.790767994332594E-002
 -5.006842939802218E-002 -5.160152297946802E-002 -5.266055883330620E-002
  0.000000000000000E+000 -3.282172018590466E-004 -1.033620650049141E-003
 -2.198955220658941E-003 -4.476742922393904E-003 -7.979640656267073E-003
 -1.263026983295655E-002 -1.826709190868895E-002 -2.441396652989334E-002
 -3.056244072773302E-002 -3.622807327755116E-002 -4.107753596790794E-002
 -4.495244726653555E-002 -4.790767994332594E-002 -5.006842939802218E-002
 -5.160152297946802E-002 -5.266055883330620E-002  0.000000000000000E+000
 -3.282172018590466E-004 -1.033620650049141E-003 -2.198955220658941E-003
 -4.476742922393904E-003 -7.979640656267073E-003 -1.263026983295655E-002
 -1.826709190868895E-002 -2.441396652989334E-002 -3.056244072773302E-002
 -3.622807327755116E-002 -4.107753596790794E-002 -4.495244726653555E-002
 -4.790767994332594E-002 -5.006842939802218E-002 -5.160152297946802E-002
 -5.266055883330620E-002  0.000000000000000E+000 -3.282172018590466E-004
 -1.033620650049141E-003 -2.198955220658941E-003 -4.476742922393904E-003
 -7.979640656267073E-003 -1.263026983295655E-002 -1.826709190868895E-002
 -2.441396652989334E-002 -3.056244072773302E-002 -3.622807327755116E-002
 -4.107753596790794E-002 -4.495244726653555E-002 -4.790767994332594E-002
 -5.006842939802218E-002 -5.160152297946802E-002 -5.266055883330620E-002
  0.000000000000000E+000 -3.282172018590466E-004 -1.033620650049141E-003
 -2.198955220658941E-003 -4.476742922393904E-003 -7.979640656267073E-003
 -1.263026983295655E-002 -1.826709190868895E-002 -2.441396652989334E-002
 -3.056244072773302E-002 -3.622807327755116E-002 -4.107753596790794E-002
 -4.495244726653555E-002 -4.790767994332594E-002 -5.006842939802218E-002
 -5.160152297946802E-002 -5.266055883330620E-002  0.000000000000000E+000
 -3.282172018590466E-004 -1.033620650049141E-003 -2.198955220658941E-003
 -4.476742922393904E-003 -7.979640656267073E-003 -1.263026983295655E-002
 -1.826709190868895E-002 -2.441396652989334E-002 -3.056244072773302E-002
 -3.622807327755116E-002 -4.107753596790794E-002 -4.495244726653555E-002
 -4.790767994332594E-002 -5.006842939802218E-002 -5.160152297946802E-002
 -5.266055883330620E-002
  0.194628265542481       0.381470945035993       0.567517568986384     
  0.801723887859281        1.03125328412261        1.23684716674993     
   1.41805670589902        1.56303001274387        1.67559222921125     
   1.75737412048429        1.81177215495711        1.84293100575242     
   1.85867770820672        1.86440612549458        1.86706307992053     
   1.87088839548998       0.279744846041846       0.570028331231158     
  0.869223773802072        1.23118459003963        1.59516577192823     
   1.92860068486916        2.22375014299404        2.46281506759333     
   2.65011754114243        2.78933269587466        2.88747147447768     
   2.95341299986056        3.00035358463123        3.03566441989427     
   3.06239661039506        3.07845796372365       0.357542080252802     
  0.736997274625539        1.13107217718509        1.60127667589698     
   2.08397157462817        2.53712387772331        2.94328202581777     
   3.27755441169741        3.54288520382735        3.74475916980949     
   3.89362129286971        4.00120661988753        4.08077562650706     
   4.13676905199031        4.17200224900783        4.18925328447643     
  0.437343392889036       0.905685144443412        1.39105118217222     
   1.96418328060662        2.56094652559510        3.13338042711383     
   3.65510231577015        4.09240551725208        4.44447587913415     
   4.71650089678798        4.91976400435815        5.06571746013296     
   5.16756700050534        5.23255489933679        5.26935497651396     
   5.28592745396171       0.522287910411503        1.08385376046826     
   1.66316595773895        2.34088988726162        3.05230074875257     
   3.74535351438473        4.38662311057858        4.93292654645578     
   5.37716928098919        5.72101264110550        5.97447375565325     
   6.15003551809125        6.26560963440423        6.33489589411599     
   6.37212885612187        6.38830148380039       0.613017140092728     
   1.27331699342949        1.95129883778980        2.73821103852395     
   3.56733342973284        4.38242877728935        5.14392667869382     
   5.79906613151349        6.33335385034700        6.74377020675730     
   7.04007346273539        7.23880670852101        7.36480864795590     
   7.43784905525372        7.47611509846998        7.49246302002067     
  0.707643842363141        1.47036680704279        2.25050456884775     
   3.15050859086507        4.09969131383930        5.03647857339810     
   5.91509226477091        6.67338767800529        7.29042392334079     
   7.75994133330859        8.09334766085128        8.31239340546569     
   8.44843215184250        8.52594960109730        8.56605293824096     
   8.58304975836640       0.802067111021061        1.66662447027217     
   2.54863641864892        3.56219424331639        4.63063429520794     
   5.68583549231821        6.67570584203589        7.52932114385667     
   8.22115477703435        8.74358044754920        9.11065976635366     
   9.34903481466496        9.49551333403566        9.57825583844248     
   9.62078840013880        9.63874846725922       0.891531995175484     
   1.85234454720442        2.83134428113941        3.95438347219299     
   5.13718649358682        6.30433869399299        7.39771001453884     
   8.33845444529748        9.09810686599705        9.66883426347534     
   10.0674631073284        10.3247511306462        10.4820387051454     
   10.5704997546806        10.6158246693587        10.6349383944109     
  0.972261429550749        2.01974670427459        3.08686070673975     
   4.31087278051716        5.59886961105970        6.86798815738202     
   8.05476834148033        9.07357974526486        9.89434211765780     
   10.5095455853291        10.9383156060402        11.2145244799380     
   11.3831685368911        11.4779066824119        11.5264085697348     
   11.5468715669784        1.04107866782275        2.16214396173674     
   3.30454235891387        4.61593417870977        5.99440617006303     
   7.35010340224226        8.61551820593656        9.70010077422989     
   10.5737074190691        11.2294973258566        11.6879063985398     
   11.9843486921851        12.1661433315862        12.2686785604141     
   12.3213467303812        12.3436380061322        1.09174158567433     
   2.26632004173937        3.46362962103461        4.83963202337189     
   6.28345788059495        7.69926815088873        9.01760253838741     
   10.1462180012244        11.0575529746009        11.7462802884624     
   12.2327544387425        12.5513863443614        12.7494508980428     
   12.8626113489586        12.9213645696774        12.9464268958651     
   1.11250161050366        2.30758124291375        3.52631893659103     
   4.92946764962502        6.39708456420828        7.82856829234870     
   9.15528559415716        10.2880415019116        11.2062834620885     
   11.9085024649747        12.4139093950351        12.7525884590526     