 Title = "Wing and Wake"
 VARIABLES = "X" "Y" "Z" "GAM" "skew"
 Zone I=   17 J=   20 K=1  T="Blade 01"
 DATAPACKING=BLOCK
 VARLOCATION=([4]=CELLCENTERED,[5]=CELLCENTERED)
 -0.221663389895091      -0.222861282662185      -0.225889066894670     
 -0.230484261817819      -0.237039467200976      -0.245828848988306     
 -0.256884640713112      -0.269866539927607      -0.283942905811920     
 -0.298000997869066      -0.310945604198468      -0.322012577118235     
 -0.330866919306386      -0.337610064847956      -0.342540315501286     
 -0.346039303237061      -0.348454094645647      -0.227471095821216     
 -0.228668988588313      -0.231696772820796      -0.236291967743944     
 -0.242847173127100      -0.251636554914433      -0.262692346639237     
 -0.275674245853732      -0.289750611738047      -0.303808703795193     
 -0.316753310124593      -0.327820283044359      -0.336674625232513     
 -0.343417770774082      -0.348348021427411      -0.351847009163188     
 -0.354261800571773      -0.235684515813591      -0.236882408580686     
 -0.239910192813171      -0.244505387736319      -0.251060593119475     
 -0.259849974906808      -0.270905766631612      -0.283887665846107     
 -0.297964031730422      -0.312022123787568      -0.324966730116966     
 -0.336033703036735      -0.344888045224888      -0.351631190766457     
 -0.356561441419787      -0.360060429155561      -0.362475220564149     
 -0.247150746589875      -0.248348639356971      -0.251376423589456     
 -0.255971618512602      -0.262526823895759      -0.271316205683093     
 -0.282371997407896      -0.295353896622391      -0.309430262506707     
 -0.323488354563851      -0.336432960893251      -0.347499933813018     
 -0.356354276001172      -0.363097421542743      -0.368027672196069     
 -0.371526659931847      -0.373941451340432      -0.262872225416434     
 -0.264070118183531      -0.267097902416015      -0.271693097339163     
 -0.278248302722319      -0.287037684509652      -0.298093476234457     
 -0.311075375448950      -0.325151741333264      -0.339209833390410     
 -0.352154439719810      -0.363221412639578      -0.372075754827730     
 -0.378818900369301      -0.383749151022629      -0.387248138758405     
 -0.389662930166991      -0.283903846607672      -0.285101739374767     
 -0.288129523607252      -0.292724718530398      -0.299279923913555     
 -0.308069305700887      -0.319125097425693      -0.332106996640189     
 -0.346183362524501      -0.360241454581650      -0.373186060911048     
 -0.384253033830816      -0.393107376018967      -0.399850521560537     
 -0.404780772213869      -0.408279759949644      -0.410694551358228     
 -0.311131152820971      -0.312329045588062      -0.315356829820549     
 -0.319952024743698      -0.326507230126851      -0.335296611914187     
 -0.346352403638989      -0.359334302853485      -0.373410668737799     
 -0.387468760794944      -0.400413367124344      -0.411480340044113     
 -0.420334682232264      -0.427077827773836      -0.432008078427163     
 -0.435507066162939      -0.437921857571526      -0.344920598840939     
 -0.346118491608037      -0.349146275840520      -0.353741470763666     
 -0.360296676146822      -0.369086057934157      -0.380141849658960     
 -0.393123748873455      -0.407200114757770      -0.421258206814916     
 -0.434202813144315      -0.445269786064083      -0.454124128252237     
 -0.460867273793805      -0.465797524447135      -0.469296512182911     
 -0.471711303591497      -0.384721419506449      -0.385919312273544     
 -0.388947096506028      -0.393542291429174      -0.400097496812331     
 -0.408886878599666      -0.419942670324470      -0.432924569538965     
 -0.447000935423277      -0.461059027480424      -0.474003633809825     
 -0.485070606729592      -0.493924948917745      -0.500668094459313     
 -0.505598345112644      -0.509097332848420      -0.511512124257003     
 -0.428820063039284      -0.430017955806380      -0.433045740038865     
 -0.437640934962009      -0.444196140345169      -0.452985522132501     
 -0.464041313857304      -0.477023213071800      -0.491099578956115     
 -0.505157671013260      -0.518102277342659      -0.529169250262426     
 -0.538023592450577      -0.544766737992152      -0.549696988645479     
 -0.553195976381256      -0.555610767789839      -0.474487341524719     
 -0.475685234291814      -0.478713018524299      -0.483308213447447     
 -0.489863418830604      -0.498652800617934      -0.509708592342741     
 -0.522690491557233      -0.536766857441551      -0.550824949498695     
 -0.563769555828097      -0.574836528747864      -0.583690870936013     
 -0.590434016477584      -0.595364267130915      -0.598863254866691     
 -0.601278046275275      -0.518585985057556      -0.519783877824654     
 -0.522811662057137      -0.527406856980282      -0.533962062363438     
 -0.542751444150772      -0.553807235875577      -0.566789135090073     
 -0.580865500974385      -0.594923593031534      -0.607868199360930     
 -0.618935172280698      -0.627789514468849      -0.634532660010421     
 -0.639462910663750      -0.642961898399526      -0.645376689808113     
 -0.558386805723064      -0.559584698490160      -0.562612482722644     
 -0.567207677645787      -0.573762883028945      -0.582552264816280     
 -0.593608056541085      -0.606589955755579      -0.620666321639893     
 -0.634724413697038      -0.647669020026440      -0.658735992946208     
 -0.667590335134359      -0.674333480675931      -0.679263731329257     
 -0.682762719065034      -0.685177510473621      -0.592176251743034     
 -0.593374144510127      -0.596401928742615      -0.600997123665760     
 -0.607552329048919      -0.616341710836252      -0.627397502561055     
 -0.640379401775550      -0.654455767659865      -0.668513859717007     
 -0.681458466046409      -0.692525438966177      -0.701379781154330     
 -0.708122926695904      -0.713053177349227      -0.716552165085004     
 -0.718966956493589      -0.619403557956333      -0.620601450723428     
 -0.623629234955913      -0.628224429879060      -0.634779635262216     
 -0.643569017049548      -0.654624808774351      -0.667606707988848     
 -0.681683073873161      -0.695741165930304      -0.708685772259706     
 -0.719752745179474      -0.728607087367631      -0.735350232909200     
 -0.740280483562525      -0.743779471298302      -0.746194262706888     
 -0.640435179147569      -0.641633071914664      -0.644660856147151     
 -0.649256051070296      -0.655811256453449      -0.664600638240784     
 -0.675656429965590      -0.688638329180085      -0.702714695064399     
 -0.716772787121543      -0.729717393450943      -0.740784366370714     
 -0.749638708558864      -0.756381854100432      -0.761312104753765     
 -0.764811092489541      -0.767225883898128      -0.656156657974129     
 -0.657354550741226      -0.660382334973708      -0.664977529896854     
 -0.671532735280015      -0.680322117067346      -0.691377908792149     
 -0.704359808006646      -0.718436173890957      -0.732494265948101     
 -0.745438872277505      -0.756505845197269      -0.765360187385422     
 -0.772103332926994      -0.777033583580323      -0.780532571316098     
 -0.782947362724685      -0.667622888750411      -0.668820781517509     
 -0.671848565749994      -0.676443760673141      -0.682998966056296     
 -0.691788347843631      -0.702844139568434      -0.715826038782930     
 -0.729902404667237      -0.743960496724388      -0.756905103053788     
 -0.767972075973555      -0.776826418161710      -0.783569563703272     
 -0.788499814356608      -0.791998802092381      -0.794413593500967     
 -0.675836308742790      -0.677034201509887      -0.680061985742368     
 -0.684657180665510      -0.691212386048672      -0.700001767836005     
 -0.711057559560810      -0.724039458775307      -0.738115824659616     
 -0.752173916716760      -0.765118523046162      -0.776185495965929     
 -0.785039838154084      -0.791782983695653      -0.796713234348978     
 -0.800212222084757      -0.802627013493345      -0.681644014668916     
 -0.682841907436006      -0.685869691668491      -0.690464886591637     
 -0.697020091974796      -0.705809473762129      -0.716865265486931     
 -0.729847164701424      -0.743923530585744      -0.757981622642888     
 -0.770926228972289      -0.781993201892060      -0.790847544080205     
 -0.797590689621778      -0.802520940275101      -0.806019928010879     
 -0.808434719419470     
 -0.374115123339686      -0.373013637011470      -0.370229528927272     
 -0.366004155402722      -0.359976513107403      -0.351894500978974     
 -0.341728479639677      -0.329791363988061      -0.316847864370692     
 -0.303921167902440      -0.292018343803626      -0.281842041132206     
 -0.273700296617585      -0.267499839592351      -0.262966375630889     
 -0.259748986512747      -0.257528537575151      -0.380431142652959     
 -0.379329656324743      -0.376545548240546      -0.372320174715996     
 -0.366292532420677      -0.358210520292247      -0.348044498952950     
 -0.336107383301334      -0.323163883683965      -0.310237187215714     
 -0.298334363116900      -0.288158060445478      -0.280016315930860     
 -0.273815858905625      -0.269282394944163      -0.266065005826021     
 -0.263844556888424      -0.389363433640096      -0.388261947311878     
 -0.385477839227681      -0.381252465703132      -0.375224823407812     
 -0.367142811279384      -0.356976789940084      -0.345039674288470     
 -0.332096174671103      -0.319169478202851      -0.307266654104034     
 -0.297090351432615      -0.288948606917996      -0.282748149892760     
 -0.278214685931299      -0.274997296813156      -0.272776847875560     
 -0.401833234273023      -0.400731747944807      -0.397947639860611     
 -0.393722266336060      -0.387694624040741      -0.379612611912312     
 -0.369446590573014      -0.357509474921398      -0.344565975304030     
 -0.331639278835779      -0.319736454736962      -0.309560152065544     
 -0.301418407550925      -0.295217950525691      -0.290684486564227     
 -0.287467097446085      -0.285246648508488      -0.418930719091443     
 -0.417829232763226      -0.415045124679029      -0.410819751154477     
 -0.404792108859161      -0.396710096730731      -0.386544075391433     
 -0.374606959739817      -0.361663460122448      -0.348736763654197     
 -0.336833939555381      -0.326657636883961      -0.318515892369343     
 -0.312315435344109      -0.307781971382646      -0.304564582264504     
 -0.302344133326907      -0.441803110931353      -0.440701624603136     
 -0.437917516518938      -0.433692142994386      -0.427664500699068     
 -0.419582488570639      -0.409416467231342      -0.397479351579727     
 -0.384535851962357      -0.371609155494107      -0.359706331395290     
 -0.349530028723873      -0.341388284209251      -0.335187827184018     
 -0.330654363222557      -0.327436974104413      -0.325216525166817     
 -0.471413458645071      -0.470311972316853      -0.467527864232657     
 -0.463302490708107      -0.457274848412786      -0.449192836284358     
 -0.439026814945060      -0.427089699293446      -0.414146199676076     
 -0.401219503207825      -0.389316679109009      -0.379140376437589     
 -0.370998631922969      -0.364798174897736      -0.360264710936274     
 -0.357047321818131      -0.354826872880534      -0.508160290588974     
 -0.507058804260759      -0.504274696176562      -0.500049322652008     
 -0.494021680356690      -0.485939668228262      -0.475773646888962     
 -0.463836531237351      -0.450893031619979      -0.437966335151728     
 -0.426063511052913      -0.415887208381494      -0.407745463866874     
 -0.401545006841640      -0.397011542880177      -0.393794153762036     
 -0.391573704824439      -0.551444636457221      -0.550343150129005     
 -0.547559042044806      -0.543333668520256      -0.537306026224938     
 -0.529224014096509      -0.519057992757212      -0.507120877105599     
 -0.494177377488227      -0.481250681019977      -0.469347856921162     
 -0.459171554249741      -0.451029809735121      -0.444829352709885     
 -0.440295888748425      -0.437078499630282      -0.434858050692687     
 -0.599402967644348      -0.598301481316131      -0.595517373231934     
 -0.591291999707380      -0.585264357412065      -0.577182345283635     
 -0.567016323944335      -0.555079208292719      -0.542135708675352     
 -0.529209012207102      -0.517306188108287      -0.507129885436865     
 -0.498988140922246      -0.492787683897014      -0.488254219935550     
 -0.485036830817408      -0.482816381879812      -0.649067226917728     
 -0.647965740589512      -0.645181632505315      -0.640956258980763     
 -0.634928616685447      -0.626846604557014      -0.616680583217721     
 -0.604743467566101      -0.591799967948735      -0.578873271480483     
 -0.566970447381668      -0.556794144710248      -0.548652400195628     
 -0.542451943170393      -0.537918479208931      -0.534701090090789     
 -0.532480641153192      -0.697025558104854      -0.695924071776637     
 -0.693139963692441      -0.688914590167888      -0.682886947872568     
 -0.674804935744139      -0.664638914404844      -0.652701798753228     
 -0.639758299135861      -0.626831602667609      -0.614928778568792     
 -0.604752475897374      -0.596610731382753      -0.590410274357517     
 -0.585876810396054      -0.582659421277913      -0.580438972340319     
 -0.740309903973100      -0.739208417644885      -0.736424309560687     
 -0.732198936036134      -0.726171293740818      -0.718089281612389     
 -0.707923260273093      -0.695986144621475      -0.683042645004106     
 -0.670115948535857      -0.658213124437041      -0.648036821765622     
 -0.639895077251002      -0.633694620225768      -0.629161156264306     
 -0.625943767146160      -0.623723318208568      -0.777056735917005     
 -0.775955249588788      -0.773171141504592      -0.768945767980041     
 -0.762918125684724      -0.754836113556293      -0.744670092216994     
 -0.732732976565380      -0.719789476948012      -0.706862780479757     
 -0.694959956380943      -0.684783653709524      -0.676641909194906     
 -0.670441452169672      -0.665907988208210      -0.662690599090064     
 -0.660470150152467      -0.806667083630724      -0.805565597302509     
 -0.802781489218312      -0.798556115693762      -0.792528473398440     
 -0.784446461270013      -0.774280439930713      -0.762343324279097     
 -0.749399824661731      -0.736473128193477      -0.724570304094662     
 -0.714394001423242      -0.706252256908626      -0.700051799883391     
 -0.695518335921927      -0.692300946803785      -0.690080497866187     
 -0.829539475470633      -0.828437989142418      -0.825653881058218     
 -0.821428507533666      -0.815400865238349      -0.807318853109920     
 -0.797152831770623      -0.785215716119009      -0.772272216501637     
 -0.759345520033384      -0.747442695934571      -0.737266393263153     
 -0.729124648748534      -0.722924191723295      -0.718390727761838     
 -0.715173338643694      -0.712952889706101      -0.846636960289052     
 -0.845535473960837      -0.842751365876637      -0.838525992352087     
 -0.832498350056770      -0.824416337928340      -0.814250316589042     
 -0.802313200937429      -0.789369701320054      -0.776443004851803     
 -0.764540180752994      -0.754363878081572      -0.746222133566950     
 -0.740021676541717      -0.735488212580256      -0.732270823462111     
 -0.730050374524515      -0.859106760921979      -0.858005274593766     
 -0.855221166509572      -0.850995792985017      -0.844968150689697     
 -0.836886138561268      -0.826720117221970      -0.814783001570355     
 -0.801839501952986      -0.788912805484736      -0.777009981385917     
 -0.766833678714496      -0.758691934199880      -0.752491477174644     
 -0.747958013213183      -0.744740624095041      -0.742520175157443     
 -0.868039051909117      -0.866937565580900      -0.864153457496705     
 -0.859928083972144      -0.853900441676834      -0.845818429548401     
 -0.835652408209109      -0.823715292557492      -0.810771792940123     
 -0.797845096471867      -0.785942272373052      -0.775765969701634     
 -0.767624225187018      -0.761423768161781      -0.756890304200319     
 -0.753672915082178      -0.751452466144579      -0.874355071222391     
 -0.873253584894170      -0.870469476809977      -0.866244103285422     
 -0.860216460990103      -0.852134448861679      -0.841968427522377     
 -0.830031311870761      -0.817087812253398      -0.804161115785141     
 -0.792258291686328      -0.782081989014913      -0.773940244500286     
 -0.767739787475055      -0.763206323513591      -0.759988934395452     
 -0.757768485457853     
 -0.861900000000000      -0.861198250160462      -0.859274705714126     
 -0.856469691008942      -0.853210543366638      -0.849381928232883     
 -0.844860973981103      -0.839764655353441      -0.834280691189070     
 -0.828815401108890      -0.823788006353202      -0.819496643118425     
 -0.816057233005663      -0.813443018604849      -0.811531673430508     
 -0.810174731185110      -0.809239441166694      -0.861900000000000     
 -0.861198250160462      -0.859274705714126      -0.856469691008942     
 -0.853210543366638      -0.849381928232883      -0.844860973981103     
 -0.839764655353441      -0.834280691189070      -0.828815401108890     
 -0.823788006353202      -0.819496643118425      -0.816057233005663     
 -0.813443018604849      -0.811531673430508      -0.810174731185110     
 -0.809239441166694      -0.861900000000000      -0.861198250160462     
 -0.859274705714126      -0.856469691008942      -0.853210543366638     
 -0.849381928232883      -0.844860973981103      -0.839764655353441     
 -0.834280691189070      -0.828815401108890      -0.823788006353202     
 -0.819496643118425      -0.816057233005663      -0.813443018604849     
 -0.811531673430508      -0.810174731185110      -0.809239441166694     
 -0.861900000000000      -0.861198250160462      -0.859274705714126     
 -0.856469691008942      -0.853210543366638      -0.849381928232883     
 -0.844860973981103      -0.839764655353441      -0.834280691189070     
 -0.828815401108890      -0.823788006353202      -0.819496643118425     
 -0.816057233005663      -0.813443018604849      -0.811531673430508     
 -0.810174731185110      -0.809239441166694      -0.861900000000000     
 -0.861198250160462      -0.859274705714126      -0.856469691008942     
 -0.853210543366638      -0.849381928232883      -0.844860973981103     
 -0.839764655353441      -0.834280691189070      -0.828815401108890     
 -0.823788006353202      -0.819496643118425      -0.816057233005663     
 -0.813443018604849      -0.811531673430508      -0.810174731185110     
 -0.809239441166694      -0.861900000000000      -0.861198250160462     
 -0.859274705714126      -0.856469691008942      -0.853210543366638     
 -0.849381928232883      -0.844860973981103      -0.839764655353441     
 -0.834280691189070      -0.828815401108890      -0.823788006353202     
 -0.819496643118425      -0.816057233005663      -0.813443018604849     
 -0.811531673430508      -0.810174731185110      -0.809239441166694     
 -0.861900000000000      -0.861198250160462      -0.859274705714126     
 -0.856469691008942      -0.853210543366638      -0.849381928232883     
 -0.844860973981103      -0.839764655353441      -0.834280691189070     
 -0.828815401108890      -0.823788006353202      -0.819496643118425     
 -0.816057233005663      -0.813443018604849      -0.811531673430508     
 -0.810174731185110      -0.809239441166694      -0.861900000000000     
 -0.861198250160462      -0.859274705714126      -0.856469691008942     
 -0.853210543366638      -0.849381928232883      -0.844860973981103     
 -0.839764655353441      -0.834280691189070      -0.828815401108890     
 -0.823788006353202      -0.819496643118425      -0.816057233005663     
 -0.813443018604849      -0.811531673430508      -0.810174731185110     
 -0.809239441166694      -0.861900000000000      -0.861198250160462     
 -0.859274705714126      -0.856469691008942      -0.853210543366638     
 -0.849381928232883      -0.844860973981103      -0.839764655353441     
 -0.834280691189070      -0.828815401108890      -0.823788006353202     
 -0.819496643118425      -0.816057233005663      -0.813443018604849     
 -0.811531673430508      -0.810174731185110      -0.809239441166694     
 -0.861900000000000      -0.861198250160462      -0.859274705714126     
 -0.856469691008942      -0.853210543366638      -0.849381928232883     
 -0.844860973981103      -0.839764655353441      -0.834280691189070     
 -0.828815401108890      -0.823788006353202      -0.819496643118425     
 -0.816057233005663      -0.813443018604849      -0.811531673430508     
 -0.810174731185110      -0.809239441166694      -0.861900000000000     
 -0.861198250160462      -0.859274705714126      -0.856469691008942     
 -0.853210543366638      -0.849381928232883      -0.844860973981103     
 -0.839764655353441      -0.834280691189070      -0.828815401108890     
 -0.823788006353202      -0.819496643118425      -0.816057233005663     
 -0.813443018604849      -0.811531673430508      -0.810174731185110     
 -0.809239441166694      -0.861900000000000      -0.861198250160462     
 -0.859274705714126      -0.856469691008942      -0.853210543366638     
 -0.849381928232883      -0.844860973981103      -0.839764655353441     
 -0.834280691189070      -0.828815401108890      -0.823788006353202     
 -0.819496643118425      -0.816057233005663      -0.813443018604849     
 -0.811531673430508      -0.810174731185110      -0.809239441166694     
 -0.861900000000000      -0.861198250160462      -0.859274705714126     
 -0.856469691008942      -0.853210543366638      -0.849381928232883     
 -0.844860973981103      -0.839764655353441      -0.834280691189070     
 -0.828815401108890      -0.823788006353202      -0.819496643118425     
 -0.816057233005663      -0.813443018604849      -0.811531673430508     
 -0.810174731185110      -0.809239441166694      -0.861900000000000     
 -0.861198250160462      -0.859274705714126      -0.856469691008942     
 -0.853210543366638      -0.849381928232883      -0.844860973981103     
 -0.839764655353441      -0.834280691189070      -0.828815401108890     
 -0.823788006353202      -0.819496643118425      -0.816057233005663     
 -0.813443018604849      -0.811531673430508      -0.810174731185110     
 -0.809239441166694      -0.861900000000000      -0.861198250160462     
 -0.859274705714126      -0.856469691008942      -0.853210543366638     
 -0.849381928232883      -0.844860973981103      -0.839764655353441     
 -0.834280691189070      -0.828815401108890      -0.823788006353202     
 -0.819496643118425      -0.816057233005663      -0.813443018604849     
 -0.811531673430508      -0.810174731185110      -0.809239441166694     
 -0.861900000000000      -0.861198250160462      -0.859274705714126     
 -0.856469691008942      -0.853210543366638      -0.849381928232883     
 -0.844860973981103      -0.839764655353441      -0.834280691189070     
 -0.828815401108890      -0.823788006353202      -0.819496643118425     
 -0.816057233005663      -0.813443018604849      -0.811531673430508     
 -0.810174731185110      -0.809239441166694      -0.861900000000000     
 -0.861198250160462      -0.859274705714126      -0.856469691008942     
 -0.853210543366638      -0.849381928232883      -0.844860973981103     
 -0.839764655353441      -0.834280691189070      -0.828815401108890     
 -0.823788006353202      -0.819496643118425      -0.816057233005663     
 -0.813443018604849      -0.811531673430508      -0.810174731185110     
 -0.809239441166694      -0.861900000000000      -0.861198250160462     
 -0.859274705714126      -0.856469691008942      -0.853210543366638     
 -0.849381928232883      -0.844860973981103      -0.839764655353441     
 -0.834280691189070      -0.828815401108890      -0.823788006353202     
 -0.819496643118425      -0.816057233005663      -0.813443018604849     
 -0.811531673430508      -0.810174731185110      -0.809239441166694     
 -0.861900000000000      -0.861198250160462      -0.859274705714126     
 -0.856469691008942      -0.853210543366638      -0.849381928232883     
 -0.844860973981103      -0.839764655353441      -0.834280691189070     
 -0.828815401108890      -0.823788006353202      -0.819496643118425     
 -0.816057233005663      -0.813443018604849      -0.811531673430508     
 -0.810174731185110      -0.809239441166694      -0.861900000000000     
 -0.861198250160462      -0.859274705714126      -0.856469691008942     
 -0.853210543366638      -0.849381928232883      -0.844860973981103     
 -0.839764655353441      -0.834280691189070      -0.828815401108890     
 -0.823788006353202      -0.819496643118425      -0.816057233005663     
 -0.813443018604849      -0.811531673430508      -0.810174731185110     
 -0.809239441166694     
 -0.443647592620515      -0.873855401077463       -1.18029441110681     
  -1.38043988151700       -1.55490902032731       -1.72706112768441     
  -1.88927349798735       -2.03994824655785       -2.16480838348735     
  -2.25837127986053       -2.32123434054860       -2.35888160756540     
  -2.37645294125116       -2.38238941658106       -2.38380629485473     
  -2.38551524624490      -0.601448494637093       -1.22190654626499     
  -1.71503228192385       -2.07820384998038       -2.39161545277730     
  -2.68729055013150       -2.96049640109187       -3.21021195384399     
  -3.41814486259151       -3.57760484115334       -3.69156064225635     
  -3.77038484372190       -3.82432794966639       -3.86449882863406     
  -3.89433893171263       -3.91188761646962      -0.727624646906779     
  -1.49173715690525       -2.12896442612140       -2.63745510773331     
  -3.09224944646909       -3.51880197193313       -3.90950652398451     
  -4.26259031036113       -4.55820868274219       -4.79004545394192     
  -4.96374864490095       -5.09240012838776       -5.18595852207894     
  -5.25232979000601       -5.29428316629328       -5.31469099378244     
 -0.848260007368169       -1.74595621874912       -2.51295071530419     
  -3.15407788375195       -3.74753785443202       -4.31255846674487     
  -4.83309584472187       -5.30225002726018       -5.69714222562684     
  -6.01084070991154       -6.24923752924505       -6.42459385053544     
  -6.54615363975132       -6.62476323451657       -6.66966545434985     
  -6.68976060924073      -0.972399458269427       -2.00556443183344     
  -2.90045728140071       -3.66915574291311       -4.39740580259319     
  -5.10249920455944       -5.76014267639978       -6.35507182399897     
  -6.85724364141320       -7.25558357517431       -7.55402809994645     
  -7.76559894481966       -7.90434535355993       -7.98867310687733     
  -8.03436727852732       -8.05404408192207       -1.10335078925867     
  -2.27817805031361       -3.30388847181855       -4.19911019736843     
  -5.05897213837210       -5.90114052170785       -6.69458616175055     
  -7.41506787888437       -8.02245354521072       -8.49939658074908     
  -8.84887642546800       -9.08841080905929       -9.23966506161618     
  -9.32845576832184       -9.37529510887527       -9.39508215883600     
  -1.24016172155604       -2.56211223828889       -3.72119543975241     
  -4.74145907055868       -5.72833997766499       -6.70057967120311     
  -7.62114586042173       -8.45772188824373       -9.16026327160522     
  -9.70607361644276       -10.0990712763766       -10.3626379029439     
  -10.5255188605400       -10.6194065284147       -10.6682547678669     
  -10.6886828316972       -1.37827978015041       -2.84809738585256     
  -4.13900668506121       -5.27909619959449       -6.38479767918498     
  -7.47626408349921       -8.51102051127532       -9.45035341909400     
  -10.2360966830045       -10.8419809052018       -11.2736840988607     
  -11.5598612877027       -11.7347914395300       -11.8347308307287     
  -11.8863756117373       -11.9078625619407       -1.51084003406911     
  -3.12207702658205       -4.53706480853887       -5.78643959601018     
  -6.99817555359113       -8.19438237474361       -9.32805659989651     
  -10.3560339812169       -11.2138538380210       -11.8728219389413     
  -12.3401548272524       -12.6485108191012       -12.8361991710319     
  -12.9430856812877       -12.9981865080868       -13.0210666349908     
  -1.62938623739447       -3.36666567476167       -4.89028281128651     
  -6.23184475636911       -7.53098937186412       -8.81249813644108     
  -10.0261953933410       -11.1265685709331       -12.0445562392102     
  -12.7496214839687       -13.2496974041513       -13.5798786422910     
  -13.7810207464913       -13.8957085337806       -13.9548928022626     
  -13.9794843956230       -1.72343986393164       -3.56016581453421     
  -5.16700622203358       -6.57471537100197       -7.93389155563331     
  -9.27267702059721       -10.5395961259972       -11.6893804983631     
  -12.6505492639413       -13.3913452510350       -13.9192862025175     
  -14.2699083325373       -14.4847762420996       -14.6080027962235     
  -14.6718987254922       -14.6985412902613       -1.78084214307714     
  -3.67723889306252       -5.32979297570545       -6.76604900362909     
  -8.14576916882746       -9.50094926588432       -10.7812566894355     
  -11.9451883617970       -12.9222712293610       -13.6809068162541     
  -14.2270331076834       -14.5940214038744       -14.8215883410013     
  -14.9535721266908       -15.0226555714927       -15.0516665622294     
  -1.79162834223923       -3.69697815628872       -5.34736237428486     
  -6.76412489375652       -8.11332410246057       -9.43092262438083     
  -10.6705157833429       -11.7988472617530       -12.7514927945850     
  -13.4998293325350       -14.0475777331498       -14.4228305454068     