 Title = "Wing and Wake"
 VARIABLES = "X" "Y" "Z" "GAM" "skew"
 Zone I=   17 J=   20 K=1  T="Blade 01"
 DATAPACKING=BLOCK
 VARLOCATION=([4]=CELLCENTERED,[5]=CELLCENTERED)
  0.221663389895089       0.222861282662185       0.225889066894669     
  0.230484261817818       0.237039467200975       0.245828848988306     
  0.256884640713111       0.269866539927606       0.283942905811920     
  0.298000997869065       0.310945604198466       0.322012577118233     
  0.330866919306385       0.337610064847955       0.342540315501284     
  0.346039303237060       0.348454094645646       0.227471095821215     
  0.228668988588312       0.231696772820795       0.236291967743943     
  0.242847173127099       0.251636554914432       0.262692346639236     
  0.275674245853731       0.289750611738046       0.303808703795192     
  0.316753310124591       0.327820283044358       0.336674625232511     
  0.343417770774081       0.348348021427410       0.351847009163187     
  0.354261800571772       0.235684515813590       0.236882408580686     
  0.239910192813170       0.244505387736317       0.251060593119474     
  0.259849974906807       0.270905766631611       0.283887665846105     
  0.297964031730421       0.312022123787566       0.324966730116965     
  0.336033703036734       0.344888045224886       0.351631190766455     
  0.356561441419785       0.360060429155560       0.362475220564147     
  0.247150746589874       0.248348639356969       0.251376423589455     
  0.255971618512601       0.262526823895758       0.271316205683092     
  0.282371997407895       0.295353896622390       0.309430262506706     
  0.323488354563850       0.336432960893250       0.347499933813018     
  0.356354276001171       0.363097421542741       0.368027672196069     
  0.371526659931846       0.373941451340431       0.262872225416433     
  0.264070118183530       0.267097902416014       0.271693097339161     
  0.278248302722318       0.287037684509651       0.298093476234456     
  0.311075375448949       0.325151741333263       0.339209833390408     
  0.352154439719808       0.363221412639576       0.372075754827729     
  0.378818900369300       0.383749151022628       0.387248138758403     
  0.389662930166990       0.283903846607671       0.285101739374766     
  0.288129523607251       0.292724718530397       0.299279923913554     
  0.308069305700887       0.319125097425692       0.332106996640188     
  0.346183362524500       0.360241454581648       0.373186060911046     
  0.384253033830815       0.393107376018965       0.399850521560536     
  0.404780772213867       0.408279759949642       0.410694551358227     
  0.311131152820970       0.312329045588062       0.315356829820547     
  0.319952024743696       0.326507230126850       0.335296611914185     
  0.346352403638988       0.359334302853485       0.373410668737798     
  0.387468760794944       0.400413367124343       0.411480340044111     
  0.420334682232264       0.427077827773835       0.432008078427162     
  0.435507066162938       0.437921857571524       0.344920598840938     
  0.346118491608035       0.349146275840519       0.353741470763665     
  0.360296676146822       0.369086057934156       0.380141849658959     
  0.393123748873455       0.407200114757769       0.421258206814914     
  0.434202813144313       0.445269786064082       0.454124128252234     
  0.460867273793803       0.465797524447133       0.469296512182909     
  0.471711303591496       0.384721419506447       0.385919312273542     
  0.388947096506026       0.393542291429173       0.400097496812330     
  0.408886878599664       0.419942670324467       0.432924569538963     
  0.447000935423277       0.461059027480423       0.474003633809823     
  0.485070606729590       0.493924948917743       0.500668094459312     
  0.505598345112642       0.509097332848418       0.511512124257002     
  0.428820063039282       0.430017955806378       0.433045740038863     
  0.437640934962007       0.444196140345167       0.452985522132499     
  0.464041313857303       0.477023213071798       0.491099578956112     
  0.505157671013258       0.518102277342658       0.529169250262424     
  0.538023592450576       0.544766737992149       0.549696988645477     
  0.553195976381253       0.555610767789837       0.474487341524718     
  0.475685234291812       0.478713018524297       0.483308213447445     
  0.489863418830602       0.498652800617932       0.509708592342740     
  0.522690491557232       0.536766857441549       0.550824949498693     
  0.563769555828094       0.574836528747862       0.583690870936012     
  0.590434016477584       0.595364267130913       0.598863254866689     
  0.601278046275273       0.518585985057553       0.519783877824650     
  0.522811662057134       0.527406856980280       0.533962062363436     
  0.542751444150770       0.553807235875574       0.566789135090070     
  0.580865500974383       0.594923593031531       0.607868199360928     
  0.618935172280696       0.627789514468847       0.634532660010418     
  0.639462910663748       0.642961898399524       0.645376689808110     
  0.558386805723062       0.559584698490157       0.562612482722643     
  0.567207677645786       0.573762883028944       0.582552264816277     
  0.593608056541082       0.606589955755577       0.620666321639891     
  0.634724413697036       0.647669020026437       0.658735992946206     
  0.667590335134356       0.674333480675928       0.679263731329255     
  0.682762719065031       0.685177510473618       0.592176251743032     
  0.593374144510125       0.596401928742612       0.600997123665759     
  0.607552329048917       0.616341710836249       0.627397502561052     
  0.640379401775547       0.654455767659863       0.668513859717006     
  0.681458466046406       0.692525438966175       0.701379781154327     
  0.708122926695899       0.713053177349225       0.716552165085002     
  0.718966956493588       0.619403557956330       0.620601450723426     
  0.623629234955910       0.628224429879058       0.634779635262212     
  0.643569017049546       0.654624808774350       0.667606707988845     
  0.681683073873158       0.695741165930304       0.708685772259704     
  0.719752745179471       0.728607087367627       0.735350232909196     
  0.740280483562523       0.743779471298300       0.746194262706886     
  0.640435179147566       0.641633071914662       0.644660856147148     
  0.649256051070293       0.655811256453448       0.664600638240781     
  0.675656429965587       0.688638329180082       0.702714695064397     
  0.716772787121541       0.729717393450941       0.740784366370709     
  0.749638708558861       0.756381854100431       0.761312104753762     
  0.764811092489537       0.767225883898124       0.656156657974126     
  0.657354550741224       0.660382334973704       0.664977529896852     
  0.671532735280011       0.680322117067343       0.691377908792146     
  0.704359808006641       0.718436173890955       0.732494265948099     
  0.745438872277503       0.756505845197267       0.765360187385419     
  0.772103332926990       0.777033583580320       0.780532571316096     
  0.782947362724681       0.667622888750410       0.668820781517505     
  0.671848565749990       0.676443760673138       0.682998966056293     
  0.691788347843627       0.702844139568432       0.715826038782927     
  0.729902404667237       0.743960496724386       0.756905103053785     
  0.767972075973553       0.776826418161707       0.783569563703272     
  0.788499814356604       0.791998802092379       0.794413593500966     
  0.675836308742788       0.677034201509883       0.680061985742365     
  0.684657180665509       0.691212386048668       0.700001767836001     
  0.711057559560806       0.724039458775303       0.738115824659613     
  0.752173916716757       0.765118523046159       0.776185495965926     
  0.785039838154081       0.791782983695652       0.796713234348976     
  0.800212222084756       0.802627013493341       0.681644014668912     
  0.682841907436004       0.685869691668489       0.690464886591635     
  0.697020091974794       0.705809473762126       0.716865265486929     
  0.729847164701422       0.743923530585742       0.757981622642885     
  0.770926228972285       0.781993201892056       0.790847544080205     
  0.797590689621776       0.802520940275100       0.806019928010877     
  0.808434719419467     
  0.374115123339686       0.373013637011470       0.370229528927272     
  0.366004155402721       0.359976513107403       0.351894500978974     
  0.341728479639676       0.329791363988061       0.316847864370692     
  0.303921167902440       0.292018343803625       0.281842041132206     
  0.273700296617585       0.267499839592351       0.262966375630889     
  0.259748986512747       0.257528537575151       0.380431142652959     
  0.379329656324743       0.376545548240546       0.372320174715995     
  0.366292532420676       0.358210520292247       0.348044498952950     
  0.336107383301334       0.323163883683965       0.310237187215714     
  0.298334363116899       0.288158060445478       0.280016315930860     
  0.273815858905626       0.269282394944163       0.266065005826021     
  0.263844556888424       0.389363433640096       0.388261947311878     
  0.385477839227681       0.381252465703131       0.375224823407812     
  0.367142811279384       0.356976789940084       0.345039674288469     
  0.332096174671102       0.319169478202851       0.307266654104034     
  0.297090351432615       0.288948606917995       0.282748149892760     
  0.278214685931299       0.274997296813156       0.272776847875560     
  0.401833234273023       0.400731747944807       0.397947639860611     
  0.393722266336060       0.387694624040741       0.379612611912312     
  0.369446590573014       0.357509474921398       0.344565975304030     
  0.331639278835779       0.319736454736962       0.309560152065543     
  0.301418407550924       0.295217950525690       0.290684486564228     
  0.287467097446085       0.285246648508488       0.418930719091442     
  0.417829232763226       0.415045124679029       0.410819751154477     
  0.404792108859160       0.396710096730730       0.386544075391433     
  0.374606959739817       0.361663460122448       0.348736763654197     
  0.336833939555381       0.326657636883961       0.318515892369343     
  0.312315435344108       0.307781971382646       0.304564582264504     
  0.302344133326907       0.441803110931353       0.440701624603135     
  0.437917516518938       0.433692142994387       0.427664500699068     
  0.419582488570639       0.409416467231342       0.397479351579727     
  0.384535851962357       0.371609155494107       0.359706331395290     
  0.349530028723873       0.341388284209251       0.335187827184018     
  0.330654363222557       0.327436974104412       0.325216525166817     
  0.471413458645070       0.470311972316853       0.467527864232656     
  0.463302490708105       0.457274848412786       0.449192836284358     
  0.439026814945060       0.427089699293446       0.414146199676076     
  0.401219503207824       0.389316679109009       0.379140376437590     
  0.370998631922970       0.364798174897736       0.360264710936274     
  0.357047321818131       0.354826872880535       0.508160290588973     
  0.507058804260758       0.504274696176562       0.500049322652008     
  0.494021680356690       0.485939668228262       0.475773646888962     
  0.463836531237350       0.450893031619979       0.437966335151728     
  0.426063511052913       0.415887208381493       0.407745463866874     
  0.401545006841639       0.397011542880178       0.393794153762035     
  0.391573704824439       0.551444636457222       0.550343150129004     
  0.547559042044807       0.543333668520256       0.537306026224938     
  0.529224014096509       0.519057992757211       0.507120877105598     
  0.494177377488227       0.481250681019977       0.469347856921162     
  0.459171554249741       0.451029809735122       0.444829352709886     
  0.440295888748425       0.437078499630282       0.434858050692686     
  0.599402967644347       0.598301481316130       0.595517373231934     
  0.591291999707380       0.585264357412064       0.577182345283635     
  0.567016323944335       0.555079208292720       0.542135708675352     
  0.529209012207101       0.517306188108286       0.507129885436865     
  0.498988140922246       0.492787683897014       0.488254219935549     
  0.485036830817407       0.482816381879811       0.649067226917728     
  0.647965740589512       0.645181632505315       0.640956258980762     
  0.634928616685446       0.626846604557015       0.616680583217720     
  0.604743467566101       0.591799967948735       0.578873271480483     
  0.566970447381667       0.556794144710248       0.548652400195628     
  0.542451943170393       0.537918479208931       0.534701090090789     
  0.532480641153192       0.697025558104853       0.695924071776636     
  0.693139963692440       0.688914590167887       0.682886947872568     
  0.674804935744140       0.664638914404843       0.652701798753227     
  0.639758299135860       0.626831602667608       0.614928778568792     
  0.604752475897373       0.596610731382753       0.590410274357517     
  0.585876810396055       0.582659421277913       0.580438972340318     
  0.740309903973100       0.739208417644884       0.736424309560686     
  0.732198936036134       0.726171293740817       0.718089281612388     
  0.707923260273092       0.695986144621475       0.683042645004106     
  0.670115948535855       0.658213124437040       0.648036821765622     
  0.639895077251001       0.633694620225767       0.629161156264305     
  0.625943767146160       0.623723318208566       0.777056735917005     
  0.775955249588787       0.773171141504591       0.768945767980040     
  0.762918125684723       0.754836113556292       0.744670092216993     
  0.732732976565379       0.719789476948012       0.706862780479758     
  0.694959956380943       0.684783653709524       0.676641909194905     
  0.670441452169672       0.665907988208210       0.662690599090064     
  0.660470150152468       0.806667083630724       0.805565597302507     
  0.802781489218310       0.798556115693760       0.792528473398439     
  0.784446461270011       0.774280439930713       0.762343324279095     
  0.749399824661728       0.736473128193477       0.724570304094661     
  0.714394001423243       0.706252256908626       0.700051799883390     
  0.695518335921927       0.692300946803784       0.690080497866187     
  0.829539475470632       0.828437989142416       0.825653881058219     
  0.821428507533666       0.815400865238350       0.807318853109919     
  0.797152831770621       0.785215716119007       0.772272216501637     
  0.759345520033385       0.747442695934571       0.737266393263152     
  0.729124648748533       0.722924191723296       0.718390727761837     
  0.715173338643693       0.712952889706099       0.846636960289052     
  0.845535473960836       0.842751365876635       0.838525992352086     
  0.832498350056770       0.824416337928338       0.814250316589041     
  0.802313200937426       0.789369701320055       0.776443004851803     
  0.764540180752993       0.754363878081572       0.746222133566950     
  0.740021676541716       0.735488212580256       0.732270823462111     
  0.730050374524514       0.859106760921979       0.858005274593764     
  0.855221166509569       0.850995792985016       0.844968150689696     
  0.836886138561267       0.826720117221970       0.814783001570354     
  0.801839501952986       0.788912805484736       0.777009981385917     
  0.766833678714497       0.758691934199880       0.752491477174644     
  0.747958013213182       0.744740624095040       0.742520175157443     
  0.868039051909118       0.866937565580899       0.864153457496703     
  0.859928083972145       0.853900441676832       0.845818429548400     
  0.835652408209106       0.823715292557491       0.810771792940122     
  0.797845096471867       0.785942272373052       0.775765969701634     
  0.767624225187018       0.761423768161781       0.756890304200318     
  0.753672915082177       0.751452466144579       0.874355071222389     
  0.873253584894170       0.870469476809975       0.866244103285422     
  0.860216460990104       0.852134448861678       0.841968427522376     
  0.830031311870761       0.817087812253397       0.804161115785141     
  0.792258291686327       0.782081989014911       0.773940244500287     
  0.767739787475056       0.763206323513591       0.759988934395451     
  0.757768485457853     
 -0.861900000000000      -0.861198250160462      -0.859274705714126     
 -0.856469691008942      -0.853210543366638      -0.849381928232883     
 -0.844860973981103      -0.839764655353441      -0.834280691189070     
 -0.828815401108890      -0.823788006353202      -0.819496643118425     
 -0.816057233005663      -0.813443018604849      -0.811531673430508     
 -0.810174731185110      -0.809239441166694      -0.861900000000000     
 -0.861198250160462      -0.859274705714126      -0.856469691008942     
 -0.853210543366638      -0.849381928232883      -0.844860973981103     
 -0.839764655353441      -0.834280691189070      -0.828815401108890     
 -0.823788006353202      -0.819496643118425      -0.816057233005663     
 -0.813443018604849      -0.811531673430508      -0.810174731185110     
 -0.809239441166694      -0.861900000000000      -0.861198250160462     
 -0.859274705714126      -0.856469691008942      -0.853210543366638     
 -0.849381928232883      -0.844860973981103      -0.839764655353441     
 -0.834280691189070      -0.828815401108890      -0.823788006353202     
 -0.819496643118425      -0.816057233005663      -0.813443018604849     
 -0.811531673430508      -0.810174731185110      -0.809239441166694     
 -0.861900000000000      -0.861198250160462      -0.859274705714126     
 -0.856469691008942      -0.853210543366638      -0.849381928232883     
 -0.844860973981103      -0.839764655353441      -0.834280691189070     
 -0.828815401108890      -0.823788006353202      -0.819496643118425     
 -0.816057233005663      -0.813443018604849      -0.811531673430508     
 -0.810174731185110      -0.809239441166694      -0.861900000000000     
 -0.861198250160462      -0.859274705714126      -0.856469691008942     
 -0.853210543366638      -0.849381928232883      -0.844860973981103     
 -0.839764655353441      -0.834280691189070      -0.828815401108890     
 -0.823788006353202      -0.819496643118425      -0.816057233005663     
 -0.813443018604849      -0.811531673430508      -0.810174731185110     
 -0.809239441166694      -0.861900000000000      -0.861198250160462     
 -0.859274705714126      -0.856469691008942      -0.853210543366638     
 -0.849381928232883      -0.844860973981103      -0.839764655353441     
 -0.834280691189070      -0.828815401108890      -0.823788006353202     
 -0.819496643118425      -0.816057233005663      -0.813443018604849     
 -0.811531673430508      -0.810174731185110      -0.809239441166694     
 -0.861900000000000      -0.861198250160462      -0.859274705714126     
 -0.856469691008942      -0.853210543366638      -0.849381928232883     
 -0.844860973981103      -0.839764655353441      -0.834280691189070     
 -0.828815401108890      -0.823788006353202      -0.819496643118425     
 -0.816057233005663      -0.813443018604849      -0.811531673430508     
 -0.810174731185110      -0.809239441166694      -0.861900000000000     
 -0.861198250160462      -0.859274705714126      -0.856469691008942     
 -0.853210543366638      -0.849381928232883      -0.844860973981103     
 -0.839764655353441      -0.834280691189070      -0.828815401108890     
 -0.823788006353202      -0.819496643118425      -0.816057233005663     
 -0.813443018604849      -0.811531673430508      -0.810174731185110     
 -0.809239441166694      -0.861900000000000      -0.861198250160462     
 -0.859274705714126      -0.856469691008942      -0.853210543366638     
 -0.849381928232883      -0.844860973981103      -0.839764655353441     
 -0.834280691189070      -0.828815401108890      -0.823788006353202     
 -0.819496643118425      -0.816057233005663      -0.813443018604849     
 -0.811531673430508      -0.810174731185110      -0.809239441166694     
 -0.861900000000000      -0.861198250160462      -0.859274705714126     
 -0.856469691008942      -0.853210543366638      -0.849381928232883     
 -0.844860973981103      -0.839764655353441      -0.834280691189070     
 -0.828815401108890      -0.823788006353202      -0.819496643118425     
 -0.816057233005663      -0.813443018604849      -0.811531673430508     
 -0.810174731185110      -0.809239441166694      -0.861900000000000     
 -0.861198250160462      -0.859274705714126      -0.856469691008942     
 -0.853210543366638      -0.849381928232883      -0.844860973981103     
 -0.839764655353441      -0.834280691189070      -0.828815401108890     
 -0.823788006353202      -0.819496643118425      -0.816057233005663     
 -0.813443018604849      -0.811531673430508      -0.810174731185110     
 -0.809239441166694      -0.861900000000000      -0.861198250160462     
 -0.859274705714126      -0.856469691008942      -0.853210543366638     
 -0.849381928232883      -0.844860973981103      -0.839764655353441     
 -0.834280691189070      -0.828815401108890      -0.823788006353202     
 -0.819496643118425      -0.816057233005663      -0.813443018604849     
 -0.811531673430508      -0.810174731185110      -0.809239441166694     
 -0.861900000000000      -0.861198250160462      -0.859274705714126     
 -0.856469691008942      -0.853210543366638      -0.849381928232883     
 -0.844860973981103      -0.839764655353441      -0.834280691189070     
 -0.828815401108890      -0.823788006353202      -0.819496643118425     
 -0.816057233005663      -0.813443018604849      -0.811531673430508     
 -0.810174731185110      -0.809239441166694      -0.861900000000000     
 -0.861198250160462      -0.859274705714126      -0.856469691008942     
 -0.853210543366638      -0.849381928232883      -0.844860973981103     
 -0.839764655353441      -0.834280691189070      -0.828815401108890     
 -0.823788006353202      -0.819496643118425      -0.816057233005663     
 -0.813443018604849      -0.811531673430508      -0.810174731185110     
 -0.809239441166694      -0.861900000000000      -0.861198250160462     
 -0.859274705714126      -0.856469691008942      -0.853210543366638     
 -0.849381928232883      -0.844860973981103      -0.839764655353441     
 -0.834280691189070      -0.828815401108890      -0.823788006353202     
 -0.819496643118425      -0.816057233005663      -0.813443018604849     
 -0.811531673430508      -0.810174731185110      -0.809239441166694     
 -0.861900000000000      -0.861198250160462      -0.859274705714126     
 -0.856469691008942      -0.853210543366638      -0.849381928232883     
 -0.844860973981103      -0.839764655353441      -0.834280691189070     
 -0.828815401108890      -0.823788006353202      -0.819496643118425     
 -0.816057233005663      -0.813443018604849      -0.811531673430508     
 -0.810174731185110      -0.809239441166694      -0.861900000000000     
 -0.861198250160462      -0.859274705714126      -0.856469691008942     
 -0.853210543366638      -0.849381928232883      -0.844860973981103     
 -0.839764655353441      -0.834280691189070      -0.828815401108890     
 -0.823788006353202      -0.819496643118425      -0.816057233005663     
 -0.813443018604849      -0.811531673430508      -0.810174731185110     
 -0.809239441166694      -0.861900000000000      -0.861198250160462     
 -0.859274705714126      -0.856469691008942      -0.853210543366638     
 -0.849381928232883      -0.844860973981103      -0.839764655353441     
 -0.834280691189070      -0.828815401108890      -0.823788006353202     
 -0.819496643118425      -0.816057233005663      -0.813443018604849     
 -0.811531673430508      -0.810174731185110      -0.809239441166694     
 -0.861900000000000      -0.861198250160462      -0.859274705714126     
 -0.856469691008942      -0.853210543366638      -0.849381928232883     
 -0.844860973981103      -0.839764655353441      -0.834280691189070     
 -0.828815401108890      -0.823788006353202      -0.819496643118425     
 -0.816057233005663      -0.813443018604849      -0.811531673430508     
 -0.810174731185110      -0.809239441166694      -0.861900000000000     
 -0.861198250160462      -0.859274705714126      -0.856469691008942     
 -0.853210543366638      -0.849381928232883      -0.844860973981103     
 -0.839764655353441      -0.834280691189070      -0.828815401108890     
 -0.823788006353202      -0.819496643118425      -0.816057233005663     
 -0.813443018604849      -0.811531673430508      -0.810174731185110     
 -0.809239441166694     
 -0.444115931651419      -0.874553297420113       -1.18082413762641     
  -1.38045478720098       -1.55406188941322       -1.72505400547009     
  -1.88593517909142       -2.03529694211807       -2.15907520339617     
  -2.25193252050284       -2.31449099773007       -2.35215140987085     
  -2.36992401508518       -2.37612351553899       -2.37777111688703     
  -2.37961888497875      -0.601539865696193       -1.22185892558045     
  -1.71445450525484       -2.07663711785599       -2.38854248372925     
  -2.68224743663938       -2.95321201257438       -3.20071817472430     
  -3.40680986751481       -3.56502424230002       -3.67836333062165     
  -3.75706105221029       -3.81115594065269       -3.85156318145922     
  -3.88160463242389       -3.89926905860315      -0.726915048108454     
  -1.49004978446425       -2.12597650680458       -2.63268345594245     
  -3.08509137347908       -3.50868692490044       -3.89609533693840     
  -4.24594180907000       -4.53882474409840       -4.76872503566231     
  -4.94132701916057       -5.06952643171721       -5.16301376145776     
  -5.22947360954383       -5.27154615153655       -5.29203570696641     
 -0.846224181253286       -1.74153209976112       -2.50591665585489     
  -3.14394422015526       -3.73364873679382       -4.29428242064393     
  -4.81006701375068       -5.27458577437487       -5.66550093587493     
  -5.97624376483128       -6.21275272528513       -6.38708019712279     
  -6.50817503011201       -6.58663674431065       -6.63153727958983     
  -6.65166264242990      -0.968323298341826       -1.99691538700539     
  -2.88715282599865       -3.65069191746747       -4.37305979432680     
  -5.07158686284531       -5.72230298049152       -6.31052616217815     
  -6.80686118532177       -7.20067995354019       -7.49600672841577     
  -7.70566177415575       -7.84336697362159       -7.92721402324230     
  -7.97273307368501       -7.99236286086737       -1.09624481845078     
  -2.26324373999181       -3.28123388554644       -4.16819547315814     
  -5.01896144201633       -5.85126652193452       -6.63450003993994     
  -7.34515129657843       -7.94389398924832       -8.41396712677218     
  -8.75852144643994       -8.99487936880012       -9.14429527469361     
  -9.23214385510028       -9.27856190870276       -9.29819251272684     
  -1.22866433096306       -2.53806088654966       -3.68496349073523     
  -4.69244302200629       -5.66552816029362       -6.62307566859884     
  -7.52861935449298       -8.35080413717323       -9.04064160986773     
  -9.57623644228553       -9.96178624947813       -10.2204464105890     
  -10.3803968989113       -10.4727024571872       -10.5207857998172     
  -10.5409071171569       -1.36063306458461       -2.81128015650291     
  -4.08376497693970       -5.20474245886853       -6.29009045220283     
  -7.36015464208127       -8.37324254130970       -9.29193138376370     
  -10.0594555992034       -10.6506233945433       -11.0715033311326     
  -11.3504505247706       -11.5209647159966       -11.6184404558492     
  -11.6688460327207       -11.6898207844145       -1.48515794193120     
  -3.06859058676922       -4.45702561988231       -5.67908007740709     
  -6.86201215519486       -8.02824629779388       -9.13184435609003     
  -10.1313350322930       -10.9640521870643       -11.6026786907690     
  -12.0549293241377       -12.3530720824190       -12.5343981394619     
  -12.6376481009942       -12.6908741871277       -12.7129668641312     
  -1.59448161424609       -3.29407045911602       -4.78186316576996     
  -6.08679205549464       -7.34763608969528       -8.58965471170300     
  -9.76404567259483       -10.8273887959442       -11.7127752642825     
  -12.3913119229424       -12.8715319700893       -13.1880724794735     
  -13.3805597130859       -13.4902019425185       -13.5467379935508     
  -13.5702049515255       -1.68004148729449       -3.47000113758102     
  -5.03254812893464       -6.39517531527148       -7.70754356090440     
  -8.99844736368041       -10.2180419543870       -11.3234419523807     
  -12.2455406790083       -12.9543926422162       -13.4581983135086     
  -13.7920188555748       -13.9960572333302       -14.1128686707500     
  -14.1733503629528       -14.1985305354976       -1.73204921628963     
  -3.57594784172914       -5.17890368415594       -6.56484349594319     
  -7.89260590378325       -9.19498008470487       -10.4234018977899     
  -11.5388508692060       -12.4732439166746       -13.1968132132915     
  -13.7162256469255       -14.0644190875895       -14.2797256843433     
  -14.4043578425853       -14.4694860569233       -14.4967909657286     
  -1.74161963436855       -3.59322993397201       -5.19293683980169     
  -6.55841351123740       -7.85490197236828       -9.11924821499817     
  -10.3068176847887       -11.3867238393578       -12.2967164916445     
  -13.0098381863319       -13.5305276725799       -13.8865536814291     