 Title = "Wing and Wake"
 VARIABLES = "X" "Y" "Z" "GAM" "skew"
 Zone I=   17 J=   20 K=1  T="Blade 01"
 DATAPACKING=BLOCK
 VARLOCATION=([4]=CELLCENTERED,[5]=CELLCENTERED)
  0.221663389895092       0.222861282662185       0.225889066894671     
  0.230484261817820       0.237039467200977       0.245828848988306     
  0.256884640713113       0.269866539927609       0.283942905811921     
  0.298000997869067       0.310945604198469       0.322012577118236     
  0.330866919306386       0.337610064847957       0.342540315501287     
  0.346039303237062       0.348454094645648       0.227471095821217     
  0.228668988588314       0.231696772820796       0.236291967743945     
  0.242847173127101       0.251636554914434       0.262692346639238     
  0.275674245853733       0.289750611738048       0.303808703795195     
  0.316753310124594       0.327820283044360       0.336674625232514     
  0.343417770774083       0.348348021427411       0.351847009163190     
  0.354261800571774       0.235684515813592       0.236882408580687     
  0.239910192813171       0.244505387736320       0.251060593119476     
  0.259849974906808       0.270905766631613       0.283887665846108     
  0.297964031730423       0.312022123787569       0.324966730116968     
  0.336033703036737       0.344888045224889       0.351631190766458     
  0.356561441419788       0.360060429155562       0.362475220564150     
  0.247150746589875       0.248348639356971       0.251376423589457     
  0.255971618512603       0.262526823895760       0.271316205683094     
  0.282371997407897       0.295353896622393       0.309430262506708     
  0.323488354563851       0.336432960893252       0.347499933813019     
  0.356354276001173       0.363097421542744       0.368027672196070     
  0.371526659931847       0.373941451340433       0.262872225416435     
  0.264070118183533       0.267097902416016       0.271693097339164     
  0.278248302722320       0.287037684509653       0.298093476234458     
  0.311075375448951       0.325151741333265       0.339209833390411     
  0.352154439719810       0.363221412639579       0.372075754827731     
  0.378818900369303       0.383749151022631       0.387248138758406     
  0.389662930166993       0.283903846607673       0.285101739374768     
  0.288129523607254       0.292724718530400       0.299279923913555     
  0.308069305700888       0.319125097425695       0.332106996640190     
  0.346183362524503       0.360241454581651       0.373186060911048     
  0.384253033830818       0.393107376018969       0.399850521560538     
  0.404780772213870       0.408279759949645       0.410694551358229     
  0.311131152820973       0.312329045588062       0.315356829820551     
  0.319952024743700       0.326507230126852       0.335296611914189     
  0.346352403638990       0.359334302853485       0.373410668737800     
  0.387468760794945       0.400413367124345       0.411480340044113     
  0.420334682232266       0.427077827773838       0.432008078427164     
  0.435507066162941       0.437921857571528       0.344920598840941     
  0.346118491608038       0.349146275840521       0.353741470763668     
  0.360296676146823       0.369086057934159       0.380141849658961     
  0.393123748873456       0.407200114757770       0.421258206814917     
  0.434202813144316       0.445269786064086       0.454124128252240     
  0.460867273793807       0.465797524447135       0.469296512182911     
  0.471711303591499       0.384721419506450       0.385919312273546     
  0.388947096506029       0.393542291429176       0.400097496812333     
  0.408886878599667       0.419942670324472       0.432924569538967     
  0.447000935423277       0.461059027480426       0.474003633809826     
  0.485070606729593       0.493924948917748       0.500668094459315     
  0.505598345112645       0.509097332848422       0.511512124257003     
  0.428820063039286       0.430017955806383       0.433045740038867     
  0.437640934962011       0.444196140345171       0.452985522132502     
  0.464041313857307       0.477023213071803       0.491099578956116     
  0.505157671013263       0.518102277342660       0.529169250262427     
  0.538023592450577       0.544766737992154       0.549696988645481     
  0.553195976381258       0.555610767789841       0.474487341524721     
  0.475685234291815       0.478713018524301       0.483308213447449     
  0.489863418830606       0.498652800617935       0.509708592342741     
  0.522690491557235       0.536766857441552       0.550824949498697     
  0.563769555828101       0.574836528747866       0.583690870936014     
  0.590434016477587       0.595364267130916       0.598863254866692     
  0.601278046275277       0.518585985057558       0.519783877824656     
  0.522811662057140       0.527406856980284       0.533962062363441     
  0.542751444150775       0.553807235875579       0.566789135090075     
  0.580865500974387       0.594923593031536       0.607868199360933     
  0.618935172280700       0.627789514468850       0.634532660010423     
  0.639462910663751       0.642961898399528       0.645376689808115     
  0.558386805723067       0.559584698490163       0.562612482722646     
  0.567207677645788       0.573762883028948       0.582552264816283     
  0.593608056541087       0.606589955755582       0.620666321639894     
  0.634724413697042       0.647669020026443       0.658735992946210     
  0.667590335134362       0.674333480675932       0.679263731329259     
  0.682762719065038       0.685177510473624       0.592176251743036     
  0.593374144510129       0.596401928742618       0.600997123665762     
  0.607552329048922       0.616341710836254       0.627397502561057     
  0.640379401775554       0.654455767659867       0.668513859717009     
  0.681458466046411       0.692525438966179       0.701379781154332     
  0.708122926695907       0.713053177349229       0.716552165085006     
  0.718966956493591       0.619403557956336       0.620601450723431     
  0.623629234955916       0.628224429879063       0.634779635262218     
  0.643569017049551       0.654624808774353       0.667606707988850     
  0.681683073873164       0.695741165930304       0.708685772259709     
  0.719752745179475       0.728607087367634       0.735350232909203     
  0.740280483562527       0.743779471298304       0.746194262706891     
  0.640435179147573       0.641633071914668       0.644660856147153     
  0.649256051070299       0.655811256453451       0.664600638240786     
  0.675656429965594       0.688638329180088       0.702714695064401     
  0.716772787121545       0.729717393450945       0.740784366370717     
  0.749638708558869       0.756381854100434       0.761312104753768     
  0.764811092489545       0.767225883898131       0.656156657974132     
  0.657354550741229       0.660382334973711       0.664977529896856     
  0.671532735280017       0.680322117067350       0.691377908792152     
  0.704359808006648       0.718436173890958       0.732494265948101     
  0.745438872277509       0.756505845197273       0.765360187385423     
  0.772103332926997       0.777033583580325       0.780532571316102     
  0.782947362724689       0.667622888750413       0.668820781517512     
  0.671848565749997       0.676443760673143       0.682998966056297     
  0.691788347843634       0.702844139568434       0.715826038782931     
  0.729902404667237       0.743960496724389       0.756905103053791     
  0.767972075973557       0.776826418161711       0.783569563703272     
  0.788499814356609       0.791998802092381       0.794413593500970     
  0.675836308742792       0.677034201509891       0.680061985742372     
  0.684657180665511       0.691212386048674       0.700001767836008     
  0.711057559560812       0.724039458775311       0.738115824659616     
  0.752173916716764       0.765118523046164       0.776185495965932     
  0.785039838154089       0.791782983695656       0.796713234348981     
  0.800212222084759       0.802627013493349       0.681644014668920     
  0.682841907436008       0.685869691668494       0.690464886591640     
  0.697020091974798       0.705809473762131       0.716865265486931     
  0.729847164701425       0.743923530585748       0.757981622642890     
  0.770926228972292       0.781993201892063       0.790847544080208     
  0.797590689621782       0.802520940275101       0.806019928010883     
  0.808434719419472     
  0.374115123339686       0.373013637011470       0.370229528927272     
  0.366004155402722       0.359976513107403       0.351894500978974     
  0.341728479639676       0.329791363988061       0.316847864370692     
  0.303921167902441       0.292018343803626       0.281842041132206     
  0.273700296617585       0.267499839592351       0.262966375630889     
  0.259748986512747       0.257528537575152       0.380431142652959     
  0.379329656324744       0.376545548240547       0.372320174715996     
  0.366292532420677       0.358210520292247       0.348044498952951     
  0.336107383301334       0.323163883683966       0.310237187215714     
  0.298334363116900       0.288158060445478       0.280016315930860     
  0.273815858905625       0.269282394944163       0.266065005826021     
  0.263844556888424       0.389363433640096       0.388261947311878     
  0.385477839227681       0.381252465703132       0.375224823407812     
  0.367142811279384       0.356976789940084       0.345039674288471     
  0.332096174671104       0.319169478202852       0.307266654104034     
  0.297090351432615       0.288948606917996       0.282748149892761     
  0.278214685931299       0.274997296813156       0.272776847875561     
  0.401833234273023       0.400731747944808       0.397947639860612     
  0.393722266336061       0.387694624040741       0.379612611912312     
  0.369446590573015       0.357509474921398       0.344565975304030     
  0.331639278835780       0.319736454736962       0.309560152065544     
  0.301418407550926       0.295217950525691       0.290684486564227     
  0.287467097446085       0.285246648508488       0.418930719091443     
  0.417829232763226       0.415045124679029       0.410819751154478     
  0.404792108859161       0.396710096730731       0.386544075391434     
  0.374606959739818       0.361663460122449       0.348736763654197     
  0.336833939555381       0.326657636883962       0.318515892369343     
  0.312315435344109       0.307781971382646       0.304564582264504     
  0.302344133326907       0.441803110931353       0.440701624603137     
  0.437917516518938       0.433692142994387       0.427664500699069     
  0.419582488570639       0.409416467231341       0.397479351579727     
  0.384535851962358       0.371609155494107       0.359706331395290     
  0.349530028723874       0.341388284209251       0.335187827184018     
  0.330654363222557       0.327436974104412       0.325216525166817     
  0.471413458645071       0.470311972316853       0.467527864232657     
  0.463302490708108       0.457274848412786       0.449192836284357     
  0.439026814945060       0.427089699293446       0.414146199676076     
  0.401219503207825       0.389316679109008       0.379140376437589     
  0.370998631922969       0.364798174897736       0.360264710936273     
  0.357047321818131       0.354826872880534       0.508160290588975     
  0.507058804260759       0.504274696176563       0.500049322652009     
  0.494021680356689       0.485939668228263       0.475773646888962     
  0.463836531237352       0.450893031619979       0.437966335151728     
  0.426063511052913       0.415887208381494       0.407745463866874     
  0.401545006841639       0.397011542880177       0.393794153762037     
  0.391573704824439       0.551444636457221       0.550343150129006     
  0.547559042044806       0.543333668520257       0.537306026224939     
  0.529224014096509       0.519057992757212       0.507120877105600     
  0.494177377488227       0.481250681019977       0.469347856921162     
  0.459171554249742       0.451029809735122       0.444829352709885     
  0.440295888748426       0.437078499630283       0.434858050692686     
  0.599402967644348       0.598301481316131       0.595517373231935     
  0.591291999707379       0.585264357412066       0.577182345283636     
  0.567016323944335       0.555079208292719       0.542135708675353     
  0.529209012207102       0.517306188108286       0.507129885436865     
  0.498988140922246       0.492787683897014       0.488254219935550     
  0.485036830817409       0.482816381879813       0.649067226917729     
  0.647965740589512       0.645181632505315       0.640956258980763     
  0.634928616685448       0.626846604557014       0.616680583217721     
  0.604743467566100       0.591799967948735       0.578873271480483     
  0.566970447381668       0.556794144710248       0.548652400195627     
  0.542451943170394       0.537918479208931       0.534701090090790     
  0.532480641153191       0.697025558104855       0.695924071776638     
  0.693139963692441       0.688914590167888       0.682886947872568     
  0.674804935744139       0.664638914404845       0.652701798753228     
  0.639758299135862       0.626831602667609       0.614928778568793     
  0.604752475897374       0.596610731382753       0.590410274357516     
  0.585876810396053       0.582659421277913       0.580438972340319     
  0.740309903973101       0.739208417644886       0.736424309560687     
  0.732198936036134       0.726171293740819       0.718089281612390     
  0.707923260273094       0.695986144621476       0.683042645004106     
  0.670115948535858       0.658213124437041       0.648036821765623     
  0.639895077251002       0.633694620225767       0.629161156264306     
  0.625943767146159       0.623723318208569       0.777056735917006     
  0.775955249588788       0.773171141504593       0.768945767980041     
  0.762918125684725       0.754836113556293       0.744670092216994     
  0.732732976565380       0.719789476948013       0.706862780479757     
  0.694959956380943       0.684783653709524       0.676641909194907     
  0.670441452169673       0.665907988208209       0.662690599090064     
  0.660470150152467       0.806667083630725       0.805565597302510     
  0.802781489218312       0.798556115693763       0.792528473398441     
  0.784446461270014       0.774280439930714       0.762343324279098     
  0.749399824661732       0.736473128193477       0.724570304094663     
  0.714394001423242       0.706252256908627       0.700051799883391     
  0.695518335921927       0.692300946803784       0.690080497866187     
  0.829539475470634       0.828437989142420       0.825653881058218     
  0.821428507533666       0.815400865238350       0.807318853109919     
  0.797152831770625       0.785215716119009       0.772272216501636     
  0.759345520033383       0.747442695934570       0.737266393263156     
  0.729124648748535       0.722924191723294       0.718390727761839     
  0.715173338643694       0.712952889706102       0.846636960289053     
  0.845535473960839       0.842751365876639       0.838525992352088     
  0.832498350056771       0.824416337928342       0.814250316589041     
  0.802313200937430       0.789369701320054       0.776443004851801     
  0.764540180752996       0.754363878081574       0.746222133566950     
  0.740021676541716       0.735488212580256       0.732270823462112     
  0.730050374524515       0.859106760921979       0.858005274593766     
  0.855221166509574       0.850995792985018       0.844968150689698     
  0.836886138561268       0.826720117221970       0.814783001570356     
  0.801839501952986       0.788912805484735       0.777009981385918     
  0.766833678714494       0.758691934199881       0.752491477174644     
  0.747958013213182       0.744740624095040       0.742520175157442     
  0.868039051909117       0.866937565580901       0.864153457496707     
  0.859928083972143       0.853900441676835       0.845818429548402     
  0.835652408209109       0.823715292557493       0.810771792940123     
  0.797845096471866       0.785942272373051       0.775765969701635     
  0.767624225187019       0.761423768161781       0.756890304200319     
  0.753672915082179       0.751452466144580       0.874355071222392     
  0.873253584894170       0.870469476809978       0.866244103285423     
  0.860216460990102       0.852134448861680       0.841968427522376     
  0.830031311870760       0.817087812253399       0.804161115785141     
  0.792258291686330       0.782081989014914       0.773940244500285     
  0.767739787475055       0.763206323513591       0.759988934395453     
  0.757768485457853     
 -0.861900000000000      -0.861198250160462      -0.859274705714126     
 -0.856469691008942      -0.853210543366638      -0.849381928232883     
 -0.844860973981103      -0.839764655353441      -0.834280691189070     
 -0.828815401108890      -0.823788006353202      -0.819496643118425     
 -0.816057233005663      -0.813443018604849      -0.811531673430508     
 -0.810174731185110      -0.809239441166694      -0.861900000000000     
 -0.861198250160462      -0.859274705714126      -0.856469691008942     
 -0.853210543366638      -0.849381928232883      -0.844860973981103     
 -0.839764655353441      -0.834280691189070      -0.828815401108890     
 -0.823788006353202      -0.819496643118425      -0.816057233005663     
 -0.813443018604849      -0.811531673430508      -0.810174731185110     
 -0.809239441166694      -0.861900000000000      -0.861198250160462     
 -0.859274705714126      -0.856469691008942      -0.853210543366638     
 -0.849381928232883      -0.844860973981103      -0.839764655353441     
 -0.834280691189070      -0.828815401108890      -0.823788006353202     
 -0.819496643118425      -0.816057233005663      -0.813443018604849     
 -0.811531673430508      -0.810174731185110      -0.809239441166694     
 -0.861900000000000      -0.861198250160462      -0.859274705714126     
 -0.856469691008942      -0.853210543366638      -0.849381928232883     
 -0.844860973981103      -0.839764655353441      -0.834280691189070     
 -0.828815401108890      -0.823788006353202      -0.819496643118425     
 -0.816057233005663      -0.813443018604849      -0.811531673430508     
 -0.810174731185110      -0.809239441166694      -0.861900000000000     
 -0.861198250160462      -0.859274705714126      -0.856469691008942     
 -0.853210543366638      -0.849381928232883      -0.844860973981103     
 -0.839764655353441      -0.834280691189070      -0.828815401108890     
 -0.823788006353202      -0.819496643118425      -0.816057233005663     
 -0.813443018604849      -0.811531673430508      -0.810174731185110     
 -0.809239441166694      -0.861900000000000      -0.861198250160462     
 -0.859274705714126      -0.856469691008942      -0.853210543366638     
 -0.849381928232883      -0.844860973981103      -0.839764655353441     
 -0.834280691189070      -0.828815401108890      -0.823788006353202     
 -0.819496643118425      -0.816057233005663      -0.813443018604849     
 -0.811531673430508      -0.810174731185110      -0.809239441166694     
 -0.861900000000000      -0.861198250160462      -0.859274705714126     
 -0.856469691008942      -0.853210543366638      -0.849381928232883     
 -0.844860973981103      -0.839764655353441      -0.834280691189070     
 -0.828815401108890      -0.823788006353202      -0.819496643118425     
 -0.816057233005663      -0.813443018604849      -0.811531673430508     
 -0.810174731185110      -0.809239441166694      -0.861900000000000     
 -0.861198250160462      -0.859274705714126      -0.856469691008942     
 -0.853210543366638      -0.849381928232883      -0.844860973981103     
 -0.839764655353441      -0.834280691189070      -0.828815401108890     
 -0.823788006353202      -0.819496643118425      -0.816057233005663     
 -0.813443018604849      -0.811531673430508      -0.810174731185110     
 -0.809239441166694      -0.861900000000000      -0.861198250160462     
 -0.859274705714126      -0.856469691008942      -0.853210543366638     
 -0.849381928232883      -0.844860973981103      -0.839764655353441     
 -0.834280691189070      -0.828815401108890      -0.823788006353202     
 -0.819496643118425      -0.816057233005663      -0.813443018604849     
 -0.811531673430508      -0.810174731185110      -0.809239441166694     
 -0.861900000000000      -0.861198250160462      -0.859274705714126     
 -0.856469691008942      -0.853210543366638      -0.849381928232883     
 -0.844860973981103      -0.839764655353441      -0.834280691189070     
 -0.828815401108890      -0.823788006353202      -0.819496643118425     
 -0.816057233005663      -0.813443018604849      -0.811531673430508     
 -0.810174731185110      -0.809239441166694      -0.861900000000000     
 -0.861198250160462      -0.859274705714126      -0.856469691008942     
 -0.853210543366638      -0.849381928232883      -0.844860973981103     
 -0.839764655353441      -0.834280691189070      -0.828815401108890     
 -0.823788006353202      -0.819496643118425      -0.816057233005663     
 -0.813443018604849      -0.811531673430508      -0.810174731185110     
 -0.809239441166694      -0.861900000000000      -0.861198250160462     
 -0.859274705714126      -0.856469691008942      -0.853210543366638     
 -0.849381928232883      -0.844860973981103      -0.839764655353441     
 -0.834280691189070      -0.828815401108890      -0.823788006353202     
 -0.819496643118425      -0.816057233005663      -0.813443018604849     
 -0.811531673430508      -0.810174731185110      -0.809239441166694     
 -0.861900000000000      -0.861198250160462      -0.859274705714126     
 -0.856469691008942      -0.853210543366638      -0.849381928232883     
 -0.844860973981103      -0.839764655353441      -0.834280691189070     
 -0.828815401108890      -0.823788006353202      -0.819496643118425     
 -0.816057233005663      -0.813443018604849      -0.811531673430508     
 -0.810174731185110      -0.809239441166694      -0.861900000000000     
 -0.861198250160462      -0.859274705714126      -0.856469691008942     
 -0.853210543366638      -0.849381928232883      -0.844860973981103     
 -0.839764655353441      -0.834280691189070      -0.828815401108890     
 -0.823788006353202      -0.819496643118425      -0.816057233005663     
 -0.813443018604849      -0.811531673430508      -0.810174731185110     
 -0.809239441166694      -0.861900000000000      -0.861198250160462     
 -0.859274705714126      -0.856469691008942      -0.853210543366638     
 -0.849381928232883      -0.844860973981103      -0.839764655353441     
 -0.834280691189070      -0.828815401108890      -0.823788006353202     
 -0.819496643118425      -0.816057233005663      -0.813443018604849     
 -0.811531673430508      -0.810174731185110      -0.809239441166694     
 -0.861900000000000      -0.861198250160462      -0.859274705714126     
 -0.856469691008942      -0.853210543366638      -0.849381928232883     
 -0.844860973981103      -0.839764655353441      -0.834280691189070     
 -0.828815401108890      -0.823788006353202      -0.819496643118425     
 -0.816057233005663      -0.813443018604849      -0.811531673430508     
 -0.810174731185110      -0.809239441166694      -0.861900000000000     
 -0.861198250160462      -0.859274705714126      -0.856469691008942     
 -0.853210543366638      -0.849381928232883      -0.844860973981103     
 -0.839764655353441      -0.834280691189070      -0.828815401108890     
 -0.823788006353202      -0.819496643118425      -0.816057233005663     
 -0.813443018604849      -0.811531673430508      -0.810174731185110     
 -0.809239441166694      -0.861900000000000      -0.861198250160462     
 -0.859274705714126      -0.856469691008942      -0.853210543366638     
 -0.849381928232883      -0.844860973981103      -0.839764655353441     
 -0.834280691189070      -0.828815401108890      -0.823788006353202     
 -0.819496643118425      -0.816057233005663      -0.813443018604849     
 -0.811531673430508      -0.810174731185110      -0.809239441166694     
 -0.861900000000000      -0.861198250160462      -0.859274705714126     
 -0.856469691008942      -0.853210543366638      -0.849381928232883     
 -0.844860973981103      -0.839764655353441      -0.834280691189070     
 -0.828815401108890      -0.823788006353202      -0.819496643118425     
 -0.816057233005663      -0.813443018604849      -0.811531673430508     
 -0.810174731185110      -0.809239441166694      -0.861900000000000     
 -0.861198250160462      -0.859274705714126      -0.856469691008942     
 -0.853210543366638      -0.849381928232883      -0.844860973981103     
 -0.839764655353441      -0.834280691189070      -0.828815401108890     
 -0.823788006353202      -0.819496643118425      -0.816057233005663     
 -0.813443018604849      -0.811531673430508      -0.810174731185110     
 -0.809239441166694     
 -0.427979523266784      -0.843409007435319       -1.13850845530583     
  -1.32902895166545       -1.49514013100956       -1.66009558472304     
  -1.81625924978316       -1.96208401227572       -2.08319380618396     
  -2.17396434053748       -2.23483813201342       -2.27116584509088     
  -2.28793971342949       -2.29344985982003       -2.29461821086096     
  -2.29611972928910      -0.580688181154767       -1.18006505172748     
  -1.65536452000709       -2.00275727644272       -2.30229722830516     
  -2.58604424044013       -2.84927352602845       -3.09098381554938     
  -3.29267951795408       -3.44738364817725       -3.55775014448115     
  -3.63386461666008       -3.68569537185011       -3.72417197251141     
  -3.75271149491897       -3.76946751886540      -0.703361416628506     
  -1.44226416208454       -2.05725783424502       -2.54521780277270     
  -2.98133106056177       -3.39151283015028       -3.76842203224086     
  -4.11036646594427       -4.39721754215908       -4.62222231088481     
  -4.79056291905924       -4.91495929263942       -5.00514810494109     
  -5.06901029223942       -5.10931947940380       -5.12887979295904     
 -0.821425333993917       -1.69094505703235       -2.43257651815711     
  -3.04966172331527       -3.62055831325053       -4.16525490930717     
  -4.66834102019911       -5.12321959971240       -5.50676088145855     
  -5.81153175883223       -6.04291637667208       -6.21286077025538     
  -6.33043465399709       -6.40636630160850       -6.44968294520568     
  -6.46901969837838      -0.943927600554037       -1.94702845860864     
  -2.81455851167153       -3.55691859031297       -4.25992596722087     
  -4.94174508336597       -5.57898983035403       -6.15699128321674     
  -6.64564172770916       -7.03345171279485       -7.32388921027980     
  -7.52962995628925       -7.66438803853377       -7.74622244437557     
  -7.79052654292014       -7.80956453462345       -1.07443971159402     
  -2.21864700393458       -3.21632153149203       -4.08432656170604     
  -4.91779153961453       -5.73527773928017       -6.50681213394899     
  -7.20898993920364       -7.80184602739400       -8.26774922014890     
  -8.60919359547821       -8.84319225611121       -8.99086319830817     
  -9.07752121852755       -9.12322185132654       -9.14249986554248     
  -1.21243568199209       -2.50498587515330       -3.63708105789117     
  -4.63105051925424       -5.59232196259144       -6.54052637666791     
  -7.43974028039059       -8.25859932017157       -8.94734670244952     
  -9.48303022283303       -9.86898606950484       -10.1279318860996     
  -10.2879526049119       -10.3802077102448       -10.4282188011770     
  -10.4482809704129       -1.35376913276055       -2.79760494904482     
  -4.06466926467986       -5.18153408070578       -6.26467804132465     
  -7.33511294535268       -8.35142855014039       -9.27582449692217     
  -10.0503771710668       -10.6484713508923       -11.0750859915548     
  -11.3581311322648       -11.5312351462490       -11.6301928132935     
  -11.6813636820971       -11.7026488681766       -1.49158187156542     
  -3.08244550963694       -4.47878740769957       -5.71006940396716     
  -6.90441157532205       -8.08470929839118       -9.20488252311474     
  -10.2225112704465       -11.0732172064949       -11.7278173149037     
  -12.1927414342775       -12.4999018057346       -12.6870525009426     
  -12.7937357101008       -12.8487796782310       -12.8716421407976     
  -1.61658620308202       -3.34038484310869       -4.85173641496055     
  -6.18148432827252       -7.46951859909412       -8.74129048754753     
  -9.94734213090352       -11.0426763708307       -11.9581277998632     
  -12.6625491286685       -13.1630542316207       -13.4940470434372     
  -13.6959613264581       -13.8112191969981       -13.8707503234112     
  -13.8955011389874       -1.71665101863571       -3.54630084818987     
  -5.14677692089559       -6.54843306312941       -7.90220391876514     
  -9.23677197755674       -10.5011679500580       -11.6504269293730     
  -12.6128205462145       -13.3559254569276       -13.8864704951372     
  -14.2393939283844       -14.4559744275164       -14.5803046289633     
  -14.6448133000282       -14.6717315429726       -1.77810543234433     
  -3.67173602339822       -5.32186850094751       -6.75586953058903     
  -8.13389363058039       -9.48837284116679       -10.7693119486282     
  -11.9353586631379       -12.9157111286260       -13.6781155843256     
  -14.2278011211235       -14.5976540851857       -14.8272244840691     
  -14.9604334643077       -15.0301653960976       -15.0594674018227     
  -1.79069040703722       -3.69518595750200       -5.34487198665751     
  -6.76098767703615       -8.11002193839165       -9.42831094691907     
  -10.6696702352906       -11.8008968159520       -12.7572009701384     
  -13.5093599681221       -14.0604958909041       -14.4383329154887     