 Title = "Wing and Wake"
 VARIABLES = "X" "Y" "Z" "GAM"
 Zone I=   26 J=   25 K=1  T="Blade"
 DATAPACKING=BLOCK
 VARLOCATION=([4]=CELLCENTERED)
  7.400437600835827E-002  7.236480342662092E-002  7.072523084488357E-002
  6.908565826314618E-002  6.744608568140888E-002  6.580651309967155E-002
  6.416694051793420E-002  6.252736793619681E-002  6.088779535445948E-002
  5.924822277272213E-002  5.760865019098482E-002  5.596907760924746E-002
  5.432950502751014E-002  5.268993244577280E-002  5.105035986403545E-002
  4.941078728229809E-002  4.777121470056074E-002  4.613164211882341E-002
  4.449206953708606E-002  4.285249695534871E-002  4.121292437361136E-002
  3.957335179187402E-002  3.793377921013669E-002  3.629420662839931E-002
  3.465463404666196E-002  3.301506146492462E-002  7.447393681114209E-002
  7.283436422940474E-002  7.119479164766740E-002  6.955521906593004E-002
  6.791564648419274E-002  6.627607390245538E-002  6.463650132071799E-002
  6.299692873898068E-002  6.135735615724335E-002  5.971778357550600E-002
  5.807821099376867E-002  5.643863841203127E-002  5.479906583029395E-002
  5.315949324855661E-002  5.151992066681927E-002  4.988034808508193E-002
  4.824077550334457E-002  4.660120292160724E-002  4.496163033986990E-002
  4.332205775813255E-002  4.168248517639518E-002  4.004291259465788E-002
  3.840334001292049E-002  3.676376743118316E-002  3.512419484944582E-002
  3.348462226770847E-002  7.587458490397107E-002  7.423501232223376E-002
  7.259543974049634E-002  7.095586715875905E-002  6.931629457702169E-002
  6.767672199528435E-002  6.603714941354702E-002  6.439757683180963E-002
  6.275800425007233E-002  6.111843166833499E-002  5.947885908659763E-002
  5.783928650486030E-002  5.619971392312297E-002  5.456014134138561E-002
  5.292056875964826E-002  5.128099617791093E-002  4.964142359617356E-002
  4.800185101443621E-002  4.636227843269888E-002  4.472270585096153E-002
  4.308313326922419E-002  4.144356068748688E-002  3.980398810574950E-002
  3.816441552401214E-002  3.652484294227480E-002  3.488527036053746E-002
  7.818235480964397E-002  7.654278222790660E-002  7.490320964616927E-002
  7.326363706443194E-002  7.162406448269458E-002  6.998449190095724E-002
  6.834491931921989E-002  6.670534673748255E-002  6.506577415574519E-002
  6.342620157400784E-002  6.178662899227054E-002  6.014705641053317E-002
  5.850748382879579E-002  5.686791124705847E-002  5.522833866532112E-002
  5.358876608358379E-002  5.194919350184641E-002  5.030962092010904E-002
  4.867004833837175E-002  4.703047575663440E-002  4.539090317489703E-002
  4.375133059315970E-002  4.211175801142237E-002  4.047218542968503E-002
  3.883261284794766E-002  3.719304026621036E-002  8.135775994523987E-002
  7.971818736350257E-002  7.807861478176521E-002  7.643904220002787E-002
  7.479946961829051E-002  7.315989703655314E-002  7.152032445481590E-002
  6.988075187307849E-002  6.824117929134116E-002  6.660160670960386E-002
  6.496203412786647E-002  6.332246154612911E-002  6.168288896439176E-002
  6.004331638265441E-002  5.840374380091711E-002  5.676417121917972E-002
  5.512459863744239E-002  5.348502605570506E-002  5.184545347396771E-002
  5.020588089223037E-002  4.856630831049299E-002  4.692673572875568E-002
  4.528716314701834E-002  4.364759056528100E-002  4.200801798354365E-002
  4.036844540180629E-002  8.534646824850027E-002  8.370689566676294E-002
  8.206732308502562E-002  8.042775050328825E-002  7.878817792155086E-002
  7.714860533981351E-002  7.550903275807617E-002  7.386946017633883E-002
  7.222988759460151E-002  7.059031501286418E-002  6.895074243112685E-002
  6.731116984938947E-002  6.567159726765216E-002  6.403202468591476E-002
  6.239245210417745E-002  6.075287952244015E-002  5.911330694070278E-002
  5.747373435896543E-002  5.583416177722808E-002  5.419458919549074E-002
  5.255501661375340E-002  5.091544403201603E-002  4.927587145027863E-002
  4.763629886854134E-002  4.599672628680399E-002  4.435715370506663E-002
  9.008023181447744E-002  8.844065923274008E-002  8.680108665100271E-002
  8.516151406926541E-002  8.352194148752806E-002  8.188236890579065E-002
  8.024279632405334E-002  7.860322374231596E-002  7.696365116057864E-002
  7.532407857884132E-002  7.368450599710394E-002  7.204493341536664E-002
  7.040536083362929E-002  6.876578825189190E-002  6.712621567015460E-002
  6.548664308841727E-002  6.384707050667990E-002  6.220749792494255E-002
  6.056792534320526E-002  5.892835276146787E-002  5.728878017973048E-002
  5.564920759799315E-002  5.400963501625576E-002  5.237006243451849E-002
  5.073048985278114E-002  4.909091727104382E-002  9.547805463611028E-002
  9.383848205437292E-002  9.219890947263557E-002  9.055933689089821E-002
  8.891976430916088E-002  8.728019172742355E-002  8.564061914568624E-002
  8.400104656394884E-002  8.236147398221144E-002  8.072190140047417E-002
  7.908232881873679E-002  7.744275623699944E-002  7.580318365526209E-002
  7.416361107352476E-002  7.252403849178746E-002  7.088446591005006E-002
  6.924489332831273E-002  6.760532074657531E-002  6.596574816483818E-002
  6.432617558310071E-002  6.268660300136336E-002  6.104703041962607E-002
  5.940745783788869E-002  5.776788525615134E-002  5.612831267441400E-002
  5.448874009267666E-002  0.101447578468361       9.980800588662410E-002
  9.816843330488680E-002  9.652886072314941E-002  9.488928814141204E-002
  9.324971555967473E-002  9.161014297793733E-002  8.997057039620003E-002
  8.833099781446264E-002  8.669142523272534E-002  8.505185265098796E-002
  8.341228006925065E-002  8.177270748751328E-002  8.013313490577602E-002
  7.849356232403860E-002  7.685398974230125E-002  7.521441716056396E-002
  7.357484457882663E-002  7.193527199708924E-002  7.029569941535184E-002
  6.865612683361451E-002  6.701655425187715E-002  6.537698167013983E-002
  6.373740908840246E-002  6.209783650666515E-002  6.045826392492780E-002
  0.107886663103396       0.106247090521659       0.104607517939922     
  0.102967945358184       0.101328372776447       9.968880019470973E-002
  9.804922761297238E-002  9.640965503123500E-002  9.477008244949761E-002
  9.313050986776025E-002  9.149093728602299E-002  8.985136470428561E-002
  8.821179212254827E-002  8.657221954081093E-002  8.493264695907357E-002
  8.329307437733625E-002  8.165350179559895E-002  8.001392921386154E-002
  7.837435663212428E-002  7.673478405038690E-002  7.509521146864950E-002
  7.345563888691214E-002  7.181606630517479E-002  7.017649372343751E-002
  6.853692114170008E-002  6.689734855996284E-002  0.114685134017858     
  0.113045561436121       0.111405988854384       0.109766416272646     
  0.108126843690909       0.106487271109172       0.104847698527434     
  0.103208125945697       0.101568553363959       9.992898078222212E-002
  9.828940820048479E-002  9.664983561874749E-002  9.501026303701009E-002
  9.337069045527276E-002  9.173111787353549E-002  9.009154529179807E-002
  8.845197271006071E-002  8.681240012832336E-002  8.517282754658605E-002
  8.353325496484874E-002  8.189368238311133E-002  8.025410980137401E-002
  7.861453721963665E-002  7.697496463789935E-002  7.533539205616192E-002
  7.369581947442466E-002  0.121726667489508       0.120087094907771     
  0.118447522326034       0.116807949744296       0.115168377162559     
  0.113528804580822       0.111889231999084       0.110249659417347     
  0.108610086835609       0.106970514253872       0.105330941672135     
  0.103691369090397       0.102051796508660       0.100412223926923     
  9.877265134518540E-002  9.713307876344801E-002  9.549350618171076E-002
  9.385393359997334E-002  9.221436101823603E-002  9.057478843649872E-002
  8.893521585476136E-002  8.729564327302397E-002  8.565607069128674E-002
  8.401649810954936E-002  8.237692552781198E-002  8.073735294607463E-002
  0.128890780928365       0.127251208346627       0.125611635764890     
  0.123972063183153       0.122332490601415       0.120692918019678     
  0.119053345437941       0.117413772856203       0.115774200274466     
  0.114134627692728       0.112495055110991       0.110855482529254     
  0.109215909947516       0.107576337365779       0.105936764784042     
  0.104297192202304       0.102657619620567       0.101018047038830     
  9.937847445709241E-002  9.773890187535497E-002  9.609932929361766E-002
  9.445975671188035E-002  9.282018413014304E-002  9.118061154840562E-002
  8.954103896666829E-002  8.790146638493100E-002  0.136054894367221     
  0.134415321785484       0.132775749203746       0.131136176622009     
  0.129496604040272       0.127857031458534       0.126217458876797     
  0.124577886295059       0.122938313713322       0.121298741131585     
  0.119659168549847       0.118019595968110       0.116380023386373     
  0.114740450804635       0.113100878222898       0.111461305641161     
  0.109821733059423       0.108182160477686       0.106542587895949     
  0.104903015314211       0.103263442732474       0.101623870150737     
  9.998429756899933E-002  9.834472498726202E-002  9.670515240552460E-002
  9.506557982378726E-002  0.143096427838871       0.141456855257134     
  0.139817282675396       0.138177710093659       0.136538137511922     
  0.134898564930184       0.133258992348447       0.131619419766710     
  0.129979847184972       0.128340274603235       0.126700702021498     
  0.125061129439760       0.123421556858023       0.121781984276285     
  0.120142411694548       0.118502839112811       0.116863266531073     
  0.115223693949336       0.113584121367599       0.111944548785861     
  0.110304976204124       0.108665403622387       0.107025831040649     
  0.105386258458912       0.103746685877175       0.102107113295437     
  0.149894898753333       0.148255326171595       0.146615753589858     
  0.144976181008121       0.143336608426383       0.141697035844646     
  0.140057463262909       0.138417890681171       0.136778318099434     
  0.135138745517697       0.133499172935959       0.131859600354222     
  0.130220027772485       0.128580455190747       0.126940882609010     
  0.125301310027272       0.123661737445535       0.122022164863798     
  0.120382592282061       0.118743019700323       0.117103447118586     
  0.115463874536848       0.113824301955111       0.112184729373374     
  0.110545156791637       0.108905584209899       0.156333983388368     
  0.154694410806630       0.153054838224893       0.151415265643156     
  0.149775693061418       0.148136120479681       0.146496547897944     
  0.144856975316206       0.143217402734469       0.141577830152732     
  0.139938257570994       0.138298684989257       0.136659112407520     
  0.135019539825782       0.133379967244045       0.131740394662308     
  0.130100822080570       0.128461249498833       0.126821676917096     
  0.125182104335358       0.123542531753621       0.121902959171883     
  0.120263386590146       0.118623814008409       0.116984241426672     
  0.115344668844934       0.162303507220619       0.160663934638882     
  0.159024362057144       0.157384789475407       0.155745216893670     
  0.154105644311932       0.152466071730195       0.150826499148458     
  0.149186926566720       0.147547353984983       0.145907781403245     
  0.144268208821508       0.142628636239771       0.140989063658033     
  0.139349491076296       0.137709918494559       0.136070345912821     
  0.134430773331084       0.132791200749347       0.131151628167609     
  0.129512055585872       0.127872483004135       0.126232910422397     
  0.124593337840660       0.122953765258923       0.121314192677185     
  0.167701330042252       0.166061757460515       0.164422184878777     
  0.162782612297040       0.161143039715302       0.159503467133565     
  0.157863894551828       0.156224321970090       0.154584749388353     
  0.152945176806616       0.151305604224878       0.149666031643141     
  0.148026459061404       0.146386886479666       0.144747313897929     
  0.143107741316192       0.141468168734454       0.139828596152717     
  0.138189023570980       0.136549450989242       0.134909878407505     
  0.133270305825767       0.131630733244030       0.129991160662293     
  0.128351588080555       0.126712015498818       0.172435093608229     
  0.170795521026492       0.169155948444754       0.167516375863017     
  0.165876803281280       0.164237230699542       0.162597658117805     
  0.160958085536067       0.159318512954330       0.157678940372593     
  0.156039367790855       0.154399795209118       0.152760222627381     
  0.151120650045643       0.149481077463906       0.147841504882169     
  0.146201932300431       0.144562359718694       0.142922787136957     
  0.141283214555219       0.139643641973482       0.138004069391745     
  0.136364496810007       0.134724924228270       0.133085351646533     
  0.131445779064795       0.176423801911489       0.174784229329752     
  0.173144656748015       0.171505084166277       0.169865511584540     
  0.168225939002803       0.166586366421065       0.164946793839328     
  0.163307221257590       0.161667648675853       0.160028076094116     
  0.158388503512379       0.156748930930641       0.155109358348904     
  0.153469785767166       0.151830213185429       0.150190640603692     
  0.148551068021955       0.146911495440217       0.145271922858480     
  0.143632350276742       0.141992777695005       0.140353205113268     
  0.138713632531530       0.137074059949793       0.135434487368056     
  0.179599207047085       0.177959634465348       0.176320061883611     
  0.174680489301873       0.173040916720136       0.171401344138398     
  0.169761771556661       0.168122198974924       0.166482626393187     
  0.164843053811449       0.163203481229712       0.161563908647974     
  0.159924336066237       0.158284763484500       0.156645190902762     
  0.155005618321025       0.153366045739288       0.151726473157550     
  0.150086900575813       0.148447327994076       0.146807755412338     
  0.145168182830601       0.143528610248864       0.141889037667126     
  0.140249465085389       0.138609892503652       0.181906976952758     
  0.180267404371021       0.178627831789283       0.176988259207546     
  0.175348686625809       0.173709114044071       0.172069541462334     
  0.170429968880597       0.168790396298859       0.167150823717122     
  0.165511251135385       0.163871678553647       0.162232105971910     
  0.160592533390173       0.158952960808435       0.157313388226698     
  0.155673815644961       0.154034243063223       0.152394670481486     
  0.150755097899749       0.149115525318011       0.147475952736274     
  0.145836380154537       0.144196807572799       0.142557234991062     
  0.140917662409324       0.183307625045587       0.181668052463850     
  0.180028479882113       0.178388907300375       0.176749334718638     
  0.175109762136900       0.173470189555163       0.171830616973426     
  0.170191044391688       0.168551471809951       0.166911899228214     
  0.165272326646476       0.163632754064739       0.161993181483002     
  0.160353608901264       0.158714036319527       0.157074463737790     
  0.155434891156052       0.153795318574315       0.152155745992578     
  0.150516173410840       0.148876600829103       0.147237028247365     
  0.145597455665628       0.143957883083891       0.142318310502154     
  0.183777185848371       0.182137613266634       0.180498040684896     
  0.178858468103159       0.177218895521421       0.175579322939684     
  0.173939750357947       0.172300177776210       0.170660605194472     
  0.169021032612735       0.167381460030997       0.165741887449260     
  0.164102314867523       0.162462742285785       0.160823169704048     
  0.159183597122311       0.157544024540573       0.155904451958836     
  0.154264879377099       0.152625306795362       0.150985734213624     
  0.149346161631887       0.147706589050149       0.146067016468412     
  0.144427443886675       0.142787871304937     
 -9.796607745344066E-002 -9.845380450848336E-002 -9.894153156352598E-002
 -9.942925861856867E-002 -9.991698567361129E-002 -0.100404712728654     
 -0.100892439783697      -0.101380166838739      -0.101867893893782     
 -0.102355620948825      -0.102843348003867      -0.103331075058910     
 -0.103818802113953      -0.104306529168995      -0.104794256224038     
 -0.105281983279081      -0.105769710334123      -0.106257437389166     
 -0.106745164444209      -0.107232891499251      -0.107720618554294     
 -0.108208345609337      -0.108696072664379      -0.109183799719422     
 -0.109671526774464      -0.110159253829507      -9.954458126975167E-002
 -0.100032308324794      -0.100520035379837      -0.101007762434880     
 -0.101495489489922      -0.101983216544965      -0.102470943600008     
 -0.102958670655050      -0.103446397710093      -0.103934124765136     
 -0.104421851820178      -0.104909578875221      -0.105397305930264     
 -0.105885032985306      -0.106372760040349      -0.106860487095392     
 -0.107348214150434      -0.107835941205477      -0.108323668260520     
 -0.108811395315562      -0.109299122370605      -0.109786849425648     
 -0.110274576480690      -0.110762303535733      -0.111250030590776     
 -0.111737757645818      -0.104253084080744      -0.104740811135786     
 -0.105228538190829      -0.105716265245871      -0.106203992300914     
 -0.106691719355957      -0.107179446410999      -0.107667173466042     
 -0.108154900521085      -0.108642627576127      -0.109130354631170     
 -0.109618081686213      -0.110105808741255      -0.110593535796298     
 -0.111081262851341      -0.111568989906383      -0.112056716961426     
 -0.112544444016469      -0.113032171071511      -0.113519898126554     
 -0.114007625181597      -0.114495352236639      -0.114983079291682     
 -0.115470806346725      -0.115958533401767      -0.116446260456810     
 -0.112011022097877      -0.112498749152919      -0.112986476207962     
 -0.113474203263005      -0.113961930318047      -0.114449657373090     
 -0.114937384428133      -0.115425111483175      -0.115912838538218     
 -0.116400565593261      -0.116888292648303      -0.117376019703346     
 -0.117863746758388      -0.118351473813431      -0.118839200868474     
 -0.119326927923516      -0.119814654978559      -0.120302382033602     
 -0.120790109088644      -0.121277836143687      -0.121765563198730     
 -0.122253290253772      -0.122741017308815      -0.123228744363858     
 -0.123716471418900      -0.124204198473943      -0.122685654850771     
 -0.123173381905814      -0.123661108960856      -0.124148836015899     
 -0.124636563070942      -0.125124290125984      -0.125612017181027     
 -0.126099744236070      -0.126587471291112      -0.127075198346155     
 -0.127562925401197      -0.128050652456240      -0.128538379511283     
 -0.129026106566326      -0.129513833621368      -0.130001560676411     
 -0.130489287731453      -0.130977014786496      -0.131464741841539     
 -0.131952468896582      -0.132440195951624      -0.132927923006667     
 -0.133415650061709      -0.133903377116752      -0.134391104171795     
 -0.134878831226837      -0.136094336413457      -0.136582063468500     
 -0.137069790523543      -0.137557517578585      -0.138045244633628     
 -0.138532971688671      -0.139020698743713      -0.139508425798756     
 -0.139996152853799      -0.140483879908841      -0.140971606963884     
 -0.141459334018926      -0.141947061073969      -0.142434788129012     
 -0.142922515184055      -0.143410242239097      -0.143897969294140     
 -0.144385696349182      -0.144873423404225      -0.145361150459268     
 -0.145848877514311      -0.146336604569353      -0.146824331624396     
 -0.147312058679438      -0.147799785734481      -0.148287512789524     
 -0.152007640526809      -0.152495367581852      -0.152983094636894     
 -0.153470821691937      -0.153958548746980      -0.154446275802022     
 -0.154934002857065      -0.155421729912108      -0.155909456967150     
 -0.156397184022193      -0.156884911077236      -0.157372638132278     
 -0.157860365187321      -0.158348092242364      -0.158835819297406     
 -0.159323546352449      -0.159811273407492      -0.160299000462534     
 -0.160786727517577      -0.161274454572620      -0.161762181627662     
 -0.162249908682705      -0.162737635737747      -0.163225362792790     
 -0.163713089847833      -0.164200816902876      -0.170153286145446     
 -0.170641013200488      -0.171128740255531      -0.171616467310574     
 -0.172104194365616      -0.172591921420659      -0.173079648475702     
 -0.173567375530744      -0.174055102585787      -0.174542829640830     
 -0.175030556695872      -0.175518283750915      -0.176006010805957     
 -0.176493737861000      -0.176981464916043      -0.177469191971086     
 -0.177956919026128      -0.178444646081171      -0.178932373136214     
 -0.179420100191256      -0.179907827246299      -0.180395554301342     
 -0.180883281356384      -0.181371008411427      -0.181858735466469     
 -0.182346462521512      -0.190220796241909      -0.190708523296951     
 -0.191196250351994      -0.191683977407036      -0.192171704462079     
 -0.192659431517122      -0.193147158572164      -0.193634885627207     
 -0.194122612682250      -0.194610339737292      -0.195098066792335     
 -0.195585793847378      -0.196073520902420      -0.196561247957463     
 -0.197048975012506      -0.197536702067548      -0.198024429122591     
 -0.198512156177634      -0.198999883232676      -0.199487610287719     
 -0.199975337342762      -0.200463064397804      -0.200950791452847     
 -0.201438518507890      -0.201926245562932      -0.202413972617975     
 -0.211866810154682      -0.212354537209725      -0.212842264264768     
 -0.213329991319810      -0.213817718374853      -0.214305445429896     
 -0.214793172484938      -0.215280899539981      -0.215768626595024     
 -0.216256353650066      -0.216744080705109      -0.217231807760152     
 -0.217719534815194      -0.218207261870237      -0.218694988925280     
 -0.219182715980322      -0.219670443035365      -0.220158170090408     
 -0.220645897145450      -0.221133624200493      -0.221621351255535     
 -0.222109078310578      -0.222596805365621      -0.223084532420663     
 -0.223572259475706      -0.224059986530749      -0.234720958584311     
 -0.235208685639353      -0.235696412694396      -0.236184139749439     
 -0.236671866804481      -0.237159593859524      -0.237647320914567     
 -0.238135047969609      -0.238622775024652      -0.239110502079695     
 -0.239598229134737      -0.240085956189780      -0.240573683244822     
 -0.241061410299865      -0.241549137354908      -0.242036864409951     
 -0.242524591464993      -0.243012318520036      -0.243500045575078     
 -0.243987772630121      -0.244475499685164      -0.244963226740207     
 -0.245450953795249      -0.245938680850292      -0.246426407905334     
 -0.246914134960377      -0.258392200714796      -0.258879927769838     
 -0.259367654824881      -0.259855381879924      -0.260343108934966     
 -0.260830835990009      -0.261318563045052      -0.261806290100094     
 -0.262294017155137      -0.262781744210180      -0.263269471265222     
 -0.263757198320265      -0.264244925375308      -0.264732652430350     
 -0.265220379485393      -0.265708106540436      -0.266195833595478     
 -0.266683560650521      -0.267171287705564      -0.267659014760606     
 -0.268146741815649      -0.268634468870691      -0.269122195925734     
 -0.269609922980777      -0.270097650035819      -0.270585377090862     
 -0.282475515030376      -0.282963242085419      -0.283450969140462     
 -0.283938696195504      -0.284426423250547      -0.284914150305590     
 -0.285401877360632      -0.285889604415675      -0.286377331470718     
 -0.286865058525760      -0.287352785580803      -0.287840512635846     
 -0.288328239690888      -0.288815966745931      -0.289303693800974     
 -0.289791420856016      -0.290279147911059      -0.290766874966102     
 -0.291254602021144      -0.291742329076187      -0.292230056131229     
 -0.292717783186272      -0.293205510241315      -0.293693237296357     
 -0.294180964351400      -0.294668691406443      -0.306558829345957     
 -0.307046556401000      -0.307534283456042      -0.308022010511085     
 -0.308509737566128      -0.308997464621171      -0.309485191676213     
 -0.309972918731256      -0.310460645786298      -0.310948372841341     
 -0.311436099896384      -0.311923826951426      -0.312411554006469     
 -0.312899281061512      -0.313387008116554      -0.313874735171597     
 -0.314362462226639      -0.314850189281682      -0.315337916336725     
 -0.315825643391768      -0.316313370446810      -0.316801097501853     
 -0.317288824556896      -0.317776551611938      -0.318264278666981     
 -0.318752005722024      -0.330230071476442      -0.330717798531485     
 -0.331205525586527      -0.331693252641570      -0.332180979696613     
 -0.332668706751655      -0.333156433806698      -0.333644160861741     
 -0.334131887916783      -0.334619614971826      -0.335107342026869     
 -0.335595069081911      -0.336082796136954      -0.336570523191997     
 -0.337058250247039      -0.337545977302082      -0.338033704357125     
 -0.338521431412167      -0.339009158467210      -0.339496885522253     
 -0.339984612577295      -0.340472339632338      -0.340960066687380     
 -0.341447793742423      -0.341935520797466      -0.342423247852508     
 -0.353084219906071      -0.353571946961113      -0.354059674016156     
 -0.354547401071198      -0.355035128126241      -0.355522855181284     
 -0.356010582236326      -0.356498309291369      -0.356986036346412     
 -0.357473763401454      -0.357961490456497      -0.358449217511540     
 -0.358936944566582      -0.359424671621625      -0.359912398676667     
 -0.360400125731710      -0.360887852786753      -0.361375579841795     
 -0.361863306896838      -0.362351033951881      -0.362838761006923     
 -0.363326488061966      -0.363814215117009      -0.364301942172052     
 -0.364789669227094      -0.365277396282137      -0.374730233818844     
 -0.375217960873887      -0.375705687928929      -0.376193414983972     
 -0.376681142039015      -0.377168869094058      -0.377656596149100     
 -0.378144323204143      -0.378632050259185      -0.379119777314228     
 -0.379607504369271      -0.380095231424313      -0.380582958479356     
 -0.381070685534399      -0.381558412589441      -0.382046139644484     
 -0.382533866699527      -0.383021593754569      -0.383509320809612     
 -0.383997047864655      -0.384484774919697      -0.384972501974740     
 -0.385460229029783      -0.385947956084825      -0.386435683139868     
 -0.386923410194911      -0.394797743915307      -0.395285470970349     
 -0.395773198025392      -0.396260925080435      -0.396748652135478     
 -0.397236379190520      -0.397724106245563      -0.398211833300606     
 -0.398699560355648      -0.399187287410691      -0.399675014465734     
 -0.400162741520776      -0.400650468575819      -0.401138195630861     
 -0.401625922685904      -0.402113649740947      -0.402601376795989     
 -0.403089103851032      -0.403576830906075      -0.404064557961118     
 -0.404552285016160      -0.405040012071203      -0.405527739126246     
 -0.406015466181288      -0.406503193236331      -0.406990920291374     
 -0.412943389533944      -0.413431116588986      -0.413918843644029     
 -0.414406570699071      -0.414894297754114      -0.415382024809157     
 -0.415869751864199      -0.416357478919242      -0.416845205974285     
 -0.417332933029327      -0.417820660084370      -0.418308387139413     
 -0.418796114194456      -0.419283841249498      -0.419771568304541     
 -0.420259295359584      -0.420747022414626      -0.421234749469669     
 -0.421722476524712      -0.422210203579754      -0.422697930634797     
 -0.423185657689840      -0.423673384744882      -0.424161111799925     
 -0.424648838854967      -0.425136565910010      -0.428856693647296     
 -0.429344420702338      -0.429832147757381      -0.430319874812423     
 -0.430807601867466      -0.431295328922509      -0.431783055977551     
 -0.432270783032594      -0.432758510087637      -0.433246237142679     
 -0.433733964197722      -0.434221691252765      -0.434709418307807     
 -0.435197145362850      -0.435684872417893      -0.436172599472935     
 -0.436660326527978      -0.437148053583020      -0.437635780638063     
 -0.438123507693106      -0.438611234748149      -0.439098961803191     
 -0.439586688858234      -0.440074415913276      -0.440562142968319     
 -0.441049870023362      -0.442265375209982      -0.442753102265024     
 -0.443240829320067      -0.443728556375110      -0.444216283430152     
 -0.444704010485195      -0.445191737540238      -0.445679464595280     
 -0.446167191650323      -0.446654918705366      -0.447142645760408     
 -0.447630372815451      -0.448118099870494      -0.448605826925536     
 -0.449093553980579      -0.449581281035622      -0.450069008090664     
 -0.450556735145707      -0.451044462200750      -0.451532189255792     
 -0.452019916310835      -0.452507643365877      -0.452995370420920     
 -0.453483097475963      -0.453970824531006      -0.454458551586048     
 -0.452940007962876      -0.453427735017919      -0.453915462072961     
 -0.454403189128004      -0.454890916183047      -0.455378643238089     
 -0.455866370293132      -0.456354097348175      -0.456841824403217     
 -0.457329551458260      -0.457817278513303      -0.458305005568345     
 -0.458792732623388      -0.459280459678431      -0.459768186733473     
 -0.460255913788516      -0.460743640843559      -0.461231367898601     
 -0.461719094953644      -0.462206822008687      -0.462694549063729     
 -0.463182276118772      -0.463670003173815      -0.464157730228857     
 -0.464645457283900      -0.465133184338943      -0.460697945980009     
 -0.461185673035052      -0.461673400090095      -0.462161127145137     