 Title = "Wing and Wake"
 VARIABLES = "X" "Y" "Z" "GAM"
 Zone I=   26 J=   25 K=1  T="Blade"
 DATAPACKING=BLOCK
 VARLOCATION=([4]=CELLCENTERED)
  0.121040498346472       0.120181408537976       0.119322318729480     
  0.118463228920984       0.117604139112488       0.116745049303992     
  0.115885959495496       0.115026869687001       0.114167779878505     
  0.113308690070009       0.112449600261513       0.111590510453017     
  0.110731420644521       0.109872330836025       0.109013241027529     
  0.108154151219033       0.107295061410537       0.106435971602041     
  0.105576881793545       0.104717791985049       0.103858702176554     
  0.102999612368058       0.102140522559562       0.101281432751066     
  0.100422342942570       9.956325313407378E-002  0.122464605540827     
  0.121605515732331       0.120746425923835       0.119887336115339     
  0.119028246306843       0.118169156498347       0.117310066689851     
  0.116450976881355       0.115591887072859       0.114732797264363     
  0.113873707455867       0.113014617647371       0.112155527838876     
  0.111296438030380       0.110437348221884       0.109578258413388     
  0.108719168604892       0.107860078796396       0.107000988987900     
  0.106141899179404       0.105282809370908       0.104423719562412     
  0.103564629753916       0.102705539945420       0.101846450136925     
  0.100987360328428       0.126712560254958       0.125853470446462     
  0.124994380637966       0.124135290829470       0.123276201020974     
  0.122417111212478       0.121558021403982       0.120698931595486     
  0.119839841786990       0.118980751978494       0.118121662169998     
  0.117262572361503       0.116403482553007       0.115544392744511     
  0.114685302936015       0.113826213127519       0.112967123319023     
  0.112108033510527       0.111248943702031       0.110389853893535     
  0.109530764085039       0.108671674276543       0.107812584468048     
  0.106953494659551       0.106094404851056       0.105235315042560     
  0.133711678805951       0.132852588997455       0.131993499188960     
  0.131134409380463       0.130275319571967       0.129416229763472     
  0.128557139954976       0.127698050146480       0.126838960337984     
  0.125979870529488       0.125120780720992       0.124261690912496     
  0.123402601104000       0.122543511295504       0.121684421487008     
  0.120825331678513       0.119966241870017       0.119107152061520     
  0.118248062253025       0.117388972444529       0.116529882636033     
  0.115670792827537       0.114811703019041       0.113952613210545     
  0.113093523402049       0.112234433593553       0.143342204334877     
  0.142483114526381       0.141624024717885       0.140764934909389     
  0.139905845100894       0.139046755292398       0.138187665483902     
  0.137328575675406       0.136469485866910       0.135610396058414     
  0.134751306249918       0.133892216441422       0.133033126632926     
  0.132174036824430       0.131314947015935       0.130455857207438     
  0.129596767398942       0.128737677590446       0.127878587781951     
  0.127019497973455       0.126160408164959       0.125301318356463     
  0.124442228547967       0.123583138739471       0.122724048930975     
  0.121864959122479       0.155439355879850       0.154580266071354     
  0.153721176262858       0.152862086454362       0.152002996645866     
  0.151143906837370       0.150284817028874       0.149425727220378     
  0.148566637411882       0.147707547603386       0.146848457794890     
  0.145989367986394       0.145130278177899       0.144271188369403     
  0.143412098560907       0.142553008752411       0.141693918943915     
  0.140834829135419       0.139975739326923       0.139116649518427     
  0.138257559709931       0.137398469901435       0.136539380092939     
  0.135680290284443       0.134821200475947       0.133962110667452     
  0.169796147823970       0.168937058015474       0.168077968206978     
  0.167218878398482       0.166359788589987       0.165500698781490     
  0.164641608972994       0.163782519164499       0.162923429356003     
  0.162064339547507       0.161205249739011       0.160346159930515     
  0.159487070122019       0.158627980313523       0.157768890505027     
  0.156909800696531       0.156050710888035       0.155191621079539     
  0.154332531271043       0.153473441462548       0.152614351654052     
  0.151755261845556       0.150896172037060       0.150037082228564     
  0.149177992420068       0.148318902611572       0.186166931476620     
  0.185307841668124       0.184448751859628       0.183589662051132     
  0.182730572242636       0.181871482434140       0.181012392625644     
  0.180153302817148       0.179294213008652       0.178435123200157     
  0.177576033391661       0.176716943583165       0.175857853774669     
  0.174998763966173       0.174139674157677       0.173280584349181     
  0.172421494540685       0.171562404732189       0.170703314923694     
  0.169844225115197       0.168985135306701       0.168126045498205     
  0.167266955689709       0.166407865881214       0.165548776072717     
  0.164689686264222       0.204271598190664       0.203412508382168     
  0.202553418573672       0.201694328765176       0.200835238956680     
  0.199976149148184       0.199117059339688       0.198257969531192     
  0.197398879722696       0.196539789914200       0.195680700105704     
  0.194821610297208       0.193962520488712       0.193103430680216     
  0.192244340871720       0.191385251063225       0.190526161254729     
  0.189667071446233       0.188807981637737       0.187948891829241     
  0.187089802020745       0.186230712212249       0.185371622403753     
  0.184512532595257       0.183653442786761       0.182794352978265     
  0.223800372099061       0.222941282290566       0.222082192482070     
  0.221223102673574       0.220364012865078       0.219504923056582     
  0.218645833248086       0.217786743439590       0.216927653631094     
  0.216068563822598       0.215209474014102       0.214350384205606     
  0.213491294397110       0.212632204588615       0.211773114780119     
  0.210914024971623       0.210054935163127       0.209195845354631     
  0.208336755546135       0.207477665737639       0.206618575929143     
  0.205759486120647       0.204900396312151       0.204041306503655     
  0.203182216695160       0.202323126886663       0.244419110465842     
  0.243560020657346       0.242700930848851       0.241841841040355     
  0.240982751231859       0.240123661423363       0.239264571614867     
  0.238405481806371       0.237546391997875       0.236687302189379     
  0.235828212380883       0.234969122572388       0.234110032763891     
  0.233250942955395       0.232391853146900       0.231532763338404     
  0.230673673529908       0.229814583721412       0.228955493912916     
  0.228096404104420       0.227237314295924       0.226378224487428     
  0.225519134678932       0.224660044870436       0.223800955061940     
  0.222941865253444       0.265775020960956       0.264915931152460     
  0.264056841343965       0.263197751535468       0.262338661726973     
  0.261479571918477       0.260620482109981       0.259761392301485     
  0.258902302492989       0.258043212684493       0.257184122875997     
  0.256325033067501       0.255465943259006       0.254606853450509     
  0.253747763642013       0.252888673833517       0.252029584025021     
  0.251170494216526       0.250311404408030       0.249452314599534     
  0.248593224791038       0.247734134982542       0.246875045174046     
  0.246015955365550       0.245156865557054       0.244297775748558     
  0.287502698034855       0.286643608226359       0.285784518417863     
  0.284925428609367       0.284066338800871       0.283207248992375     
  0.282348159183880       0.281489069375384       0.280629979566888     
  0.279770889758391       0.278911799949895       0.278052710141400     
  0.277193620332904       0.276334530524408       0.275475440715912     
  0.274616350907416       0.273757261098920       0.272898171290424     
  0.272039081481928       0.271179991673432       0.270320901864936     
  0.269461812056440       0.268602722247945       0.267743632439448     
  0.266884542630952       0.266025452822456       0.309230375108754     
  0.308371285300257       0.307512195491761       0.306653105683266     
  0.305794015874770       0.304934926066274       0.304075836257778     
  0.303216746449282       0.302357656640786       0.301498566832290     
  0.300639477023794       0.299780387215298       0.298921297406802     
  0.298062207598306       0.297203117789811       0.296344027981314     
  0.295484938172819       0.294625848364322       0.293766758555827     
  0.292907668747331       0.292048578938835       0.291189489130339     
  0.290330399321843       0.289471309513347       0.288612219704851     
  0.287753129896355       0.330586285603867       0.329727195795371     
  0.328868105986875       0.328009016178379       0.327149926369884     
  0.326290836561387       0.325431746752892       0.324572656944396     
  0.323713567135900       0.322854477327403       0.321995387518908     
  0.321136297710412       0.320277207901916       0.319418118093420     
  0.318559028284924       0.317699938476429       0.316840848667933     
  0.315981758859436       0.315122669050941       0.314263579242445     
  0.313404489433949       0.312545399625452       0.311686309816957     
  0.310827220008461       0.309968130199965       0.309109040391469     
  0.351205023970648       0.350345934162152       0.349486844353657     
  0.348627754545160       0.347768664736664       0.346909574928169     
  0.346050485119673       0.345191395311176       0.344332305502681     
  0.343473215694185       0.342614125885689       0.341755036077193     
  0.340895946268697       0.340036856460201       0.339177766651705     
  0.338318676843209       0.337459587034713       0.336600497226218     
  0.335741407417721       0.334882317609225       0.334023227800730     
  0.333164137992234       0.332305048183738       0.331445958375242     
  0.330586868566746       0.329727778758250       0.370733797879046     
  0.369874708070550       0.369015618262054       0.368156528453559     
  0.367297438645063       0.366438348836567       0.365579259028070     
  0.364720169219575       0.363861079411078       0.363001989602583     
  0.362142899794087       0.361283809985591       0.360424720177095     
  0.359565630368599       0.358706540560103       0.357847450751607     
  0.356988360943112       0.356129271134615       0.355270181326120     
  0.354411091517624       0.353552001709128       0.352692911900632     
  0.351833822092136       0.350974732283640       0.350115642475144     
  0.349256552666647       0.388838464593089       0.387979374784595     
  0.387120284976098       0.386261195167602       0.385402105359106     
  0.384543015550610       0.383683925742114       0.382824835933618     
  0.381965746125122       0.381106656316626       0.380247566508130     
  0.379388476699635       0.378529386891139       0.377670297082643     
  0.376811207274147       0.375952117465651       0.375093027657155     
  0.374233937848659       0.373374848040164       0.372515758231667     
  0.371656668423172       0.370797578614675       0.369938488806180     
  0.369079398997683       0.368220309189188       0.367361219380692     
  0.405209248245739       0.404350158437244       0.403491068628748     
  0.402631978820252       0.401772889011756       0.400913799203260     
  0.400054709394764       0.399195619586268       0.398336529777772     
  0.397477439969276       0.396618350160780       0.395759260352284     
  0.394900170543788       0.394041080735293       0.393181990926796     
  0.392322901118301       0.391463811309805       0.390604721501309     
  0.389745631692813       0.388886541884317       0.388027452075821     
  0.387168362267325       0.386309272458829       0.385450182650333     
  0.384591092841837       0.383732003033341       0.419566040189860     
  0.418706950381364       0.417847860572868       0.416988770764372     
  0.416129680955876       0.415270591147380       0.414411501338884     
  0.413552411530388       0.412693321721892       0.411834231913396     
  0.410975142104900       0.410116052296405       0.409256962487909     
  0.408397872679413       0.407538782870917       0.406679693062421     
  0.405820603253925       0.404961513445429       0.404102423636934     
  0.403243333828438       0.402384244019942       0.401525154211445     
  0.400666064402949       0.399806974594453       0.398947884785957     
  0.398088794977462       0.431663191734832       0.430804101926337     
  0.429945012117841       0.429085922309344       0.428226832500849     
  0.427367742692353       0.426508652883857       0.425649563075361     
  0.424790473266865       0.423931383458369       0.423072293649874     
  0.422213203841378       0.421354114032881       0.420495024224386     
  0.419635934415890       0.418776844607393       0.417917754798898     
  0.417058664990402       0.416199575181905       0.415340485373410     
  0.414481395564914       0.413622305756417       0.412763215947922     
  0.411904126139426       0.411045036330930       0.410185946522434     
  0.441293717263758       0.440434627455262       0.439575537646766     
  0.438716447838271       0.437857358029774       0.436998268221279     
  0.436139178412783       0.435280088604288       0.434420998795791     
  0.433561908987295       0.432702819178800       0.431843729370303     
  0.430984639561807       0.430125549753311       0.429266459944816     
  0.428407370136319       0.427548280327824       0.426689190519328     
  0.425830100710832       0.424971010902336       0.424111921093840     
  0.423252831285344       0.422393741476848       0.421534651668352     
  0.420675561859857       0.419816472051360       0.448292835814752     
  0.447433746006256       0.446574656197760       0.445715566389265     
  0.444856476580768       0.443997386772273       0.443138296963777     
  0.442279207155281       0.441420117346785       0.440561027538288     
  0.439701937729793       0.438842847921297       0.437983758112800     
  0.437124668304305       0.436265578495810       0.435406488687312     
  0.434547398878817       0.433688309070321       0.432829219261826     
  0.431970129453329       0.431111039644833       0.430251949836338     
  0.429392860027842       0.428533770219346       0.427674680410850     
  0.426815590602354       0.452540790528884       0.451681700720387     
  0.450822610911892       0.449963521103395       0.449104431294900     
  0.448245341486403       0.447386251677907       0.446527161869411     
  0.445668072060916       0.444808982252420       0.443949892443924     
  0.443090802635428       0.442231712826932       0.441372623018436     
  0.440513533209940       0.439654443401445       0.438795353592949     
  0.437936263784452       0.437077173975956       0.436218084167461     
  0.435358994358965       0.434499904550469       0.433640814741973     
  0.432781724933477       0.431922635124981       0.431063545316485     
  0.453964897723238       0.453105807914742       0.452246718106246     
  0.451387628297750       0.450528538489254       0.449669448680758     
  0.448810358872262       0.447951269063766       0.447092179255271     
  0.446233089446774       0.445373999638278       0.444514909829782     
  0.443655820021286       0.442796730212791       0.441937640404295     
  0.441078550595799       0.440219460787303       0.439360370978807     
  0.438501281170310       0.437642191361816       0.436783101553319     
  0.435924011744824       0.435064921936328       0.434205832127832     
  0.433346742319336       0.432487652510840     
 -2.057177095044887E-002 -2.205097365188776E-002 -2.353017635332658E-002
 -2.500937905476549E-002 -2.648858175620418E-002 -2.796778445764306E-002
 -2.944698715908178E-002 -3.092618986052062E-002 -3.240539256195957E-002
 -3.388459526339822E-002 -3.536379796483700E-002 -3.684300066627589E-002
 -3.832220336771476E-002 -3.980140606915349E-002 -4.128060877059235E-002
 -4.275981147203130E-002 -4.423901417347000E-002 -4.571821687490883E-002
 -4.719741957634759E-002 -4.867662227778641E-002 -5.015582497922526E-002
 -5.163502768066397E-002 -5.311423038210281E-002 -5.459343308354166E-002
 -5.607263578498056E-002 -5.755183848641923E-002 -2.139886244756813E-002
 -2.287806514900696E-002 -2.435726785044577E-002 -2.583647055188456E-002
 -2.731567325332333E-002 -2.879487595476225E-002 -3.027407865620101E-002
 -3.175328135763980E-002 -3.323248405907864E-002 -3.471168676051749E-002
 -3.619088946195623E-002 -3.767009216339504E-002 -3.914929486483398E-002
 -4.062849756627275E-002 -4.210770026771152E-002 -4.358690296915046E-002
 -4.506610567058919E-002 -4.654530837202794E-002 -4.802451107346672E-002
 -4.950371377490551E-002 -5.098291647634424E-002 -5.246211917778318E-002
 -5.394132187922207E-002 -5.542052458066084E-002 -5.689972728209979E-002
 -5.837892998353853E-002 -2.386598517409686E-002 -2.534518787553574E-002
 -2.682439057697444E-002 -2.830359327841337E-002 -2.978279597985199E-002
 -3.126199868129086E-002 -3.274120138272964E-002 -3.422040408416858E-002
 -3.569960678560729E-002 -3.717880948704609E-002 -3.865801218848488E-002
 -4.013721488992374E-002 -4.161641759136251E-002 -4.309562029280136E-002
 -4.457482299424025E-002 -4.605402569567917E-002 -4.753322839711783E-002
 -4.901243109855650E-002 -5.049163379999538E-002 -5.197083650143436E-002
 -5.345003920287312E-002 -5.492924190431183E-002 -5.640844460575081E-002
 -5.788764730718950E-002 -5.936685000862832E-002 -6.084605271006717E-002
 -2.793092597616850E-002 -2.941012867760737E-002 -3.088933137904606E-002
 -3.236853408048484E-002 -3.384773678192358E-002 -3.532693948336255E-002
 -3.680614218480148E-002 -3.828534488624026E-002 -3.976454758767912E-002
 -4.124375028911781E-002 -4.272295299055661E-002 -4.420215569199532E-002
 -4.568135839343423E-002 -4.716056109487315E-002 -4.863976379631180E-002
 -5.011896649775074E-002 -5.159816919918964E-002 -5.307737190062837E-002
 -5.455657460206699E-002 -5.603577730350594E-002 -5.751498000494474E-002
 -5.899418270638362E-002 -6.047338540782247E-002 -6.195258810926113E-002
 -6.343179081070013E-002 -6.491099351213897E-002 -3.352413258964537E-002
 -3.500333529108397E-002 -3.648253799252302E-002 -3.796174069396158E-002
 -3.944094339540050E-002 -4.092014609683935E-002 -4.239934879827813E-002
 -4.387855149971672E-002 -4.535775420115570E-002 -4.683695690259455E-002
 -4.831615960403319E-002 -4.979536230547218E-002 -5.127456500691094E-002
 -5.275376770834988E-002 -5.423297040978875E-002 -5.571217311122761E-002
 -5.719137581266616E-002 -5.867057851410504E-002 -6.014978121554371E-002
 -6.162898391698286E-002 -6.310818661842139E-002 -6.458738931986031E-002
 -6.606659202129903E-002 -6.754579472273788E-002 -6.902499742417652E-002
 -7.050420012561551E-002 -4.054990369864051E-002 -4.202910640007934E-002
 -4.350830910151823E-002 -4.498751180295694E-002 -4.646671450439549E-002
 -4.794591720583449E-002 -4.942511990727352E-002 -5.090432260871225E-002
 -5.238352531015094E-002 -5.386272801158973E-002 -5.534193071302865E-002
 -5.682113341446741E-002 -5.830033611590626E-002 -5.977953881734509E-002
 -6.125874151878399E-002 -6.273794422022248E-002 -6.421714692166165E-002
 -6.569634962310032E-002 -6.717555232453905E-002 -6.865475502597826E-002
 -7.013395772741705E-002 -7.161316042885538E-002 -7.309236313029427E-002
 -7.457156583173308E-002 -7.605076853317193E-002 -7.752997123461100E-002
 -4.888802641156775E-002 -5.036722911300649E-002 -5.184643181444541E-002
 -5.332563451588423E-002 -5.480483721732300E-002 -5.628403991876180E-002
 -5.776324262020046E-002 -5.924244532163935E-002 -6.072164802307836E-002
 -6.220085072451709E-002 -6.368005342595572E-002 -6.515925612739468E-002
 -6.663845882883349E-002 -6.811766153027225E-002 -6.959686423171105E-002
 -7.107606693315012E-002 -7.255526963458861E-002 -7.403447233602736E-002
 -7.551367503746641E-002 -7.699287773890530E-002 -7.847208044034393E-002
 -7.995128314178275E-002 -8.143048584322157E-002 -8.290968854466042E-002
 -8.438889124609930E-002 -8.586809394753811E-002 -5.839583313704430E-002
 -5.987503583848329E-002 -6.135423853992198E-002 -6.283344124136094E-002
 -6.431264394279976E-002 -6.579184664423851E-002 -6.727104934567719E-002
 -6.875025204711614E-002 -7.022945474855491E-002 -7.170865744999359E-002
 -7.318786015143261E-002 -7.466706285287129E-002 -7.614626555431027E-002
 -7.762546825574899E-002 -7.910467095718769E-002 -8.058387365862663E-002
 -8.206307636006553E-002 -8.354227906150406E-002 -8.502148176294291E-002
 -8.650068446438210E-002 -8.797988716582060E-002 -8.945908986725953E-002
 -9.093829256869816E-002 -9.241749527013722E-002 -9.389669797157574E-002
 -9.537590067301473E-002 -6.891064266593529E-002 -7.038984536737437E-002
 -7.186904806881311E-002 -7.334825077025198E-002 -7.482745347169091E-002
 -7.630665617312944E-002 -7.778585887456849E-002 -7.926506157600717E-002
 -8.074426427744597E-002 -8.222346697888483E-002 -8.370266968032353E-002
 -8.518187238176213E-002 -8.666107508320128E-002 -8.814027778463979E-002
 -8.961948048607864E-002 -9.109868318751770E-002 -9.257788588895660E-002
 -9.405708859039554E-002 -9.553629129183414E-002 -9.701549399327311E-002
 -9.849469669471170E-002 -9.997389939615055E-002 -0.101453102097589     
 -0.102932304799028      -0.104411507500467      -0.105890710201906     
 -8.025254369194568E-002 -8.173174639338435E-002 -8.321094909482335E-002
 -8.469015179626223E-002 -8.616935449770097E-002 -8.764855719913947E-002
 -8.912775990057850E-002 -9.060696260201756E-002 -9.208616530345624E-002
 -9.356536800489494E-002 -9.504457070633357E-002 -9.652377340777246E-002
 -9.800297610921133E-002 -9.948217881065023E-002 -0.100961381512089     
 -0.102440584213528      -0.103919786914967      -0.105398989616406     
 -0.106878192317844      -0.108357395019283      -0.109836597720722     
 -0.111315800422161      -0.112795003123600      -0.114274205825038     
 -0.115753408526478      -0.117232611227916      -9.222747314395087E-002
 -9.370667584538975E-002 -9.518587854682865E-002 -9.666508124826732E-002
 -9.814428394970631E-002 -9.962348665114495E-002 -0.101102689352584     
 -0.102581892054023      -0.104061094755462      -0.105540297456901     
 -0.107019500158339      -0.108498702859778      -0.109977905561216     
 -0.111457108262656      -0.112936310964094      -0.114415513665533     
 -0.115894716366972      -0.117373919068411      -0.118853121769849     
 -0.120332324471288      -0.121811527172727      -0.123290729874166     
 -0.124769932575605      -0.126249135277044      -0.127728337978483     
 -0.129207540679921      -0.104630536658950      -0.106109739360388     
 -0.107588942061827      -0.109068144763266      -0.110547347464705     
 -0.112026550166144      -0.113505752867583      -0.114984955569022     
 -0.116464158270460      -0.117943360971899      -0.119422563673338     
 -0.120901766374777      -0.122380969076216      -0.123860171777654     
 -0.125339374479093      -0.126818577180533      -0.128297779881971     
 -0.129776982583410      -0.131256185284849      -0.132735387986288     
 -0.134214590687726      -0.135693793389165      -0.137172996090604     
 -0.138652198792043      -0.140131401493481      -0.141610604194920     
 -0.117249514381422      -0.118728717082861      -0.120207919784300     
 -0.121687122485738      -0.123166325187177      -0.124645527888616     
 -0.126124730590055      -0.127603933291493      -0.129083135992932     
 -0.130562338694371      -0.132041541395810      -0.133520744097249     
 -0.134999946798688      -0.136479149500127      -0.137958352201566     
 -0.139437554903004      -0.140916757604443      -0.142395960305881     
 -0.143875163007320      -0.145354365708759      -0.146833568410198     
 -0.148312771111637      -0.149791973813076      -0.151271176514515     
 -0.152750379215954      -0.154229581917392      -0.129868492103894     
 -0.131347694805333      -0.132826897506771      -0.134306100208211     
 -0.135785302909649      -0.137264505611088      -0.138743708312527     
 -0.140222911013965      -0.141702113715404      -0.143181316416843     
 -0.144660519118282      -0.146139721819721      -0.147618924521160     
 -0.149098127222599      -0.150577329924037      -0.152056532625476     
 -0.153535735326915      -0.155014938028353      -0.156494140729793     
 -0.157973343431231      -0.159452546132670      -0.160931748834109     
 -0.162410951535548      -0.163890154236987      -0.165369356938426     
 -0.166848559639865      -0.142271555618893      -0.143750758320332     
 -0.145229961021771      -0.146709163723209      -0.148188366424648     
 -0.149667569126087      -0.151146771827526      -0.152625974528964     
 -0.154105177230404      -0.155584379931842      -0.157063582633281     
 -0.158542785334720      -0.160021988036159      -0.161501190737597     
 -0.162980393439036      -0.164459596140475      -0.165938798841914     
 -0.167418001543352      -0.168897204244791      -0.170376406946230     
 -0.171855609647669      -0.173334812349108      -0.174814015050547     
 -0.176293217751985      -0.177772420453424      -0.179251623154863     
 -0.154246485070898      -0.155725687772337      -0.157204890473776     
 -0.158684093175215      -0.160163295876654      -0.161642498578092     
 -0.163121701279531      -0.164600903980970      -0.166080106682409     
 -0.167559309383847      -0.169038512085287      -0.170517714786725     
 -0.171996917488164      -0.173476120189603      -0.174955322891041     
 -0.176434525592480      -0.177913728293919      -0.179392930995358     
 -0.180872133696797      -0.182351336398235      -0.183830539099675     
 -0.185309741801113      -0.186788944502552      -0.188268147203991     
 -0.189747349905430      -0.191226552606868      -0.165588386096908     
 -0.167067588798347      -0.168546791499786      -0.170025994201225     
 -0.171505196902664      -0.172984399604102      -0.174463602305541     
 -0.175942805006980      -0.177422007708418      -0.178901210409858     
 -0.180380413111297      -0.181859615812735      -0.183338818514174     
 -0.184818021215613      -0.186297223917052      -0.187776426618490     
 -0.189255629319930      -0.190734832021368      -0.192214034722807     
 -0.193693237424246      -0.195172440125685      -0.196651642827124     
 -0.198130845528562      -0.199610048230001      -0.201089250931440     
 -0.202568453632879      -0.176103195625799      -0.177582398327238     
 -0.179061601028677      -0.180540803730116      -0.182020006431554     
 -0.183499209132993      -0.184978411834432      -0.186457614535871     
 -0.187936817237310      -0.189416019938749      -0.190895222640187     
 -0.192374425341627      -0.193853628043065      -0.195332830744504     
 -0.196812033445943      -0.198291236147382      -0.199770438848821     
 -0.201249641550259      -0.202728844251698      -0.204208046953137     
 -0.205687249654575      -0.207166452356015      -0.208645655057453     
 -0.210124857758892      -0.211604060460331      -0.213083263161770     
 -0.185611002351276      -0.187090205052715      -0.188569407754154     
 -0.190048610455592      -0.191527813157032      -0.193007015858470     
 -0.194486218559909      -0.195965421261348      -0.197444623962786     
 -0.198923826664226      -0.200403029365664      -0.201882232067103     
 -0.203361434768542      -0.204840637469981      -0.206319840171420     
 -0.207799042872859      -0.209278245574297      -0.210757448275736     
 -0.212236650977175      -0.213715853678614      -0.215195056380052     
 -0.216674259081491      -0.218153461782930      -0.219632664484369     
 -0.221111867185808      -0.222591069887247      -0.193949125064204     
 -0.195428327765642      -0.196907530467081      -0.198386733168520     
 -0.199865935869958      -0.201345138571397      -0.202824341272836     
 -0.204303543974275      -0.205782746675713      -0.207261949377152     
 -0.208741152078591      -0.210220354780030      -0.211699557481469     
 -0.213178760182908      -0.214657962884347      -0.216137165585785     
 -0.217616368287224      -0.219095570988663      -0.220574773690102     
 -0.222053976391541      -0.223533179092979      -0.225012381794419     
 -0.226491584495857      -0.227970787197296      -0.229449989898734     
 -0.230929192600174      -0.200974896173199      -0.202454098874638     
 -0.203933301576076      -0.205412504277515      -0.206891706978955     
 -0.208370909680393      -0.209850112381831      -0.211329315083270     
 -0.212808517784709      -0.214287720486147      -0.215766923187587     
 -0.217246125889026      -0.218725328590465      -0.220204531291903     
 -0.221683733993342      -0.223162936694780      -0.224642139396220     
 -0.226121342097658      -0.227600544799097      -0.229079747500537     
 -0.230558950201976      -0.232038152903413      -0.233517355604852     
 -0.234996558306291      -0.236475761007731      -0.237954963709169     
 -0.206568102786675      -0.208047305488114      -0.209526508189553     
 -0.211005710890991      -0.212484913592431      -0.213964116293869     
 -0.215443318995308      -0.216922521696748      -0.218401724398186     
 -0.219880927099625      -0.221360129801064      -0.222839332502502     
 -0.224318535203941      -0.225797737905379      -0.227276940606818     
 -0.228756143308257      -0.230235346009697      -0.231714548711136     
 -0.233193751412575      -0.234672954114013      -0.236152156815452     
 -0.237631359516890      -0.239110562218329      -0.240589764919768     
 -0.242068967621207      -0.243548170322646      -0.210633043588747     
 -0.212112246290186      -0.213591448991625      -0.215070651693064     