 Title = "Wing and Wake"
 VARIABLES = "X" "Y" "Z" "GAM" "skew"
 Zone I=   11 J=   26 K=1  T="Blade"
 DATAPACKING=BLOCK
 VARLOCATION=([4]=CELLCENTERED,[5]=CELLCENTERED)
 -0.263071925751640      -0.252343757293433      -0.241615588835225     
 -0.230887420377018      -0.220159251918811      -0.209431083460604     
 -0.198702915002397      -0.187974746544189      -0.177246578085982     
 -0.166518409627775      -0.155790241169568      -0.266142320287253     
 -0.255414151829046      -0.244685983370839      -0.233957814912632     
 -0.223229646454424      -0.212501477996217      -0.201773309538010     
 -0.191045141079803      -0.180316972621596      -0.169588804163389     
 -0.158860635705181      -0.275305081938102      -0.264576913479895     
 -0.253848745021688      -0.243120576563480      -0.232392408105273     
 -0.221664239647066      -0.210936071188859      -0.200207902730652     
 -0.189479734272444      -0.178751565814237      -0.168023397356030     
 -0.290415708479384      -0.279687540021177      -0.268959371562970     
 -0.258231203104763      -0.247503034646555      -0.236774866188348     
 -0.226046697730141      -0.215318529271934      -0.204590360813726     
 -0.193862192355519      -0.183134023897312      -0.311235896303892     
 -0.300507727845685      -0.289779559387478      -0.279051390929270     
 -0.268323222471063      -0.257595054012856      -0.246866885554649     
 -0.236138717096442      -0.225410548638235      -0.214682380180027     
 -0.203954211721820      -0.337437298612256      -0.326709130154050     
 -0.315980961695842      -0.305252793237635      -0.294524624779428     
 -0.283796456321221      -0.273068287863013      -0.262340119404806     
 -0.251611950946599      -0.240883782488391      -0.230155614030185     
 -0.368606703638115      -0.357878535179908      -0.347150366721701     
 -0.336422198263494      -0.325694029805287      -0.314965861347080     
 -0.304237692888872      -0.293509524430665      -0.282781355972458     
 -0.272053187514251      -0.261325019056043      -0.404252551244512     
 -0.393524382786304      -0.382796214328097      -0.372068045869890     
 -0.361339877411682      -0.350611708953476      -0.339883540495268     
 -0.329155372037061      -0.318427203578853      -0.307699035120646     
 -0.296970866662440      -0.443812685120894      -0.433084516662686     
 -0.422356348204479      -0.411628179746272      -0.400900011288065     
 -0.390171842829858      -0.379443674371650      -0.368715505913443     
 -0.357987337455236      -0.347259168997029      -0.336531000538822     
 -0.486663218323953      -0.475935049865746      -0.465206881407540     
 -0.454478712949332      -0.443750544491125      -0.433022376032917     
 -0.422294207574710      -0.411566039116503      -0.400837870658295     
 -0.390109702200089      -0.379381533741881      -0.532128372347411     
 -0.521400203889204      -0.510672035430997      -0.499943866972789     
 -0.489215698514582      -0.478487530056376      -0.467759361598167     
 -0.457031193139960      -0.446303024681753      -0.435574856223546     
 -0.424846687765339      -0.579491134552749      -0.568762966094542     
 -0.558034797636336      -0.547306629178127      -0.536578460719920     
 -0.525850292261713      -0.515122123803506      -0.504393955345299     
 -0.493665786887091      -0.482937618428884      -0.472209449970677     
 -0.628004565886848      -0.617276397428641      -0.606548228970432     
 -0.595820060512226      -0.585091892054018      -0.574363723595812     
 -0.563635555137604      -0.552907386679398      -0.542179218221190     
 -0.531451049762983      -0.520722881304776      -0.676903580557049     
 -0.666175412098841      -0.655447243640634      -0.644719075182427     
 -0.633990906724220      -0.623262738266012      -0.612534569807806     
 -0.601806401349598      -0.591078232891392      -0.580350064433184     
 -0.569621895974976      -0.725417011891147      -0.714688843432940     
 -0.703960674974734      -0.693232506516525      -0.682504338058317     
 -0.671776169600111      -0.661048001141903      -0.650319832683696     
 -0.639591664225489      -0.628863495767281      -0.618135327309076     
 -0.772779774096486      -0.762051605638277      -0.751323437180071     
 -0.740595268721864      -0.729867100263657      -0.719138931805450     
 -0.708410763347242      -0.697682594889035      -0.686954426430828     
 -0.676226257972619      -0.665498089514414      -0.818244928119943     
 -0.807516759661736      -0.796788591203528      -0.786060422745322     
 -0.775332254287114      -0.764604085828906      -0.753875917370700     
 -0.743147748912493      -0.732419580454285      -0.721691411996079     
 -0.710963243537871      -0.861095461323003      -0.850367292864795     
 -0.839639124406588      -0.828910955948381      -0.818182787490173     
 -0.807454619031967      -0.796726450573759      -0.785998282115552     
 -0.775270113657345      -0.764541945199137      -0.753813776740930     
 -0.900655595199384      -0.889927426741177      -0.879199258282970     
 -0.868471089824763      -0.857742921366556      -0.847014752908349     
 -0.836286584450141      -0.825558415991935      -0.814830247533728     
 -0.804102079075520      -0.793373910617313      -0.936301442805780     
 -0.925573274347574      -0.914845105889365      -0.904116937431160     
 -0.893388768972952      -0.882660600514744      -0.871932432056537     
 -0.861204263598331      -0.850476095140122      -0.839747926681916     
 -0.829019758223708      -0.967470847831639      -0.956742679373433     
 -0.946014510915224      -0.935286342457018      -0.924558173998812     
 -0.913830005540603      -0.903101837082397      -0.892373668624188     
 -0.881645500165983      -0.870917331707773      -0.860189163249566     
 -0.993672250140004      -0.982944081681797      -0.972215913223588     
 -0.961487744765382      -0.950759576307176      -0.940031407848970     
 -0.929303239390761      -0.918575070932553      -0.907846902474347     
 -0.897118734016138      -0.886390565557932       -1.01449243796451     
  -1.00376426950630      -0.993036101048097      -0.982307932589890     
 -0.971579764131684      -0.960851595673476      -0.950123427215269     
 -0.939395258757062      -0.928667090298854      -0.917938921840647     
 -0.907210753382439       -1.02960306450579       -1.01887489604759     
  -1.00814672758938      -0.997418559131172      -0.986690390672966     
 -0.975962222214758      -0.965234053756551      -0.954505885298342     
 -0.943777716840136      -0.933049548381929      -0.922321379923721     
  -1.03876582615664       -1.02803765769844       -1.01730948924023     
  -1.00658132078202      -0.995853152323813      -0.985124983865606     
 -0.974396815407398      -0.963668646949191      -0.952940478490986     
 -0.942212310032778      -0.931484141574570       -1.04183622069225     
  -1.03110805223405       -1.02037988377584       -1.00965171531763     
 -0.998923546859427      -0.988195378401221      -0.977467209943014     
 -0.966739041484805      -0.956010873026599      -0.945282704568390     
 -0.934554536110185     
 -4.265502262384049E-002 -2.741948466965602E-002 -1.218394671547151E-002
  3.051591238713024E-003  1.828712919289786E-002  3.352266714708209E-002
  4.875820510126673E-002  6.399374305545127E-002  7.922928100963569E-002
  9.446481896382035E-002  0.109700356918005      -4.049299133158969E-002
 -2.525745337740524E-002 -1.002191542322064E-002  5.213622530963827E-003
  2.044916048514834E-002  3.568469843933290E-002  5.092023639351741E-002
  6.615577434770183E-002  8.139131230188648E-002  9.662685025607107E-002
  0.111862388210256      -3.404099397985148E-002 -1.880545602566700E-002
 -3.569918071482302E-003  1.166561988270223E-002  2.690115783688661E-002
  4.213669579107120E-002  5.737223374525593E-002  7.260777169944023E-002
  8.784330965362459E-002  0.103078847607809       0.118314385561994     
 -2.340078242109873E-002 -8.165244466914088E-003  7.070293487270591E-003
  2.230583144145487E-002  3.754136939563931E-002  5.277690734982396E-002
  6.801244530400839E-002  8.324798325819283E-002  9.848352121237744E-002
  0.113719059166562       0.128954597120746      -8.740159147767681E-003
  6.495378806416850E-003  2.173091676060152E-002  3.696645471478609E-002
  5.220199266897046E-002  6.743753062315533E-002  8.267306857733984E-002
  9.790860653152411E-002  0.113144144485709       0.128379682439893     
  0.143615220394078       9.709669053289752E-003  2.494520700747450E-002
  4.018074496165878E-002  5.541628291584366E-002  7.065182087002796E-002
  8.588735882421290E-002  0.101122896778397       0.116358434732582     
  0.131593972686767       0.146829510640951       0.162065048595135     
  3.165773736994983E-002  4.689327532413421E-002  6.212881327831873E-002
  7.736435123250325E-002  9.259988918668793E-002  0.107835427140873     
  0.123070965095057       0.138306503049241       0.153542041003425     
  0.168777578957610       0.184013116911794       5.675791165371790E-002
  7.199344960790235E-002  8.722898756208708E-002  0.102464525516271     
  0.117700063470456       0.132935601424640       0.148171139378825     
  0.163406677333009       0.178642215287194       0.193877753241378     
  0.209113291195563       8.461434716202189E-002  9.984988511620677E-002
  0.115085423070391       0.130320961024575       0.145556498978760     
  0.160792036932944       0.176027574887129       0.191263112841313     
  0.206498650795498       0.221734188749682       0.236969726703867     
  0.114787731266268       0.130023269220452       0.145258807174637     
  0.160494345128822       0.175729883083006       0.190965421037190     
  0.206200958991374       0.221436496945559       0.236672034899744     
  0.251907572853928       0.267143110808113       0.146802211674426     
  0.162037749628611       0.177273287582795       0.192508825536979     
  0.207744363491164       0.222979901445349       0.238215439399532     
  0.253450977353718       0.268686515307901       0.283922053262086     
  0.299157591216271       0.180152900905936       0.195388438860120     
  0.210623976814305       0.225859514768489       0.241095052722674     
  0.256330590676858       0.271566128631043       0.286801666585227     
  0.302037204539412       0.317272742493596       0.332508280447780     
  0.214313838668880       0.229549376623065       0.244784914577249     
  0.260020452531434       0.275255990485618       0.290491528439802     
  0.305727066393988       0.320962604348172       0.336198142302356     
  0.351433680256541       0.366669218210726       0.248746286567983     
  0.263981824522167       0.279217362476351       0.294452900430536     
  0.309688438384721       0.324923976338906       0.340159514293091     
  0.355395052247274       0.370630590201460       0.385866128155644     
  0.401101666109828       0.282907224330927       0.298142762285112     
  0.313378300239297       0.328613838193480       0.343849376147665     
  0.359084914101849       0.374320452056034       0.389555990010219     
  0.404791527964403       0.420027065918587       0.435262603872773     
  0.316257913562437       0.331493451516621       0.346728989470806     
  0.361964527424990       0.377200065379175       0.392435603333360     
  0.407671141287544       0.422906679241729       0.438142217195913     
  0.453377755150097       0.468613293104283       0.348272393970595     
  0.363507931924779       0.378743469878964       0.393979007833149     
  0.409214545787333       0.424450083741517       0.439685621695703     
  0.454921159649887       0.470156697604071       0.485392235558256     
  0.500627773512440       0.378445778074841       0.393681316029025     
  0.408916853983210       0.424152391937394       0.439387929891579     
  0.454623467845764       0.469859005799948       0.485094543754133     
  0.500330081708317       0.515565619662501       0.530801157616685     
  0.406302213583145       0.421537751537329       0.436773289491515     
  0.452008827445698       0.467244365399883       0.482479903354068     
  0.497715441308251       0.512950979262436       0.528186517216621     
  0.543422055170806       0.558657593124990       0.431402387866912     
  0.446637925821098       0.461873463775281       0.477109001729468     
  0.492344539683650       0.507580077637836       0.522815615592019     
  0.538051153546205       0.553286691500389       0.568522229454575     
  0.583757767408758       0.453350456183573       0.468585994137758     
  0.483821532091941       0.499057070046125       0.514292608000311     
  0.529528145954494       0.544763683908681       0.559999221862865     
  0.575234759817050       0.590470297771233       0.605705835725417     
  0.471800284384629       0.487035822338814       0.502271360292999     
  0.517506898247184       0.532742436201367       0.547977974155554     
  0.563213512109738       0.578449050063921       0.593684588018106     
  0.608920125972291       0.624155663926477       0.486460907657962     
  0.501696445612145       0.516931983566330       0.532167521520514     
  0.547403059474699       0.562638597428884       0.577874135383069     
  0.593109673337254       0.608345211291438       0.623580749245621     
  0.638816287199807       0.497101119216714       0.512336657170898     
  0.527572195125083       0.542807733079267       0.558043271033452     
  0.573278808987638       0.588514346941821       0.603749884896006     
  0.618985422850189       0.634220960804376       0.649456498758559     
  0.503553116568452       0.518788654522636       0.534024192476820     
  0.549259730431005       0.564495268385190       0.579730806339376     
  0.594966344293559       0.610201882247744       0.625437420201928     
  0.640672958156113       0.655908496110297       0.505715147860702     
  0.520950685814888       0.536186223769071       0.551421761723257     
  0.566657299677441       0.581892837631625       0.597128375585811     
  0.612363913539995       0.627599451494179       0.642834989448363     
  0.658070527402549     
  3.960717710078315E-002  3.564645939070483E-002  3.168574168062652E-002
  2.772502397054821E-002  2.376430626046989E-002  1.980358855039158E-002
  1.584287084031326E-002  1.188215313023495E-002  7.921435420156629E-003
  3.960717710078312E-003  0.000000000000000E+000  3.960717710078315E-002
  3.564645939070483E-002  3.168574168062652E-002  2.772502397054821E-002
  2.376430626046989E-002  1.980358855039158E-002  1.584287084031326E-002
  1.188215313023495E-002  7.921435420156629E-003  3.960717710078312E-003
  0.000000000000000E+000  3.960717710078315E-002  3.564645939070483E-002
  3.168574168062652E-002  2.772502397054821E-002  2.376430626046989E-002
  1.980358855039158E-002  1.584287084031326E-002  1.188215313023495E-002
  7.921435420156629E-003  3.960717710078312E-003  0.000000000000000E+000
  3.960717710078315E-002  3.564645939070483E-002  3.168574168062652E-002
  2.772502397054821E-002  2.376430626046989E-002  1.980358855039158E-002
  1.584287084031326E-002  1.188215313023495E-002  7.921435420156629E-003
  3.960717710078312E-003  0.000000000000000E+000  3.960717710078315E-002
  3.564645939070483E-002  3.168574168062652E-002  2.772502397054821E-002
  2.376430626046989E-002  1.980358855039158E-002  1.584287084031326E-002
  1.188215313023495E-002  7.921435420156629E-003  3.960717710078312E-003
  0.000000000000000E+000  3.960717710078315E-002  3.564645939070483E-002
  3.168574168062652E-002  2.772502397054821E-002  2.376430626046989E-002
  1.980358855039158E-002  1.584287084031326E-002  1.188215313023495E-002
  7.921435420156629E-003  3.960717710078312E-003  0.000000000000000E+000
  3.960717710078315E-002  3.564645939070483E-002  3.168574168062652E-002
  2.772502397054821E-002  2.376430626046989E-002  1.980358855039158E-002
  1.584287084031326E-002  1.188215313023495E-002  7.921435420156629E-003
  3.960717710078312E-003  0.000000000000000E+000  3.960717710078315E-002
  3.564645939070483E-002  3.168574168062652E-002  2.772502397054821E-002
  2.376430626046989E-002  1.980358855039158E-002  1.584287084031326E-002
  1.188215313023495E-002  7.921435420156629E-003  3.960717710078312E-003
  0.000000000000000E+000  3.960717710078315E-002  3.564645939070483E-002
  3.168574168062652E-002  2.772502397054821E-002  2.376430626046989E-002
  1.980358855039158E-002  1.584287084031326E-002  1.188215313023495E-002
  7.921435420156629E-003  3.960717710078312E-003  0.000000000000000E+000
  3.960717710078315E-002  3.564645939070483E-002  3.168574168062652E-002
  2.772502397054821E-002  2.376430626046989E-002  1.980358855039158E-002
  1.584287084031326E-002  1.188215313023495E-002  7.921435420156629E-003
  3.960717710078312E-003  0.000000000000000E+000  3.960717710078315E-002
  3.564645939070483E-002  3.168574168062652E-002  2.772502397054821E-002
  2.376430626046989E-002  1.980358855039158E-002  1.584287084031326E-002
  1.188215313023495E-002  7.921435420156629E-003  3.960717710078312E-003
  0.000000000000000E+000  3.960717710078315E-002  3.564645939070483E-002
  3.168574168062652E-002  2.772502397054821E-002  2.376430626046989E-002
  1.980358855039158E-002  1.584287084031326E-002  1.188215313023495E-002
  7.921435420156629E-003  3.960717710078312E-003  0.000000000000000E+000
  3.960717710078315E-002  3.564645939070483E-002  3.168574168062652E-002
  2.772502397054821E-002  2.376430626046989E-002  1.980358855039158E-002
  1.584287084031326E-002  1.188215313023495E-002  7.921435420156629E-003
  3.960717710078312E-003  0.000000000000000E+000  3.960717710078315E-002
  3.564645939070483E-002  3.168574168062652E-002  2.772502397054821E-002
  2.376430626046989E-002  1.980358855039158E-002  1.584287084031326E-002
  1.188215313023495E-002  7.921435420156629E-003  3.960717710078312E-003
  0.000000000000000E+000  3.960717710078315E-002  3.564645939070483E-002
  3.168574168062652E-002  2.772502397054821E-002  2.376430626046989E-002
  1.980358855039158E-002  1.584287084031326E-002  1.188215313023495E-002
  7.921435420156629E-003  3.960717710078312E-003  0.000000000000000E+000
  3.960717710078315E-002  3.564645939070483E-002  3.168574168062652E-002
  2.772502397054821E-002  2.376430626046989E-002  1.980358855039158E-002
  1.584287084031326E-002  1.188215313023495E-002  7.921435420156629E-003
  3.960717710078312E-003  0.000000000000000E+000  3.960717710078315E-002
  3.564645939070483E-002  3.168574168062652E-002  2.772502397054821E-002
  2.376430626046989E-002  1.980358855039158E-002  1.584287084031326E-002
  1.188215313023495E-002  7.921435420156629E-003  3.960717710078312E-003
  0.000000000000000E+000  3.960717710078315E-002  3.564645939070483E-002
  3.168574168062652E-002  2.772502397054821E-002  2.376430626046989E-002
  1.980358855039158E-002  1.584287084031326E-002  1.188215313023495E-002
  7.921435420156629E-003  3.960717710078312E-003  0.000000000000000E+000
  3.960717710078315E-002  3.564645939070483E-002  3.168574168062652E-002
  2.772502397054821E-002  2.376430626046989E-002  1.980358855039158E-002
  1.584287084031326E-002  1.188215313023495E-002  7.921435420156629E-003
  3.960717710078312E-003  0.000000000000000E+000  3.960717710078315E-002
  3.564645939070483E-002  3.168574168062652E-002  2.772502397054821E-002
  2.376430626046989E-002  1.980358855039158E-002  1.584287084031326E-002
  1.188215313023495E-002  7.921435420156629E-003  3.960717710078312E-003
  0.000000000000000E+000  3.960717710078315E-002  3.564645939070483E-002
  3.168574168062652E-002  2.772502397054821E-002  2.376430626046989E-002
  1.980358855039158E-002  1.584287084031326E-002  1.188215313023495E-002
  7.921435420156629E-003  3.960717710078312E-003  0.000000000000000E+000
  3.960717710078315E-002  3.564645939070483E-002  3.168574168062652E-002
  2.772502397054821E-002  2.376430626046989E-002  1.980358855039158E-002
  1.584287084031326E-002  1.188215313023495E-002  7.921435420156629E-003
  3.960717710078312E-003  0.000000000000000E+000  3.960717710078315E-002
  3.564645939070483E-002  3.168574168062652E-002  2.772502397054821E-002
  2.376430626046989E-002  1.980358855039158E-002  1.584287084031326E-002
  1.188215313023495E-002  7.921435420156629E-003  3.960717710078312E-003
  0.000000000000000E+000  3.960717710078315E-002  3.564645939070483E-002
  3.168574168062652E-002  2.772502397054821E-002  2.376430626046989E-002
  1.980358855039158E-002  1.584287084031326E-002  1.188215313023495E-002
  7.921435420156629E-003  3.960717710078312E-003  0.000000000000000E+000
  3.960717710078315E-002  3.564645939070483E-002  3.168574168062652E-002
  2.772502397054821E-002  2.376430626046989E-002  1.980358855039158E-002
  1.584287084031326E-002  1.188215313023495E-002  7.921435420156629E-003
  3.960717710078312E-003  0.000000000000000E+000  3.960717710078315E-002
  3.564645939070483E-002  3.168574168062652E-002  2.772502397054821E-002
  2.376430626046989E-002  1.980358855039158E-002  1.584287084031326E-002
  1.188215313023495E-002  7.921435420156629E-003  3.960717710078312E-003
  0.000000000000000E+000
 -1.280720522739640E-002  3.602802345040068E-003  2.938980542709181E-002
  6.287353072621132E-002  0.103352341759288       0.150393141215930     
  0.203255676381782       0.260761069327749       0.321444563144632     
  0.381194756392156      -1.870535430998636E-002  7.732965063817802E-003
  5.033322532389369E-002  0.105917068907425       0.173325471586473     
  0.252023907467505       0.340854622932546       0.437862256696736     
  0.540723616635083       0.643421695160355      -1.584577400029644E-002
  1.827658095855258E-002  7.386920169916911E-002  0.146726184062196     
  0.235722370749698       0.340662189371754       0.460334435123694     
  0.592256434593840       0.732726929870684       0.870847699436521     
  3.829397953435355E-004  4.264309287277609E-002  0.106639817576205     
  0.189150890517103       0.289969741401038       0.409837137849221     
  0.548128423637358       0.702267837595902       0.867456193433243     
   1.02954154674078       3.611666987454774E-002  9.138542579259887E-002
  0.162495876955805       0.249488006659167       0.353883251553807     
  0.477550468732279       0.621051284221558       0.782744990954765     
  0.957874912547529        1.13143063937073       9.923535568935597E-002
  0.178106229052316       0.261305210520833       0.353783653071295     
  0.459006291719343       0.579960702916437       0.718616002936176     
  0.875136543272038        1.04646169446907        1.21919858883470     
  0.196066374796323       0.314309431610455       0.420181482003579     
  0.525332200571057       0.635457374251502       0.754676123775117     
  0.886096572671894        1.03142545372012        1.18975115496835     
   1.35080544813647       0.327672598108482       0.502557680095915     
  0.643886657800770       0.772216332523257       0.896122395118610     
   1.02074762030113        1.14970035681218        1.28527243109591     
   1.42772699421412        1.56983513738387       0.490101260586870     
  0.736825267697633       0.924660374422658        1.08514422641633     
   1.23073058105711        1.36808070964768        1.50123634584738     
   1.63243018935420        1.76177251227679        1.88295978366157     
  0.674601184069072        1.00410375245086        1.24632920616517     
   1.44505566881035        1.61713524053409        1.77114939348896     
   1.91189129264286        2.04161600061446        2.15985590516745     
   2.25986351409188       0.872235760479406        1.29104473497491     
   1.59252432631365        1.83349186801636        2.03545876147215     
   2.20906004430098        2.36003671725429        2.49109506449416     
   2.60206088183511        2.68709895915864        1.07783505285252     
   1.58985836619486        1.95362147125954        2.23965655065831     
   2.47456102264017        2.67143836437137        2.83743186457493     
   2.97617504920560        3.08824201742733        3.16869361225418     
   1.28953371051996        1.89749814734416        2.32558063477082     
   2.65863266801559        2.92869149696630        3.15157902339313     
   3.33599887027602        3.48656851546228        3.60450419731237     
   3.68532848440046        1.50621624883744        2.21190388203352     
   2.70525864061723        3.08595134831326        3.39172460357290     
   3.64132414689521        3.84518750163555        4.00904129514980     
   4.13480328831360        4.21834102271763        1.72830567471955     
   2.53298111307670        3.09166438431182        3.51950392758773     
   3.86029205952876        4.13593761399062        4.35879655456671     
   4.53583571146780        4.66976031415835        4.75681321906051     
   1.95976194446409        2.86520792289474        3.48875357196976     
   3.96222425753237        4.33606301895399        4.63570901547127     
   4.87567978542872        5.06435987604586        5.20538160388994     
   5.29550703795313        2.20535545140963        3.21345408769658     
   3.90029805616130        4.41642454492186        4.81989288366655     
   5.14020206495657        5.39431870620154        5.59220558892584     
   5.73853831335609        5.83072882774167        2.45137886135583     
   3.55717230385979        4.30090854375366        4.85307058088760     
   5.27993779078586        5.61536727703933        5.87890975283110     
   6.08216982768016        6.23093107329600        6.32342992654764     
   2.65464044100837        3.83352964803668        4.61465756989504     
   5.18681045459091        5.62387508750671        5.96360651815870     
   6.22778601143302        6.42942612159443        6.57531020845314     
   6.66468583107370        2.76470187398045        3.97000425355374     
   4.75503957304009        5.32161146272887        5.74925324444781     
   6.07856066393785        6.33278007367944        6.52566548101721     
   6.66442381989947        6.74893518277411        2.72381808243644     
   3.88100454138168        4.61704536064987        5.13780384138942     
   5.52468086086350        5.81887565059302        6.04350161618683     
   6.21179346299106        6.33049714692399        6.40035467512005     
   2.52567458445963        3.55109613360430        4.18101459657077     
   4.61666100842674        4.93568255899952        5.17588754202095     
   5.35768170235419        5.49222099296547        5.58472780089230     
   5.63576898989559        2.17631671894849        2.99038943817466     
   3.47141866151809        3.79928841672210        4.03813095370358     
   4.21758841882949        4.35323366554528        4.45350957556836     
   4.52255653803719        4.56150870784895        1.66180391114234     
   2.21090097937193        2.53097901433532        2.74964944831413     
   2.90951955811971        3.03000747684139        3.12134925710158     
   3.18933283971075        3.23771089348612        3.27215016598175     
   1.00980706947891        1.31725470776685        1.49814953668025     
   1.62242035470451        1.71358658433260        1.78244922196013     
   1.83473053294087        1.87365416603245        1.90104231859077     
   1.91736477999522     
  0.000000000000000E+000  0.000000000000000E+000  0.000000000000000E+000
  0.000000000000000E+000  0.000000000000000E+000  0.000000000000000E+000
  0.000000000000000E+000  0.000000000000000E+000  0.000000000000000E+000
  0.000000000000000E+000  0.000000000000000E+000  0.000000000000000E+000
  0.000000000000000E+000  0.000000000000000E+000  0.000000000000000E+000
  0.000000000000000E+000  0.000000000000000E+000  0.000000000000000E+000
  0.000000000000000E+000  0.000000000000000E+000  0.000000000000000E+000
  0.000000000000000E+000  0.000000000000000E+000  0.000000000000000E+000
  0.000000000000000E+000  0.000000000000000E+000  0.000000000000000E+000
  0.000000000000000E+000  0.000000000000000E+000  0.000000000000000E+000
  0.000000000000000E+000  0.000000000000000E+000  0.000000000000000E+000
  0.000000000000000E+000  0.000000000000000E+000  0.000000000000000E+000
  0.000000000000000E+000  0.000000000000000E+000  0.000000000000000E+000
  0.000000000000000E+000  0.000000000000000E+000  0.000000000000000E+000
  0.000000000000000E+000  0.000000000000000E+000  0.000000000000000E+000
  0.000000000000000E+000  0.000000000000000E+000  0.000000000000000E+000
  0.000000000000000E+000  0.000000000000000E+000  0.000000000000000E+000
  0.000000000000000E+000  0.000000000000000E+000  0.000000000000000E+000
  0.000000000000000E+000  0.000000000000000E+000  0.000000000000000E+000
  0.000000000000000E+000  0.000000000000000E+000  0.000000000000000E+000
  0.000000000000000E+000  0.000000000000000E+000  0.000000000000000E+000
  0.000000000000000E+000  0.000000000000000E+000  0.000000000000000E+000
  0.000000000000000E+000  0.000000000000000E+000  0.000000000000000E+000
  0.000000000000000E+000  0.000000000000000E+000  0.000000000000000E+000
  0.000000000000000E+000  0.000000000000000E+000  0.000000000000000E+000
  0.000000000000000E+000  0.000000000000000E+000  0.000000000000000E+000
  0.000000000000000E+000  0.000000000000000E+000  0.000000000000000E+000
  0.000000000000000E+000  0.000000000000000E+000  0.000000000000000E+000
  0.000000000000000E+000  0.000000000000000E+000  0.000000000000000E+000
  0.000000000000000E+000  0.000000000000000E+000  0.000000000000000E+000
  0.000000000000000E+000  0.000000000000000E+000  0.000000000000000E+000
  0.000000000000000E+000  0.000000000000000E+000  0.000000000000000E+000
  0.000000000000000E+000  0.000000000000000E+000  0.000000000000000E+000
  0.000000000000000E+000  0.000000000000000E+000  0.000000000000000E+000
  0.000000000000000E+000  0.000000000000000E+000  0.000000000000000E+000
  0.000000000000000E+000  0.000000000000000E+000  0.000000000000000E+000
  0.000000000000000E+000  0.000000000000000E+000  0.000000000000000E+000
  0.000000000000000E+000  0.000000000000000E+000  0.000000000000000E+000
  0.000000000000000E+000  0.000000000000000E+000  0.000000000000000E+000