 Title = "Wing and Wake"
 VARIABLES = "X" "Y" "Z" "GAM" "skew"
 Zone I=   11 J=   26 K=1  T="Blade"
 DATAPACKING=BLOCK
 VARLOCATION=([4]=CELLCENTERED,[5]=CELLCENTERED)
 -0.206519054867524      -0.204843798750600      -0.203168542633675     
 -0.201493286516751      -0.199818030399827      -0.198142774282903     
 -0.196467518165978      -0.194792262049054      -0.193117005932130     
 -0.191441749815205      -0.189766493698281      -0.210259070936050     
 -0.208583814819126      -0.206908558702201      -0.205233302585277     
 -0.203558046468353      -0.201882790351429      -0.200207534234504     
 -0.198532278117580      -0.196857022000656      -0.195181765883732     
 -0.193506509766807      -0.221420136854050      -0.219744880737126     
 -0.218069624620201      -0.216394368503277      -0.214719112386353     
 -0.213043856269428      -0.211368600152504      -0.209693344035580     
 -0.208018087918656      -0.206342831801731      -0.204667575684807     
 -0.239826235944700      -0.238150979827775      -0.236475723710851     
 -0.234800467593927      -0.233125211477002      -0.231449955360078     
 -0.229774699243154      -0.228099443126230      -0.226424187009305     
 -0.224748930892381      -0.223073674775457      -0.265187093030068     
 -0.263511836913144      -0.261836580796220      -0.260161324679296     
 -0.258486068562371      -0.256810812445447      -0.255135556328523     
 -0.253460300211598      -0.251785044094674      -0.250109787977750     
 -0.248434531860825      -0.297102752244078      -0.295427496127154     
 -0.293752240010230      -0.292076983893306      -0.290401727776382     
 -0.288726471659458      -0.287051215542533      -0.285375959425609     
 -0.283700703308684      -0.282025447191760      -0.280350191074836     
 -0.335069884575434      -0.333394628458510      -0.331719372341586     
 -0.330044116224662      -0.328368860107738      -0.326693603990813     
 -0.325018347873889      -0.323343091756965      -0.321667835640040     
 -0.319992579523116      -0.318317323406192      -0.378489725666806     
 -0.376814469549881      -0.375139213432957      -0.373463957316033     
 -0.371788701199108      -0.370113445082184      -0.368438188965260     
 -0.366762932848335      -0.365087676731411      -0.363412420614487     
 -0.361737164497563      -0.426677518686425      -0.425002262569500     
 -0.423327006452576      -0.421651750335652      -0.419976494218727     
 -0.418301238101803      -0.416625981984879      -0.414950725867955     
 -0.413275469751030      -0.411600213634106      -0.409924957517182     
 -0.478873313352380      -0.477198057235456      -0.475522801118531     
 -0.473847545001607      -0.472172288884683      -0.470497032767759     
 -0.468821776650834      -0.467146520533910      -0.465471264416985     
 -0.463796008300062      -0.462120752183137      -0.534253950802534     
 -0.532578694685609      -0.530903438568685      -0.529228182451760     
 -0.527552926334837      -0.525877670217912      -0.524202414100988     
 -0.522527157984063      -0.520851901867139      -0.519176645750215     
 -0.517501389633291      -0.591946045301507      -0.590270789184583     
 -0.588595533067658      -0.586920276950734      -0.585245020833810     
 -0.583569764716885      -0.581894508599961      -0.580219252483037     
 -0.578543996366112      -0.576868740249188      -0.575193484132264     
 -0.651039758055464      -0.649364501938540      -0.647689245821615     
 -0.646013989704691      -0.644338733587767      -0.642663477470842     
 -0.640988221353918      -0.639312965236995      -0.637637709120070     
 -0.635962453003145      -0.634287196886222      -0.710603145913403     
 -0.708927889796479      -0.707252633679554      -0.705577377562630     
 -0.703902121445706      -0.702226865328781      -0.700551609211858     
 -0.698876353094933      -0.697201096978009      -0.695525840861085     
 -0.693850584744160      -0.769696858667361      -0.768021602550437     
 -0.766346346433512      -0.764671090316587      -0.762995834199663     
 -0.761320578082740      -0.759645321965814      -0.757970065848890     
 -0.756294809731966      -0.754619553615042      -0.752944297498118     
 -0.827388953166334      -0.825713697049409      -0.824038440932485     
 -0.822363184815561      -0.820687928698636      -0.819012672581713     
 -0.817337416464788      -0.815662160347864      -0.813986904230940     
 -0.812311648114015      -0.810636391997091      -0.882769590616487     
 -0.881094334499563      -0.879419078382638      -0.877743822265714     
 -0.876068566148790      -0.874393310031866      -0.872718053914942     
 -0.871042797798017      -0.869367541681093      -0.867692285564169     
 -0.866017029447245      -0.934965385282443      -0.933290129165518     
 -0.931614873048594      -0.929939616931669      -0.928264360814745     
 -0.926589104697821      -0.924913848580897      -0.923238592463972     
 -0.921563336347049      -0.919888080230124      -0.918212824113199     
 -0.983153178302061      -0.981477922185137      -0.979802666068213     
 -0.978127409951288      -0.976452153834365      -0.974776897717440     
 -0.973101641600515      -0.971426385483591      -0.969751129366667     
 -0.968075873249743      -0.966400617132818       -1.02657301939343     
  -1.02489776327651       -1.02322250715958       -1.02154725104266     
  -1.01987199492573       -1.01819673880881       -1.01652148269189     
  -1.01484622657496       -1.01317097045804       -1.01149571434111     
  -1.00982045822419       -1.06454015172479       -1.06286489560786     
  -1.06118963949094       -1.05951438337402       -1.05783912725709     
  -1.05616387114017       -1.05448861502324       -1.05281335890632     
  -1.05113810278939       -1.04946284667247       -1.04778759055555     
  -1.09645581093880       -1.09478055482187       -1.09310529870495     
  -1.09143004258803       -1.08975478647110       -1.08807953035418     
  -1.08640427423725       -1.08472901812033       -1.08305376200340     
  -1.08137850588648       -1.07970324976956       -1.12181666802417     
  -1.12014141190724       -1.11846615579032       -1.11679089967339     
  -1.11511564355647       -1.11344038743955       -1.11176513132262     
  -1.11008987520570       -1.10841461908877       -1.10673936297185     
  -1.10506410685492       -1.14022276711482       -1.13854751099789     
  -1.13687225488097       -1.13519699876404       -1.13352174264712     
  -1.13184648653020       -1.13017123041327       -1.12849597429635     
  -1.12682071817942       -1.12514546206250       -1.12347020594557     
  -1.15138383303282       -1.14970857691589       -1.14803332079897     
  -1.14635806468204       -1.14468280856512       -1.14300755244820     
  -1.14133229633127       -1.13965704021435       -1.13798178409742     
  -1.13630652798050       -1.13463127186357       -1.15512384910134     
  -1.15344859298442       -1.15177333686749       -1.15009808075057     
  -1.14842282463365       -1.14674756851672       -1.14507231239980     
  -1.14339705628287       -1.14172180016595       -1.14004654404902     
  -1.13837128793210     
 -0.168452275289893      -0.149894022889309      -0.131335770488725     
 -0.112777518088141      -9.421926568755679E-002 -7.566101328697290E-002
 -5.710276088638894E-002 -3.854450848580495E-002 -1.998625608522116E-002
 -1.428003684637127E-003  1.713024871594682E-002 -0.168114663500757     
 -0.149556411100173      -0.130998158699589      -0.112439906299005     
 -9.388165389842108E-002 -7.532340149783721E-002 -5.676514909725319E-002
 -3.820689669666927E-002 -1.964864429608531E-002 -1.090391895501485E-003
  1.746786050508252E-002 -0.167107152472944      -0.148548900072360     
 -0.129990647671776      -0.111432395271192      -9.287414287060820E-002
 -7.431589047002422E-002 -5.575763806944026E-002 -3.719938566885637E-002
 -1.864113326827247E-002 -8.288086768842372E-005  1.847537153289544E-002
 -0.165445631257220      -0.146887378856636      -0.128329126456052     
 -0.109770874055468      -9.121262165488456E-002 -7.265436925430054E-002
 -5.409611685371654E-002 -3.553786445313269E-002 -1.697961205254880E-002
  1.578640348035230E-003  2.013689274861911E-002 -0.163156303035702     
 -0.144598050635119      -0.126039798234534      -0.107481545833951     
 -8.892329343336658E-002 -7.036504103278271E-002 -5.180678863219883E-002
 -3.324853623161490E-002 -1.469028383103093E-002  3.867968569552907E-003
  2.242622097013689E-002 -0.160275271882022      -0.141717019481438     
 -0.123158767080854      -0.104600514680271      -8.604226227968650E-002
 -6.748400987910237E-002 -4.892575747851866E-002 -3.036750507793470E-002
 -1.180925267735071E-002  6.748999723233197E-003  2.530725212381706E-002
 -0.156847973378518      -0.138289720977934      -0.119731468577350     
 -0.101173216176766      -8.261496377618201E-002 -6.405671137559822E-002
 -4.549845897501429E-002 -2.694020657443042E-002 -8.381954173846502E-003
  1.017629822673751E-002  2.873455062732144E-002 -0.152928458069958     
 -0.134370205669374      -0.115811953268790      -9.725370086820660E-002
 -7.869544846762273E-002 -6.013719606703882E-002 -4.157894366645493E-002
 -2.302069126587091E-002 -4.462438865286890E-003  1.409581353529683E-002
  3.265406593588091E-002 -0.148578539054165      -0.130020286653581     
 -0.111462034252997      -9.290378185241323E-002 -7.434552945182912E-002
 -5.578727705124502E-002 -3.722902465066108E-002 -1.867077225007724E-002
 -1.125198494932504E-004  1.844573255109060E-002  3.700398495167437E-002
 -0.143866817152532      -0.125308564751948      -0.106750312351364     
 -8.819205995077985E-002 -6.963380755019577E-002 -5.107555514961208E-002
 -3.251730274902816E-002 -1.395905034844414E-002  4.599202052139972E-003
  2.315745445272378E-002  4.171570685330753E-002 -0.138867599034094     
 -0.120309346633510      -0.101751094232926      -8.319284183234256E-002
 -6.463458943175858E-002 -4.607633703117459E-002 -2.751808463059064E-002
 -8.959832230006555E-003  9.598420170577014E-003  2.815667257116118E-002
  4.671492497174506E-002 -0.133659725354968      -0.115101472954384     
 -9.654322055380020E-002 -7.798496815321608E-002 -5.942671575263251E-002
 -4.086846335204838E-002 -2.231021095146473E-002 -3.751958550880516E-003
  1.480629384970331E-002  3.336454625028730E-002  5.192279865087118E-002
 -0.128325327394107      -0.109767074993522      -9.120882259293825E-002
 -7.265057019235460E-002 -5.409231779177028E-002 -3.553406539118710E-002
 -1.697581299060255E-002  1.582439409981079E-003  2.014069181056493E-002
  3.869894421114874E-002  5.725719661173313E-002 -0.122948531793966     
 -0.104390279393382      -8.583202699279896E-002 -6.727377459221448E-002
 -4.871552219163062E-002 -3.015726979104646E-002 -1.159901739046272E-002
  6.959235010120950E-003  2.551748741070518E-002  4.407573981128906E-002
  6.263399221187307E-002 -0.117614133833105      -9.905588143252080E-002
 -8.049762903193657E-002 -6.193937663135320E-002 -4.338112423076834E-002
 -2.482287183018514E-002 -6.264619429601117E-003  1.229363297098315E-002
  3.085188537156662E-002  4.941013777215079E-002  6.796839017273482E-002
 -0.112406260153979      -9.384800775339432E-002 -7.528975535281093E-002
 -5.673150295222715E-002 -3.817325055164267E-002 -1.961499815105883E-002
 -1.056745750475211E-003  1.750150665010886E-002  3.605975905069252E-002
  5.461801145127695E-002  7.317626385186077E-002 -0.107407042035541     
 -8.884878963495693E-002 -7.029053723437326E-002 -5.173228483378930E-002
 -3.317403243320515E-002 -1.461578003262122E-002  3.942472367962719E-003
  2.250072476854641E-002  4.105897716913027E-002  5.961722956971461E-002
  7.817548197029822E-002 -0.102695320133908      -8.413706773332363E-002
 -6.557881533274014E-002 -4.702056293215631E-002 -2.846231053157226E-002
 -9.904058130988387E-003  8.654194269595929E-003  2.721244667017962E-002
  4.577069907076342E-002  6.432895147134765E-002  8.288720387193130E-002
 -9.834540111811366E-002 -7.978714871753005E-002 -6.122889631694657E-002
 -4.267064391636272E-002 -2.411239151577838E-002 -5.554139115194714E-003
  1.300411328538917E-002  3.156236568597318E-002  5.012061808655709E-002
  6.867887048714157E-002  8.723712288772505E-002 -9.442588580955513E-002
 -7.586763340897101E-002 -5.730938100838704E-002 -3.875112860780269E-002
 -2.019287620721933E-002 -1.634623806635022E-003  1.692362859394858E-002
  3.548188099453295E-002  5.404013339511687E-002  7.259838579570077E-002
  9.115663819628433E-002 -9.099858730605033E-002 -7.244033490546616E-002
 -5.388208250488295E-002 -3.532383010429876E-002 -1.676557770371477E-002
  1.792674696868676E-003  2.035092709745342E-002  3.890917949803701E-002
  5.746743189862081E-002  7.602568429920517E-002  9.458393669978900E-002
 -8.811755615237013E-002 -6.955930375178650E-002 -5.100105135120239E-002
 -3.244279895061841E-002 -1.388454655003493E-002  4.673705850549269E-003
  2.323195825113332E-002  4.179021065171715E-002  6.034846305230086E-002
  7.890671545288512E-002  9.746496785346900E-002 -8.582822793085208E-002
 -6.726997553026874E-002 -4.871172312968465E-002 -3.015347072910033E-002
 -1.159521832851710E-002  6.963034072067534E-003  2.552128647265072E-002
  4.407953887323487E-002  6.263779127381973E-002  8.119604367440300E-002
  9.975429607498733E-002 -8.416670671512851E-002 -6.560845431454537E-002
 -4.705020191396096E-002 -2.849194951337691E-002 -9.933697112793188E-003
  8.624555287791070E-003  2.718280768837485E-002  4.574106008895893E-002
  6.429931248954267E-002  8.285756489012616E-002  0.101415817290711     
 -8.315919568731561E-002 -6.460094328673238E-002 -4.604269088614847E-002
 -2.748443848556427E-002 -8.926186084980281E-003  9.632066315603973E-003
  2.819031871618759E-002  4.674857111677206E-002  6.530682351735567E-002
  8.386507591793946E-002  0.102423328318524      -8.282158389818024E-002
 -6.426333149759654E-002 -4.570507909701287E-002 -2.714682669642846E-002
 -8.588574295844722E-003  9.969678104739104E-003  2.852793050532395E-002
  4.708618290590740E-002  6.564443530649101E-002  8.420268770707512E-002
  0.102760940107660     
  3.960717710078315E-002  3.564645939070483E-002  3.168574168062652E-002
  2.772502397054821E-002  2.376430626046989E-002  1.980358855039158E-002
  1.584287084031326E-002  1.188215313023495E-002  7.921435420156629E-003
  3.960717710078312E-003  0.000000000000000E+000  3.960717710078315E-002
  3.564645939070483E-002  3.168574168062652E-002  2.772502397054821E-002
  2.376430626046989E-002  1.980358855039158E-002  1.584287084031326E-002
  1.188215313023495E-002  7.921435420156629E-003  3.960717710078312E-003
  0.000000000000000E+000  3.960717710078315E-002  3.564645939070483E-002
  3.168574168062652E-002  2.772502397054821E-002  2.376430626046989E-002
  1.980358855039158E-002  1.584287084031326E-002  1.188215313023495E-002
  7.921435420156629E-003  3.960717710078312E-003  0.000000000000000E+000
  3.960717710078315E-002  3.564645939070483E-002  3.168574168062652E-002
  2.772502397054821E-002  2.376430626046989E-002  1.980358855039158E-002
  1.584287084031326E-002  1.188215313023495E-002  7.921435420156629E-003
  3.960717710078312E-003  0.000000000000000E+000  3.960717710078315E-002
  3.564645939070483E-002  3.168574168062652E-002  2.772502397054821E-002
  2.376430626046989E-002  1.980358855039158E-002  1.584287084031326E-002
  1.188215313023495E-002  7.921435420156629E-003  3.960717710078312E-003
  0.000000000000000E+000  3.960717710078315E-002  3.564645939070483E-002
  3.168574168062652E-002  2.772502397054821E-002  2.376430626046989E-002
  1.980358855039158E-002  1.584287084031326E-002  1.188215313023495E-002
  7.921435420156629E-003  3.960717710078312E-003  0.000000000000000E+000
  3.960717710078315E-002  3.564645939070483E-002  3.168574168062652E-002
  2.772502397054821E-002  2.376430626046989E-002  1.980358855039158E-002
  1.584287084031326E-002  1.188215313023495E-002  7.921435420156629E-003
  3.960717710078312E-003  0.000000000000000E+000  3.960717710078315E-002
  3.564645939070483E-002  3.168574168062652E-002  2.772502397054821E-002
  2.376430626046989E-002  1.980358855039158E-002  1.584287084031326E-002
  1.188215313023495E-002  7.921435420156629E-003  3.960717710078312E-003
  0.000000000000000E+000  3.960717710078315E-002  3.564645939070483E-002
  3.168574168062652E-002  2.772502397054821E-002  2.376430626046989E-002
  1.980358855039158E-002  1.584287084031326E-002  1.188215313023495E-002
  7.921435420156629E-003  3.960717710078312E-003  0.000000000000000E+000
  3.960717710078315E-002  3.564645939070483E-002  3.168574168062652E-002
  2.772502397054821E-002  2.376430626046989E-002  1.980358855039158E-002
  1.584287084031326E-002  1.188215313023495E-002  7.921435420156629E-003
  3.960717710078312E-003  0.000000000000000E+000  3.960717710078315E-002
  3.564645939070483E-002  3.168574168062652E-002  2.772502397054821E-002
  2.376430626046989E-002  1.980358855039158E-002  1.584287084031326E-002
  1.188215313023495E-002  7.921435420156629E-003  3.960717710078312E-003
  0.000000000000000E+000  3.960717710078315E-002  3.564645939070483E-002
  3.168574168062652E-002  2.772502397054821E-002  2.376430626046989E-002
  1.980358855039158E-002  1.584287084031326E-002  1.188215313023495E-002
  7.921435420156629E-003  3.960717710078312E-003  0.000000000000000E+000
  3.960717710078315E-002  3.564645939070483E-002  3.168574168062652E-002
  2.772502397054821E-002  2.376430626046989E-002  1.980358855039158E-002
  1.584287084031326E-002  1.188215313023495E-002  7.921435420156629E-003
  3.960717710078312E-003  0.000000000000000E+000  3.960717710078315E-002
  3.564645939070483E-002  3.168574168062652E-002  2.772502397054821E-002
  2.376430626046989E-002  1.980358855039158E-002  1.584287084031326E-002
  1.188215313023495E-002  7.921435420156629E-003  3.960717710078312E-003
  0.000000000000000E+000  3.960717710078315E-002  3.564645939070483E-002
  3.168574168062652E-002  2.772502397054821E-002  2.376430626046989E-002
  1.980358855039158E-002  1.584287084031326E-002  1.188215313023495E-002
  7.921435420156629E-003  3.960717710078312E-003  0.000000000000000E+000
  3.960717710078315E-002  3.564645939070483E-002  3.168574168062652E-002
  2.772502397054821E-002  2.376430626046989E-002  1.980358855039158E-002
  1.584287084031326E-002  1.188215313023495E-002  7.921435420156629E-003
  3.960717710078312E-003  0.000000000000000E+000  3.960717710078315E-002
  3.564645939070483E-002  3.168574168062652E-002  2.772502397054821E-002
  2.376430626046989E-002  1.980358855039158E-002  1.584287084031326E-002
  1.188215313023495E-002  7.921435420156629E-003  3.960717710078312E-003
  0.000000000000000E+000  3.960717710078315E-002  3.564645939070483E-002
  3.168574168062652E-002  2.772502397054821E-002  2.376430626046989E-002
  1.980358855039158E-002  1.584287084031326E-002  1.188215313023495E-002
  7.921435420156629E-003  3.960717710078312E-003  0.000000000000000E+000
  3.960717710078315E-002  3.564645939070483E-002  3.168574168062652E-002
  2.772502397054821E-002  2.376430626046989E-002  1.980358855039158E-002
  1.584287084031326E-002  1.188215313023495E-002  7.921435420156629E-003
  3.960717710078312E-003  0.000000000000000E+000  3.960717710078315E-002
  3.564645939070483E-002  3.168574168062652E-002  2.772502397054821E-002
  2.376430626046989E-002  1.980358855039158E-002  1.584287084031326E-002
  1.188215313023495E-002  7.921435420156629E-003  3.960717710078312E-003
  0.000000000000000E+000  3.960717710078315E-002  3.564645939070483E-002
  3.168574168062652E-002  2.772502397054821E-002  2.376430626046989E-002
  1.980358855039158E-002  1.584287084031326E-002  1.188215313023495E-002
  7.921435420156629E-003  3.960717710078312E-003  0.000000000000000E+000
  3.960717710078315E-002  3.564645939070483E-002  3.168574168062652E-002
  2.772502397054821E-002  2.376430626046989E-002  1.980358855039158E-002
  1.584287084031326E-002  1.188215313023495E-002  7.921435420156629E-003
  3.960717710078312E-003  0.000000000000000E+000  3.960717710078315E-002
  3.564645939070483E-002  3.168574168062652E-002  2.772502397054821E-002
  2.376430626046989E-002  1.980358855039158E-002  1.584287084031326E-002
  1.188215313023495E-002  7.921435420156629E-003  3.960717710078312E-003
  0.000000000000000E+000  3.960717710078315E-002  3.564645939070483E-002
  3.168574168062652E-002  2.772502397054821E-002  2.376430626046989E-002
  1.980358855039158E-002  1.584287084031326E-002  1.188215313023495E-002
  7.921435420156629E-003  3.960717710078312E-003  0.000000000000000E+000
  3.960717710078315E-002  3.564645939070483E-002  3.168574168062652E-002
  2.772502397054821E-002  2.376430626046989E-002  1.980358855039158E-002
  1.584287084031326E-002  1.188215313023495E-002  7.921435420156629E-003
  3.960717710078312E-003  0.000000000000000E+000  3.960717710078315E-002
  3.564645939070483E-002  3.168574168062652E-002  2.772502397054821E-002
  2.376430626046989E-002  1.980358855039158E-002  1.584287084031326E-002
  1.188215313023495E-002  7.921435420156629E-003  3.960717710078312E-003
  0.000000000000000E+000
  0.374937394867733       0.513035272619959       0.608604941134912     
  0.683761365528178       0.745518752101765       0.795248651696422     
  0.834219713687477       0.864564480637062       0.888450813011416     
  0.906798666297210       0.614766231242571       0.857272127081548     
   1.02330279104151        1.15295307009804        1.25904163820532     
   1.34472140942412        1.41219230774847        1.46497377549638     
   1.50710711284752        1.54286010623448       0.793719666126353     
   1.14344648879275        1.38343837098909        1.56966220616817     
   1.72053199777349        1.84351283865637        1.94136171618882     
   2.01872610120619        2.07993898117361        2.12696909688120     
  0.890048138382515        1.31652538597990        1.61881607444586     
   1.85507735862810        2.04675772176242        2.20308248209774     
   2.32857261450430        2.42767546456680        2.50337347294142     
   2.55560876583171       0.905157339470676        1.36540906939838     
   1.70506445536136        1.97687539790866        2.20026365085725     
   2.38313104805768        2.53031600291360        2.64635303159781     
   2.73328829045847        2.78944848392630       0.856655419259646     
   1.31048568686139        1.65617181623187        1.93915622530330     
   2.17554714968451        2.37257367077519        2.53394355649037     
   2.66193282987407        2.75729008445757        2.81752753411551     
  0.782575416030067        1.20532371965112        1.53375280565664     
   1.80674229894661        2.03825790506113        2.23484360823044     
   2.39947478343454        2.53249761905350        2.63302106774272     
   2.69752438381720       0.749693399421546        1.14651760378917     
   1.45346261094244        1.70957800079392        1.92738678635569     
   2.11396222741003        2.27246892028142        2.40352214997358     
   2.50548292761852        2.57341181689630       0.803592982049412     
   1.21086339469663        1.51672915917389        1.76790287676388     
   1.98069782589904        2.16291743798718        2.31847329130597     
   2.44826573439299        2.55024973316700        2.61820959598922     
  0.924711252042493        1.37795304584492        1.70891217859462     
   1.97504822293728        2.19725804428946        2.38530414196011     
   2.54399184178419        2.67509884690554        2.77771652239585     
   2.84641667457673        1.07505301585398        1.59230144002913     
   1.96346363761201        2.25716499692382        2.49875406066805     
   2.70033336941371        2.86818823324969        3.00522289462953     
   3.11146178978075        3.18204099549547        1.23675926921661     
   1.82511548912593        2.24254606071352        2.56915493070959     
   2.83481665489739        3.05403256572144        3.23458658703368     
   3.38041340996425        3.49223042400353        3.56550676247647     
   1.40342987106330        2.06559625556149        2.53144806609287     
   2.89282665184110        3.18420843753940        3.42249902277294     
   3.61693995309169        3.77241501823963        3.89024802010858     
   3.96618309064737        1.57175771553950        2.30810163174815     
   2.82234092714771        3.21823073924869        3.53493205196194     
   3.79180396234666        3.99956895837345        4.16406326457113     
   4.28721741398674        4.36509818370966        1.73935930586269     
   2.54845982149816        3.10932249484718        3.53776181904794     
   3.87773321395004        4.15113974735316        4.37026005471357     
   4.54195639924738        4.66884338356150        4.74744094573843     
   1.90353185752856        2.78200047926416        3.38588502665804     
   3.84316761237108        4.20271188065871        4.48908359698232     
   4.71624566976438        4.89221823748352        5.02045731240629     
   5.09818228760827        2.05987663690714        3.00146649922312     
   3.64224211518483        4.12235853895178        4.49572040054291     
   4.78970261081404        5.02010432651070        5.19627795592704     
   5.32274346773135        5.39777335496359        2.19960959867028     
   3.19318826858232        3.86086340926071        4.35458407403670     
   4.73333007684684        5.02739960260491        5.25455332704366     
   5.42562603937893        5.54642967094438        5.61670317062061     
   2.30672609494844        3.33291100057721        4.01154954944377     
   4.50519268354538        4.87761564879556        5.16194922217924     
   5.37784864289722        5.53757060423064        5.64824592084426     
   5.71137154021132        2.35779003044860        3.38493002108131     
   4.05001854867311        4.52399719456802        4.87466850649629     
   5.13744211950108        5.33328125279934        5.47523883876719     
   5.57127484533769        5.62461961204123        2.32534540187811     
   3.30698520113916        3.92429629240848        4.35330647712754     
   4.66412613968806        4.89292087640593        5.06056243208067     
   5.17958798466512        5.25764336810096        5.29905616596470     
   2.18330210875282        3.05863723925613        3.58752943178426     
   3.94541594904996        4.20027942092627        4.38563039355196     
   4.51995272787938        4.61385330680312        4.67356215810855     
   4.70307892003103        1.90749700442937        2.60741732094080     
   3.01234708923257        3.28170076233926        3.47227397816662     
   3.61046721023028        3.71036477236616        3.78000536589981     
   3.82438112282317        3.84739494392574        1.47129501235517     
   1.94478608147524        2.21428398455771        2.39379490278945     
   2.52123506943389        2.61391910134498        2.68107669016971     
   2.72818449418556        2.75943959442532        2.78174112841721     
  0.897661522191658        1.16274367168659        1.31496432884151     
   1.41691315261741        1.48954365051507        1.54248634088701     
   1.58089276666996        1.60781047230177        1.62536067908197     
   1.63513665394396     
  0.000000000000000E+000  0.000000000000000E+000  0.000000000000000E+000
  0.000000000000000E+000  0.000000000000000E+000  0.000000000000000E+000
  0.000000000000000E+000  0.000000000000000E+000  0.000000000000000E+000
  0.000000000000000E+000  0.000000000000000E+000  0.000000000000000E+000
  0.000000000000000E+000  0.000000000000000E+000  0.000000000000000E+000
  0.000000000000000E+000  0.000000000000000E+000  0.000000000000000E+000
  0.000000000000000E+000  0.000000000000000E+000  0.000000000000000E+000
  0.000000000000000E+000  0.000000000000000E+000  0.000000000000000E+000
  0.000000000000000E+000  0.000000000000000E+000  0.000000000000000E+000
  0.000000000000000E+000  0.000000000000000E+000  0.000000000000000E+000
  0.000000000000000E+000  0.000000000000000E+000  0.000000000000000E+000
  0.000000000000000E+000  0.000000000000000E+000  0.000000000000000E+000
  0.000000000000000E+000  0.000000000000000E+000  0.000000000000000E+000
  0.000000000000000E+000  0.000000000000000E+000  0.000000000000000E+000
  0.000000000000000E+000  0.000000000000000E+000  0.000000000000000E+000
  0.000000000000000E+000  0.000000000000000E+000  0.000000000000000E+000
  0.000000000000000E+000  0.000000000000000E+000  0.000000000000000E+000
  0.000000000000000E+000  0.000000000000000E+000  0.000000000000000E+000
  0.000000000000000E+000  0.000000000000000E+000  0.000000000000000E+000
  0.000000000000000E+000  0.000000000000000E+000  0.000000000000000E+000
  0.000000000000000E+000  0.000000000000000E+000  0.000000000000000E+000
  0.000000000000000E+000  0.000000000000000E+000  0.000000000000000E+000
  0.000000000000000E+000  0.000000000000000E+000  0.000000000000000E+000
  0.000000000000000E+000  0.000000000000000E+000  0.000000000000000E+000
  0.000000000000000E+000  0.000000000000000E+000  0.000000000000000E+000
  0.000000000000000E+000  0.000000000000000E+000  0.000000000000000E+000
  0.000000000000000E+000  0.000000000000000E+000  0.000000000000000E+000
  0.000000000000000E+000  0.000000000000000E+000  0.000000000000000E+000
  0.000000000000000E+000  0.000000000000000E+000  0.000000000000000E+000
  0.000000000000000E+000  0.000000000000000E+000  0.000000000000000E+000
  0.000000000000000E+000  0.000000000000000E+000  0.000000000000000E+000
  0.000000000000000E+000  0.000000000000000E+000  0.000000000000000E+000
  0.000000000000000E+000  0.000000000000000E+000  0.000000000000000E+000
  0.000000000000000E+000  0.000000000000000E+000  0.000000000000000E+000
  0.000000000000000E+000  0.000000000000000E+000  0.000000000000000E+000
  0.000000000000000E+000  0.000000000000000E+000  0.000000000000000E+000
  0.000000000000000E+000  0.000000000000000E+000  0.000000000000000E+000
  0.000000000000000E+000  0.000000000000000E+000  0.000000000000000E+000
  0.000000000000000E+000  0.000000000000000E+000  0.000000000000000E+000