 Title = "Wing and Wake"
 VARIABLES = "X" "Y" "Z" "GAM" "skew"
 Zone I=   11 J=   26 K=1  T="Blade"
 DATAPACKING=BLOCK
 VARLOCATION=([4]=CELLCENTERED,[5]=CELLCENTERED)
 -0.250575681882796      -0.242863252700357      -0.235150823517919     
 -0.227438394335480      -0.219725965153041      -0.212013535970603     
 -0.204301106788164      -0.196588677605725      -0.188876248423287     
 -0.181163819240848      -0.173451390058409      -0.253994151462352     
 -0.246281722279914      -0.238569293097475      -0.230856863915036     
 -0.223144434732598      -0.215432005550159      -0.207719576367720     
 -0.200007147185282      -0.192294718002843      -0.184582288820404     
 -0.176869859637966      -0.264195648893656      -0.256483219711218     
 -0.248770790528779      -0.241058361346340      -0.233345932163902     
 -0.225633502981463      -0.217921073799024      -0.210208644616586     
 -0.202496215434147      -0.194783786251708      -0.187071357069270     
 -0.281019290468138      -0.273306861285699      -0.265594432103261     
 -0.257882002920822      -0.250169573738384      -0.242457144555945     
 -0.234744715373506      -0.227032286191067      -0.219319857008629     
 -0.211607427826190      -0.203894998643752      -0.304199757308211     
 -0.296487328125772      -0.288774898943334      -0.281062469760895     
 -0.273350040578456      -0.265637611396017      -0.257925182213579     
 -0.250212753031140      -0.242500323848702      -0.234787894666263     
 -0.227075465483824      -0.333371479604467      -0.325659050422029     
 -0.317946621239590      -0.310234192057151      -0.302521762874713     
 -0.294809333692274      -0.287096904509835      -0.279384475327397     
 -0.271672046144958      -0.263959616962519      -0.256247187780081     
 -0.368074401869953      -0.360361972687515      -0.352649543505076     
 -0.344937114322637      -0.337224685140199      -0.329512255957760     
 -0.321799826775321      -0.314087397592883      -0.306374968410444     
 -0.298662539228005      -0.290950110045567      -0.407761238290021     
 -0.400048809107583      -0.392336379925144      -0.384623950742705     
 -0.376911521560267      -0.369199092377828      -0.361486663195389     
 -0.353774234012951      -0.346061804830512      -0.338349375648073     
 -0.330636946465635      -0.451806103746560      -0.444093674564121     
 -0.436381245381682      -0.428668816199244      -0.420956387016805     
 -0.413243957834366      -0.405531528651928      -0.397819099469489     
 -0.390106670287050      -0.382394241104612      -0.374681811922173     
 -0.499514384400192      -0.491801955217753      -0.484089526035314     
 -0.476377096852876      -0.468664667670437      -0.460952238487999     
 -0.453239809305559      -0.445527380123121      -0.437814950940682     
 -0.430102521758244      -0.422390092575805      -0.550133692165464     
 -0.542421262983026      -0.534708833800587      -0.526996404618148     
 -0.519283975435710      -0.511571546253271      -0.503859117070832     
 -0.496146687888393      -0.488434258705955      -0.480721829523516     
 -0.473009400341077      -0.602865730320410      -0.595153301137971     
 -0.587440871955533      -0.579728442773094      -0.572016013590655     
 -0.564303584408216      -0.556591155225778      -0.548878726043339     
 -0.541166296860900      -0.533453867678462      -0.525741438496023     
 -0.656878883122733      -0.649166453940294      -0.641454024757855     
 -0.633741595575416      -0.626029166392978      -0.618316737210539     
 -0.610604308028100      -0.602891878845662      -0.595179449663223     
 -0.587467020480785      -0.579754591298346      -0.711321330886846     
 -0.703608901704408      -0.695896472521969      -0.688184043339530     
 -0.680471614157092      -0.672759184974653      -0.665046755792215     
 -0.657334326609776      -0.649621897427337      -0.641909468244898     
 -0.634197039062460      -0.765334483689169      -0.757622054506730     
 -0.749909625324292      -0.742197196141853      -0.734484766959414     
 -0.726772337776976      -0.719059908594537      -0.711347479412098     
 -0.703635050229660      -0.695922621047221      -0.688210191864782     
 -0.818066521844115      -0.810354092661676      -0.802641663479237     
 -0.794929234296799      -0.787216805114360      -0.779504375931922     
 -0.771791946749483      -0.764079517567044      -0.756367088384605     
 -0.748654659202167      -0.740942230019728      -0.868685829609387     
 -0.860973400426948      -0.853260971244510      -0.845548542062071     
 -0.837836112879633      -0.830123683697194      -0.822411254514755     
 -0.814698825332317      -0.806986396149878      -0.799273966967439     
 -0.791561537785001      -0.916394110263019      -0.908681681080581     
 -0.900969251898142      -0.893256822715703      -0.885544393533265     
 -0.877831964350826      -0.870119535168387      -0.862407105985948     
 -0.854694676803510      -0.846982247621071      -0.839269818438632     
 -0.960438975719557      -0.952726546537119      -0.945014117354680     
 -0.937301688172242      -0.929589258989803      -0.921876829807364     
 -0.914164400624925      -0.906451971442487      -0.898739542260048     
 -0.891027113077609      -0.883314683895171       -1.00012581213963     
 -0.992413382957187      -0.984700953774748      -0.976988524592310     
 -0.969276095409871      -0.961563666227432      -0.953851237044994     
 -0.946138807862555      -0.938426378680116      -0.930713949497678     
 -0.923001520315239       -1.03482873440511       -1.02711630522267     
  -1.01940387604023       -1.01169144685780       -1.00397901767536     
 -0.996266588492918      -0.988554159310480      -0.980841730128041     
 -0.973129300945602      -0.965416871763163      -0.957704442580725     
  -1.06400045670137       -1.05628802751893       -1.04857559833649     
  -1.04086316915405       -1.03315073997161       -1.02543831078917     
  -1.01772588160674       -1.01001345242430       -1.00230102324186     
 -0.994588594059420      -0.986876164876981       -1.08718092354144     
  -1.07946849435900       -1.07175606517656       -1.06404363599412     
  -1.05633120681169       -1.04861877762925       -1.04090634844681     
  -1.03319391926437       -1.02548149008193       -1.01776906089949     
  -1.01005663171705       -1.10400456511592       -1.09629213593348     
  -1.08857970675104       -1.08086727756861       -1.07315484838617     
  -1.06544241920373       -1.05772999002129       -1.05001756083885     
  -1.04230513165641       -1.03459270247397       -1.02688027329154     
  -1.11420606254723       -1.10649363336479       -1.09878120418235     
  -1.09106877499991       -1.08335634581747       -1.07564391663503     
  -1.06793148745259       -1.06021905827016       -1.05250662908772     
  -1.04479419990528       -1.03708177072284       -1.11762453212678     
  -1.10991210294434       -1.10219967376191       -1.09448724457947     
  -1.08677481539703       -1.07906238621459       -1.07134995703215     
  -1.06363752784971       -1.05592509866727       -1.04821266948483     
  -1.04050024030240     
 -9.076407176129209E-002 -7.380135820104644E-002 -5.683864464080089E-002
 -3.987593108055525E-002 -2.291321752030964E-002 -5.950503960064055E-003
  1.101220960018159E-002  2.797492316042724E-002  4.493763672067283E-002
  6.190035028091843E-002  7.886306384116405E-002 -8.920979776786464E-002
 -7.224708420761902E-002 -5.528437064737348E-002 -3.832165708712783E-002
 -2.135894352688220E-002 -4.396229966636600E-003  1.256648359360906E-002
  2.952919715385465E-002  4.649191071410026E-002  6.345462427434588E-002
  8.041733783459151E-002 -8.457148761693711E-002 -6.760877405669165E-002
 -5.064606049644588E-002 -3.368334693620033E-002 -1.672063337595470E-002
  2.420801842909338E-004  1.720479374453655E-002  3.416750730478219E-002
  5.113022086502782E-002  6.809293442527345E-002  8.505564798551903E-002
 -7.692229023038158E-002 -5.995957667013604E-002 -4.299686310989033E-002
 -2.603414954964476E-002 -9.071435989399156E-003  7.891277570846476E-003
  2.485399113109206E-002  4.181670469133766E-002  5.877941825158332E-002
  7.574213181182893E-002  9.270484537207456E-002 -6.638283802039337E-002
 -4.942012446014771E-002 -3.245741089990205E-002 -1.549469733965647E-002
  1.468016220589194E-003  1.843072978083479E-002  3.539344334108046E-002
  5.235615690132598E-002  6.931887046157159E-002  8.628158402181718E-002
  0.103244297582063      -5.311934444428724E-002 -3.615663088404161E-002
 -1.919391732379597E-002 -2.231203763550374E-003  1.473150979669518E-002
  3.169422335694094E-002  4.865693691718647E-002  6.561965047743210E-002
  8.258236403767770E-002  9.954507759792328E-002  0.116507791158169     
 -3.734098271898549E-002 -2.037826915873998E-002 -3.415555598494368E-003
  1.354715796175132E-002  3.050987152199689E-002  4.747258508224252E-002
  6.443529864248811E-002  8.139801220273364E-002  9.836072576297923E-002
  0.115323439323225       0.132286152883471      -1.929658703443281E-002
 -2.333873474187139E-003  1.462884008605861E-002  3.159155364630413E-002
  4.855426720654975E-002  6.551698076679532E-002  8.247969432704096E-002
  9.944240788728659E-002  0.116405121447532       0.133367835007778     
  0.150330548568023       7.292717102262694E-004  1.769198527047195E-002
  3.465469883071753E-002  5.161741239096312E-002  6.858012595120883E-002
  8.554283951145440E-002  0.102505553071700       0.119468266631946     
  0.136430980192191       0.153393693752437       0.170356407312683     
  2.242077375972018E-002  3.938348731996589E-002  5.634620088021135E-002
  7.330891444045708E-002  9.027162800070276E-002  0.107234341560948     
  0.124197055121194       0.141159768681440       0.158122482241685     
  0.175085195801931       0.192047909362176       4.543583116885324E-002
  6.239854472909881E-002  7.936125828934448E-002  9.632397184958987E-002
  0.113286685409836       0.130249398970081       0.147212112530327     
  0.164174826090572       0.181137539650818       0.198100253211064     
  0.215062966771309       6.941148273375415E-002  8.637419629400006E-002
  0.103336909854246       0.120299623414491       0.137262336974737     
  0.154225050534982       0.171187764095228       0.188150477655474     
  0.205113191215719       0.222075904775965       0.239038618336210     
  9.396961810688494E-002  0.110932331667131       0.127895045227376     
  0.144857758787622       0.161820472347868       0.178783185908113     
  0.195745899468359       0.212708613028604       0.229671326588850     
  0.246634040149096       0.263596753709341       0.118722940823092     
  0.135685654383338       0.152648367943583       0.169611081503829     
  0.186573795064075       0.203536508624320       0.220499222184566     
  0.237461935744812       0.254424649305057       0.271387362865303     
  0.288350076425549       0.143281076196223       0.160243789756469     
  0.177206503316714       0.194169216876960       0.211131930437206     
  0.228094643997451       0.245057357557697       0.262020071117942     
  0.278982784678188       0.295945498238434       0.312908211798679     
  0.167256727761124       0.184219441321370       0.201182154881615     
  0.218144868441861       0.235107582002107       0.252070295562352     
  0.269033009122598       0.285995722682843       0.302958436243089     
  0.319921149803335       0.336883863363580       0.190271785170257     
  0.207234498730503       0.224197212290748       0.241159925850994     
  0.258122639411240       0.275085352971486       0.292048066531731     
  0.309010780091976       0.325973493652222       0.342936207212468     
  0.359898920772713       0.211963287219751       0.228926000779997     
  0.245888714340242       0.262851427900488       0.279814141460734     
  0.296776855020979       0.313739568581225       0.330702282141470     
  0.347664995701716       0.364627709261962       0.381590422822207     
  0.231989145964410       0.248951859524656       0.265914573084901     
  0.282877286645147       0.299840000205393       0.316802713765638     
  0.333765427325883       0.350728140886129       0.367690854446375     
  0.384653568006621       0.401616281566866       0.250033541648963     
  0.266996255209209       0.283958968769454       0.300921682329700     
  0.317884395889945       0.334847109450191       0.351809823010437     
  0.368772536570682       0.385735250130928       0.402697963691174     
  0.419660677251419       0.265811903374265       0.282774616934510     
  0.299737330494756       0.316700044055001       0.333662757615247     
  0.350625471175493       0.367588184735738       0.384550898295984     
  0.401513611856230       0.418476325416475       0.435439038976721     
  0.279075396950371       0.296038110510616       0.313000824070862     
  0.329963537631107       0.346926251191353       0.363888964751599     
  0.380851678311844       0.397814391872090       0.414777105432335     
  0.431739818992581       0.448702532552827       0.289614849160359     
  0.306577562720604       0.323540276280851       0.340502989841096     
  0.357465703401341       0.374428416961587       0.391391130521832     
  0.408353844082078       0.425316557642324       0.442279271202569     
  0.459241984762815       0.297264046546915       0.314226760107160     
  0.331189473667406       0.348152187227651       0.365114900787897     
  0.382077614348143       0.399040327908388       0.416003041468634     
  0.432965755028879       0.449928468589125       0.466891182149371     
  0.301902356697842       0.318865070258088       0.335827783818333     
  0.352790497378579       0.369753210938824       0.386715924499070     
  0.403678638059316       0.420641351619561       0.437604065179807     
  0.454566778740052       0.471529492300298       0.303456630691269     
  0.320419344251515       0.337382057811761       0.354344771372006     
  0.371307484932252       0.388270198492497       0.405232912052743     
  0.422195625612989       0.439158339173234       0.456121052733480     
  0.473083766293726     
  3.960717710078315E-002  3.564645939070483E-002  3.168574168062652E-002
  2.772502397054821E-002  2.376430626046989E-002  1.980358855039158E-002
  1.584287084031326E-002  1.188215313023495E-002  7.921435420156629E-003
  3.960717710078312E-003  0.000000000000000E+000  3.960717710078315E-002
  3.564645939070483E-002  3.168574168062652E-002  2.772502397054821E-002
  2.376430626046989E-002  1.980358855039158E-002  1.584287084031326E-002
  1.188215313023495E-002  7.921435420156629E-003  3.960717710078312E-003
  0.000000000000000E+000  3.960717710078315E-002  3.564645939070483E-002
  3.168574168062652E-002  2.772502397054821E-002  2.376430626046989E-002
  1.980358855039158E-002  1.584287084031326E-002  1.188215313023495E-002
  7.921435420156629E-003  3.960717710078312E-003  0.000000000000000E+000
  3.960717710078315E-002  3.564645939070483E-002  3.168574168062652E-002
  2.772502397054821E-002  2.376430626046989E-002  1.980358855039158E-002
  1.584287084031326E-002  1.188215313023495E-002  7.921435420156629E-003
  3.960717710078312E-003  0.000000000000000E+000  3.960717710078315E-002
  3.564645939070483E-002  3.168574168062652E-002  2.772502397054821E-002
  2.376430626046989E-002  1.980358855039158E-002  1.584287084031326E-002
  1.188215313023495E-002  7.921435420156629E-003  3.960717710078312E-003
  0.000000000000000E+000  3.960717710078315E-002  3.564645939070483E-002
  3.168574168062652E-002  2.772502397054821E-002  2.376430626046989E-002
  1.980358855039158E-002  1.584287084031326E-002  1.188215313023495E-002
  7.921435420156629E-003  3.960717710078312E-003  0.000000000000000E+000
  3.960717710078315E-002  3.564645939070483E-002  3.168574168062652E-002
  2.772502397054821E-002  2.376430626046989E-002  1.980358855039158E-002
  1.584287084031326E-002  1.188215313023495E-002  7.921435420156629E-003
  3.960717710078312E-003  0.000000000000000E+000  3.960717710078315E-002
  3.564645939070483E-002  3.168574168062652E-002  2.772502397054821E-002
  2.376430626046989E-002  1.980358855039158E-002  1.584287084031326E-002
  1.188215313023495E-002  7.921435420156629E-003  3.960717710078312E-003
  0.000000000000000E+000  3.960717710078315E-002  3.564645939070483E-002
  3.168574168062652E-002  2.772502397054821E-002  2.376430626046989E-002
  1.980358855039158E-002  1.584287084031326E-002  1.188215313023495E-002
  7.921435420156629E-003  3.960717710078312E-003  0.000000000000000E+000
  3.960717710078315E-002  3.564645939070483E-002  3.168574168062652E-002
  2.772502397054821E-002  2.376430626046989E-002  1.980358855039158E-002
  1.584287084031326E-002  1.188215313023495E-002  7.921435420156629E-003
  3.960717710078312E-003  0.000000000000000E+000  3.960717710078315E-002
  3.564645939070483E-002  3.168574168062652E-002  2.772502397054821E-002
  2.376430626046989E-002  1.980358855039158E-002  1.584287084031326E-002
  1.188215313023495E-002  7.921435420156629E-003  3.960717710078312E-003
  0.000000000000000E+000  3.960717710078315E-002  3.564645939070483E-002
  3.168574168062652E-002  2.772502397054821E-002  2.376430626046989E-002
  1.980358855039158E-002  1.584287084031326E-002  1.188215313023495E-002
  7.921435420156629E-003  3.960717710078312E-003  0.000000000000000E+000
  3.960717710078315E-002  3.564645939070483E-002  3.168574168062652E-002
  2.772502397054821E-002  2.376430626046989E-002  1.980358855039158E-002
  1.584287084031326E-002  1.188215313023495E-002  7.921435420156629E-003
  3.960717710078312E-003  0.000000000000000E+000  3.960717710078315E-002
  3.564645939070483E-002  3.168574168062652E-002  2.772502397054821E-002
  2.376430626046989E-002  1.980358855039158E-002  1.584287084031326E-002
  1.188215313023495E-002  7.921435420156629E-003  3.960717710078312E-003
  0.000000000000000E+000  3.960717710078315E-002  3.564645939070483E-002
  3.168574168062652E-002  2.772502397054821E-002  2.376430626046989E-002
  1.980358855039158E-002  1.584287084031326E-002  1.188215313023495E-002
  7.921435420156629E-003  3.960717710078312E-003  0.000000000000000E+000
  3.960717710078315E-002  3.564645939070483E-002  3.168574168062652E-002
  2.772502397054821E-002  2.376430626046989E-002  1.980358855039158E-002
  1.584287084031326E-002  1.188215313023495E-002  7.921435420156629E-003
  3.960717710078312E-003  0.000000000000000E+000  3.960717710078315E-002
  3.564645939070483E-002  3.168574168062652E-002  2.772502397054821E-002
  2.376430626046989E-002  1.980358855039158E-002  1.584287084031326E-002
  1.188215313023495E-002  7.921435420156629E-003  3.960717710078312E-003
  0.000000000000000E+000  3.960717710078315E-002  3.564645939070483E-002
  3.168574168062652E-002  2.772502397054821E-002  2.376430626046989E-002
  1.980358855039158E-002  1.584287084031326E-002  1.188215313023495E-002
  7.921435420156629E-003  3.960717710078312E-003  0.000000000000000E+000
  3.960717710078315E-002  3.564645939070483E-002  3.168574168062652E-002
  2.772502397054821E-002  2.376430626046989E-002  1.980358855039158E-002
  1.584287084031326E-002  1.188215313023495E-002  7.921435420156629E-003
  3.960717710078312E-003  0.000000000000000E+000  3.960717710078315E-002
  3.564645939070483E-002  3.168574168062652E-002  2.772502397054821E-002
  2.376430626046989E-002  1.980358855039158E-002  1.584287084031326E-002
  1.188215313023495E-002  7.921435420156629E-003  3.960717710078312E-003
  0.000000000000000E+000  3.960717710078315E-002  3.564645939070483E-002
  3.168574168062652E-002  2.772502397054821E-002  2.376430626046989E-002
  1.980358855039158E-002  1.584287084031326E-002  1.188215313023495E-002
  7.921435420156629E-003  3.960717710078312E-003  0.000000000000000E+000
  3.960717710078315E-002  3.564645939070483E-002  3.168574168062652E-002
  2.772502397054821E-002  2.376430626046989E-002  1.980358855039158E-002
  1.584287084031326E-002  1.188215313023495E-002  7.921435420156629E-003
  3.960717710078312E-003  0.000000000000000E+000  3.960717710078315E-002
  3.564645939070483E-002  3.168574168062652E-002  2.772502397054821E-002
  2.376430626046989E-002  1.980358855039158E-002  1.584287084031326E-002
  1.188215313023495E-002  7.921435420156629E-003  3.960717710078312E-003
  0.000000000000000E+000  3.960717710078315E-002  3.564645939070483E-002
  3.168574168062652E-002  2.772502397054821E-002  2.376430626046989E-002
  1.980358855039158E-002  1.584287084031326E-002  1.188215313023495E-002
  7.921435420156629E-003  3.960717710078312E-003  0.000000000000000E+000
  3.960717710078315E-002  3.564645939070483E-002  3.168574168062652E-002
  2.772502397054821E-002  2.376430626046989E-002  1.980358855039158E-002
  1.584287084031326E-002  1.188215313023495E-002  7.921435420156629E-003
  3.960717710078312E-003  0.000000000000000E+000  3.960717710078315E-002
  3.564645939070483E-002  3.168574168062652E-002  2.772502397054821E-002
  2.376430626046989E-002  1.980358855039158E-002  1.584287084031326E-002
  1.188215313023495E-002  7.921435420156629E-003  3.960717710078312E-003
  0.000000000000000E+000
  0.117218632167003       0.158386330607844       0.184828106649084     
  0.204101351774738       0.218757218310580       0.229961332138597     
  0.238311372887559       0.244096303573109       0.247377703800285     
  0.247978552656016       0.196823666797655       0.270537773308228     
  0.317414954693787       0.351396806006232       0.377148738342729     
  0.396785250344884       0.411388290552591       0.421502791089011     
  0.427367664255614       0.429425214772225       0.271587175371469     
  0.383449880183170       0.454938143329926       0.506495953504568     
  0.545365493279095       0.574866767102971       0.596707788893063     
  0.611776879249906       0.620477920164717       0.622816234971795     
  0.341984352692402       0.491371849322432       0.589128988206399     
  0.660052346047615       0.713503671477624       0.753959551846247     
  0.783768957753285       0.804125246356158       0.815376646667723     
  0.817007452618716       0.412462184740332       0.598003089956568     
  0.721939750590087       0.812879475015060       0.881765819730413     
  0.933963817337649       0.972333854805291       0.998294725279441     
   1.01216430200228        1.01331177824818       0.485464216564369     
  0.706994112449194       0.856843184332859       0.967841445540364     
   1.05245626370809        1.11680518873118        1.16415851574206     
   1.19613100341715        1.21307695729150        1.21435122239503     
  0.562160693010590       0.820515797849288       0.996497530600410     
   1.12766315524806        1.22816994002782        1.30492945452297     
   1.36162894623619        1.40008862933481        1.42071196321593     
   1.42278857104094       0.642913205011553       0.939436678370830     
   1.14218828879853        1.29388665027191        1.41057050755976     
   1.50004222843167        1.56645466414459        1.61185533780735     
   1.63669102199754        1.64010584507877       0.727420720857733     
   1.06352655805583        1.29383073690614        1.46655995829690     
   1.59979113062270        1.70230439711028        1.77876770852582     
   1.83147913410046        1.86092377432119        1.86604155324753     
  0.814770223274926        1.19156185655638        1.45004791395810     
   1.64421209992055        1.79428092223386        1.91007571502158     
   1.99681771272822        2.05707542533054        2.09137395498474     
   2.09841725167246       0.903471661588312        1.32140313840761     
   1.60827363438370        1.82395760787790        1.99089436624771     
   2.11998474971612        2.21702857313047        2.28488094518190     
   2.32411375016942        2.33318625878562       0.991504210580208     
   1.45008244985179        1.76487604678482        2.00164751137911     
   2.18505947727563        2.32710492730086        2.43417490313273     
   2.50942322648065        2.55348023211815        2.56457282246349     
   1.07636826010901        1.57388953203436        1.91527252799486     
   2.17200713256192        2.37093193997310        2.52511777402074     
   2.64154684717917        2.72368041732255        2.77222517186716     
   2.78520881178780        1.15513126709742        1.68844037739791     
   2.05401430060170        2.32873209119536        2.54149808334849     
   2.70641864771898        2.83105480523411        2.91918173789921     
   2.97160790229171        2.98621728783052        1.22446395232530     
   1.78872433477996        2.17483719980486        2.46453879812880     
   2.68862284804710        2.86216121141642        2.99326992028371     
   3.08604330174841        3.14142551051593        3.15723614940524     
   1.28067214808600        1.86913747944999        2.27068877956754     
   2.57118326546304        2.80306086554266        2.98226268929175     
   3.11742615026365        3.21296921216198        3.27001454276927     
   3.28642044482290        1.31973483097998        1.92351657646761     
   2.33375021916571        2.63947290530899        2.87446477730389     
   3.05541626149738        3.19144356465035        3.28729064738196     
   3.34430695521381        3.36051292049542        1.33735866969186     
   1.94518594365436        2.35547033261111        2.65930071787618     
   2.89144036163436        3.06918814792782        3.20208212102149     
   3.29518203700929        3.35010352716035        3.36515687132975     
   1.32904613444967        1.92700824799246        2.32661211432145     
   2.61973243397094        2.84172657166832        3.01033316840044     
   3.13541606098033        3.22229376655959        3.27284114347263     
   3.28575064044349        1.29013900865913        1.86137590985610     
   2.23727985954266        2.50920026825872        2.71266228967375     
   2.86558864615126        2.97795681950218        3.05516571248932     
   3.09922967056550        3.10921583437228        1.21573175248889     
   1.74000708097540        2.07693333237709        2.31604108354374     
   2.49236750437305        2.62344872004885        2.71889010632924     
   2.78379358667500        2.82004199527404        2.82691062518034     
   1.10018861515817        1.55342994055312        1.83488084664657     
   2.03032932228908        2.17262833791702        2.27762657138409     
   2.35371603279861        2.40522871223573        2.43367987178128     
   2.43831642300342       0.935577563869712        1.29102810258461     
   1.50352740297179        1.64904347628241        1.75451116917927     
   1.83228121340594        1.88873901214363        1.92720572250367     
   1.94904602458945        1.95410282152518       0.709517514630434     
  0.948193402267019        1.08901539972745        1.18566225395525     
   1.25596575027333        1.30799097096127        1.34592527195202     
   1.37203984948864        1.38762228532744        1.39448452370270     
  0.430130908473807       0.563681013461323       0.643199760926753     
  0.698064887352162       0.738106466811966       0.767803059796363     
  0.789487583009425       0.804405800097376       0.813122063028412     
  0.815525607402934     
  0.000000000000000E+000  0.000000000000000E+000  0.000000000000000E+000
  0.000000000000000E+000  0.000000000000000E+000  0.000000000000000E+000
  0.000000000000000E+000  0.000000000000000E+000  0.000000000000000E+000
  0.000000000000000E+000  0.000000000000000E+000  0.000000000000000E+000
  0.000000000000000E+000  0.000000000000000E+000  0.000000000000000E+000
  0.000000000000000E+000  0.000000000000000E+000  0.000000000000000E+000
  0.000000000000000E+000  0.000000000000000E+000  0.000000000000000E+000
  0.000000000000000E+000  0.000000000000000E+000  0.000000000000000E+000
  0.000000000000000E+000  0.000000000000000E+000  0.000000000000000E+000
  0.000000000000000E+000  0.000000000000000E+000  0.000000000000000E+000
  0.000000000000000E+000  0.000000000000000E+000  0.000000000000000E+000
  0.000000000000000E+000  0.000000000000000E+000  0.000000000000000E+000
  0.000000000000000E+000  0.000000000000000E+000  0.000000000000000E+000
  0.000000000000000E+000  0.000000000000000E+000  0.000000000000000E+000
  0.000000000000000E+000  0.000000000000000E+000  0.000000000000000E+000
  0.000000000000000E+000  0.000000000000000E+000  0.000000000000000E+000
  0.000000000000000E+000  0.000000000000000E+000  0.000000000000000E+000
  0.000000000000000E+000  0.000000000000000E+000  0.000000000000000E+000
  0.000000000000000E+000  0.000000000000000E+000  0.000000000000000E+000
  0.000000000000000E+000  0.000000000000000E+000  0.000000000000000E+000
  0.000000000000000E+000  0.000000000000000E+000  0.000000000000000E+000
  0.000000000000000E+000  0.000000000000000E+000  0.000000000000000E+000
  0.000000000000000E+000  0.000000000000000E+000  0.000000000000000E+000
  0.000000000000000E+000  0.000000000000000E+000  0.000000000000000E+000
  0.000000000000000E+000  0.000000000000000E+000  0.000000000000000E+000
  0.000000000000000E+000  0.000000000000000E+000  0.000000000000000E+000
  0.000000000000000E+000  0.000000000000000E+000  0.000000000000000E+000
  0.000000000000000E+000  0.000000000000000E+000  0.000000000000000E+000
  0.000000000000000E+000  0.000000000000000E+000  0.000000000000000E+000
  0.000000000000000E+000  0.000000000000000E+000  0.000000000000000E+000
  0.000000000000000E+000  0.000000000000000E+000  0.000000000000000E+000
  0.000000000000000E+000  0.000000000000000E+000  0.000000000000000E+000
  0.000000000000000E+000  0.000000000000000E+000  0.000000000000000E+000
  0.000000000000000E+000  0.000000000000000E+000  0.000000000000000E+000
  0.000000000000000E+000  0.000000000000000E+000  0.000000000000000E+000
  0.000000000000000E+000  0.000000000000000E+000  0.000000000000000E+000
  0.000000000000000E+000  0.000000000000000E+000  0.000000000000000E+000
  0.000000000000000E+000  0.000000000000000E+000  0.000000000000000E+000
  0.000000000000000E+000  0.000000000000000E+000  0.000000000000000E+000