 Title = "Wing and Wake"
 VARIABLES = "X" "Y" "Z" "GAM" "skew"
 Zone I=   11 J=   26 K=1  T="Blade"
 DATAPACKING=BLOCK
 VARLOCATION=([4]=CELLCENTERED,[5]=CELLCENTERED)
  2.525046464696754E-002  1.075394573046154E-002 -3.742573186044320E-003
 -1.823909210255029E-002 -3.273561101905623E-002 -4.723212993556210E-002
 -6.172864885206810E-002 -7.622516776857405E-002 -9.072168668507997E-002
 -0.105218205601586      -0.119714724518092       2.289106502582733E-002
  8.394546109321346E-003 -6.101972807184540E-003 -2.059849172369053E-002
 -3.509501064019644E-002 -4.959152955670237E-002 -6.408804847320837E-002
 -7.858456738971427E-002 -9.308108630622021E-002 -0.107577605222726     
 -0.122074124139232       1.585007530386929E-002  1.353556387363415E-003
 -1.314296252914264E-002 -2.763948144564849E-002 -4.213600036215447E-002
 -5.663251927866046E-002 -7.112903819516637E-002 -8.562555711167237E-002
 -0.100122076028178      -0.114618594944684      -0.129115113861190     
  4.238536095091705E-003 -1.025798282141418E-002 -2.475450173792024E-002
 -3.925102065442607E-002 -5.374753957093201E-002 -6.824405848743799E-002
 -8.274057740394399E-002 -9.723709632044981E-002 -0.111733615236956     
 -0.126230134153462      -0.140726653069968      -1.176043169078519E-002
 -2.625695060729116E-002 -4.075346952379712E-002 -5.524998844030311E-002
 -6.974650735680911E-002 -8.424302627331497E-002 -9.873954518982099E-002
 -0.113236064106327      -0.127732583022833      -0.142229101939339     
 -0.156725620855845      -3.189451477445844E-002 -4.639103369096442E-002
 -6.088755260747026E-002 -7.538407152397626E-002 -8.988059044048226E-002
 -0.104377109356988      -0.118873628273494      -0.133370147190000     
 -0.147866666106506      -0.162363185023012      -0.176859703939518     
 -5.584618663818012E-002 -7.034270555468598E-002 -8.483922447119210E-002
 -9.933574338769795E-002 -0.113832262304204      -0.128328781220710     
 -0.142825300137216      -0.157321819053722      -0.171818337970228     
 -0.186314856886734      -0.200811375803239      -8.323771510862411E-002
 -9.773423402512996E-002 -0.112230752941636      -0.126727271858142     
 -0.141223790774648      -0.155720309691154      -0.170216828607660     
 -0.184713347524166      -0.199209866440672      -0.213706385357177     
 -0.228202904273684      -0.113637119418905      -0.128133638335411     
 -0.142630157251917      -0.157126676168423      -0.171623195084929     
 -0.186119714001435      -0.200616232917941      -0.215112751834447     
 -0.229609270750953      -0.244105789667459      -0.258602308583965     
 -0.146564982803327      -0.161061501719833      -0.175558020636339     
 -0.190054539552845      -0.204551058469351      -0.219047577385857     
 -0.233544096302363      -0.248040615218869      -0.262537134135375     
 -0.277033653051881      -0.291530171968387      -0.181502013186165     
 -0.195998532102671      -0.210495051019177      -0.224991569935683     
 -0.239488088852189      -0.253984607768695      -0.268481126685201     
 -0.282977645601707      -0.297474164518213      -0.311970683434719     
 -0.326467202351224      -0.217897232727911      -0.232393751644417     
 -0.246890270560923      -0.261386789477429      -0.275883308393935     
 -0.290379827310441      -0.304876346226947      -0.319372865143453     
 -0.333869384059959      -0.348365902976465      -0.362862421892971     
 -0.255176667074941      -0.269673185991448      -0.284169704907954     
 -0.298666223824459      -0.313162742740966      -0.327659261657471     
 -0.342155780573977      -0.356652299490483      -0.371148818406989     
 -0.385645337323495      -0.400141856240001      -0.292752397277950     
 -0.307248916194456      -0.321745435110961      -0.336241954027468     
 -0.350738472943974      -0.365234991860479      -0.379731510776986     
 -0.394228029693491      -0.408724548609997      -0.423221067526503     
 -0.437717586443009      -0.330031831624980      -0.344528350541486     
 -0.359024869457992      -0.373521388374498      -0.388017907291004     
 -0.402514426207510      -0.417010945124016      -0.431507464040522     
 -0.446003982957028      -0.460500501873534      -0.474997020790040     
 -0.366427051166726      -0.380923570083232      -0.395420088999738     
 -0.409916607916244      -0.424413126832750      -0.438909645749256     
 -0.453406164665762      -0.467902683582268      -0.482399202498774     
 -0.496895721415280      -0.511392240331786      -0.401364081549564     
 -0.415860600466070      -0.430357119382576      -0.444853638299082     
 -0.459350157215588      -0.473846676132094      -0.488343195048600     
 -0.502839713965106      -0.517336232881612      -0.531832751798118     
 -0.546329270714624      -0.434291944933986      -0.448788463850492     
 -0.463284982766998      -0.477781501683504      -0.492278020600010     
 -0.506774539516515      -0.521271058433022      -0.535767577349528     
 -0.550264096266033      -0.564760615182539      -0.579257134099045     
 -0.464691349244267      -0.479187868160773      -0.493684387077279     
 -0.508180905993785      -0.522677424910291      -0.537173943826797     
 -0.551670462743303      -0.566166981659809      -0.580663500576315     
 -0.595160019492821      -0.609656538409327      -0.492082877714711     
 -0.506579396631217      -0.521075915547723      -0.535572434464229     
 -0.550068953380735      -0.564565472297241      -0.579061991213747     
 -0.593558510130253      -0.608055029046759      -0.622551547963265     
 -0.637048066879771      -0.516034549578433      -0.530531068494939     
 -0.545027587411445      -0.559524106327950      -0.574020625244457     
 -0.588517144160963      -0.603013663077469      -0.617510181993974     
 -0.632006700910480      -0.646503219826986      -0.660999738743492     
 -0.536168632662106      -0.550665151578612      -0.565161670495118     
 -0.579658189411624      -0.594154708328130      -0.608651227244636     
 -0.623147746161142      -0.637644265077647      -0.652140783994154     
 -0.666637302910660      -0.681133821827166      -0.552167600447984     
 -0.566664119364489      -0.581160638280995      -0.595657157197502     
 -0.610153676114007      -0.624650195030513      -0.639146713947019     
 -0.653643232863525      -0.668139751780031      -0.682636270696537     
 -0.697132789613043      -0.563779139656761      -0.578275658573266     
 -0.592772177489773      -0.607268696406278      -0.621765215322784     
 -0.636261734239290      -0.650758253155796      -0.665254772072302     
 -0.679751290988808      -0.694247809905314      -0.708744328821821     
 -0.570820129378719      -0.585316648295224      -0.599813167211730     
 -0.614309686128236      -0.628806205044742      -0.643302723961249     
 -0.657799242877754      -0.672295761794260      -0.686792280710766     
 -0.701288799627272      -0.715785318543778      -0.573179528999858     
 -0.587676047916365      -0.602172566832870      -0.616669085749377     
 -0.631165604665883      -0.645662123582389      -0.660158642498895     
 -0.674655161415401      -0.689151680331906      -0.703648199248412     
 -0.718144718164919     
 -0.265308693994052      -0.253601168443174      -0.241893642892296     
 -0.230186117341418      -0.218478591790540      -0.206771066239663     
 -0.195063540688785      -0.183356015137907      -0.171648489587029     
 -0.159940964036151      -0.148233438485273      -0.268230155159421     
 -0.256522629608543      -0.244815104057665      -0.233107578506788     
 -0.221400052955910      -0.209692527405032      -0.197985001854154     
 -0.186277476303276      -0.174569950752398      -0.162862425201521     
 -0.151154899650643      -0.276948465467754      -0.265240939916876     
 -0.253533414365998      -0.241825888815120      -0.230118363264243     
 -0.218410837713365      -0.206703312162487      -0.194995786611609     
 -0.183288261060731      -0.171580735509853      -0.159873209958976     
 -0.291326131957422      -0.279618606406545      -0.267911080855667     
 -0.256203555304789      -0.244496029753911      -0.232788504203033     
 -0.221080978652155      -0.209373453101278      -0.197665927550400     
 -0.185958401999522      -0.174250876448644      -0.311136410239082     
 -0.299428884688205      -0.287721359137327      -0.276013833586449     
 -0.264306308035571      -0.252598782484693      -0.240891256933815     
 -0.229183731382937      -0.217476205832060      -0.205768680281182     
 -0.194061154730304      -0.336066880390146      -0.324359354839268     
 -0.312651829288390      -0.300944303737512      -0.289236778186634     
 -0.277529252635756      -0.265821727084879      -0.254114201534001     
 -0.242406675983123      -0.230699150432245      -0.218991624881367     
 -0.365724374003589      -0.354016848452711      -0.342309322901834     
 -0.330601797350956      -0.318894271800078      -0.307186746249200     
 -0.295479220698322      -0.283771695147444      -0.272064169596566     
 -0.260356644045688      -0.248649118494811      -0.399641174688601     
 -0.387933649137722      -0.376226123586845      -0.364518598035967     
 -0.352811072485089      -0.341103546934211      -0.329396021383334     
 -0.317688495832456      -0.305980970281578      -0.294273444730700     
 -0.282565919179822      -0.437282394237463      -0.425574868686585     
 -0.413867343135707      -0.402159817584829      -0.390452292033951     
 -0.378744766483074      -0.367037240932196      -0.355329715381318     
 -0.343622189830440      -0.331914664279562      -0.320207138728684     
 -0.478054408132116      -0.466346882581238      -0.454639357030360     
 -0.442931831479482      -0.431224305928604      -0.419516780377727     
 -0.407809254826848      -0.396101729275971      -0.384394203725093     
 -0.372686678174215      -0.360979152623337      -0.521314217357420     
 -0.509606691806542      -0.497899166255664      -0.486191640704786     
 -0.474484115153909      -0.462776589603031      -0.451069064052153     
 -0.439361538501275      -0.427654012950397      -0.415946487399520     
 -0.404238961848641      -0.566379588879735      -0.554672063328857     
 -0.542964537777979      -0.531257012227102      -0.519549486676224     
 -0.507841961125346      -0.496134435574468      -0.484426910023590     
 -0.472719384472713      -0.461011858921835      -0.449304333370957     
 -0.612539814869406      -0.600832289318528      -0.589124763767651     
 -0.577417238216773      -0.565709712665895      -0.554002187115017     
 -0.542294661564139      -0.530587136013262      -0.518879610462384     
 -0.507172084911506      -0.495464559360628      -0.659066920987794     
 -0.647359395436916      -0.635651869886039      -0.623944344335161     
 -0.612236818784283      -0.600529293233404      -0.588821767682527     
 -0.577114242131649      -0.565406716580771      -0.553699191029894     
 -0.541991665479016      -0.705227146977465      -0.693519621426588     
 -0.681812095875710      -0.670104570324832      -0.658397044773954     
 -0.646689519223076      -0.634981993672198      -0.623274468121320     
 -0.611566942570443      -0.599859417019565      -0.588151891468687     
 -0.750292518499780      -0.738584992948903      -0.726877467398025     
 -0.715169941847147      -0.703462416296269      -0.691754890745392     
 -0.680047365194514      -0.668339839643636      -0.656632314092758     
 -0.644924788541880      -0.633217262991002      -0.793552327725085     
 -0.781844802174207      -0.770137276623329      -0.758429751072452     
 -0.746722225521573      -0.735014699970696      -0.723307174419818     
 -0.711599648868940      -0.699892123318062      -0.688184597767184     
 -0.676477072216306      -0.834324341619738      -0.822616816068860     
 -0.810909290517982      -0.799201764967104      -0.787494239416226     
 -0.775786713865348      -0.764079188314471      -0.752371662763593     
 -0.740664137212715      -0.728956611661837      -0.717249086110959     
 -0.871965561168600      -0.860258035617722      -0.848550510066844     
 -0.836842984515967      -0.825135458965089      -0.813427933414211     
 -0.801720407863333      -0.790012882312455      -0.778305356761577     
 -0.766597831210699      -0.754890305659822      -0.905882361853612     
 -0.894174836302734      -0.882467310751855      -0.870759785200978     
 -0.859052259650100      -0.847344734099222      -0.835637208548345     
 -0.823929682997467      -0.812222157446589      -0.800514631895711     
 -0.788807106344833      -0.935539855467055      -0.923832329916177     
 -0.912124804365299      -0.900417278814421      -0.888709753263544     
 -0.877002227712666      -0.865294702161788      -0.853587176610910     
 -0.841879651060032      -0.830172125509154      -0.818464599958276     
 -0.960470325618119      -0.948762800067240      -0.937055274516362     
 -0.925347748965484      -0.913640223414607      -0.901932697863729     
 -0.890225172312851      -0.878517646761973      -0.866810121211095     
 -0.855102595660218      -0.843395070109340      -0.980280603899778     
 -0.968573078348900      -0.956865552798023      -0.945158027247145     
 -0.933450501696267      -0.921742976145389      -0.910035450594511     
 -0.898327925043633      -0.886620399492755      -0.874912873941878     
 -0.863205348390999      -0.994658270389447      -0.982950744838569     
 -0.971243219287691      -0.959535693736813      -0.947828168185935     
 -0.936120642635057      -0.924413117084180      -0.912705591533302     
 -0.900998065982424      -0.889290540431546      -0.877583014880669     
  -1.00337658069778      -0.991669055146901      -0.979961529596024     
 -0.968254004045146      -0.956546478494268      -0.944838952943390     
 -0.933131427392513      -0.921423901841634      -0.909716376290757     
 -0.898008850739878      -0.886301325189001       -1.00629804186315     
 -0.994590516312271      -0.982882990761393      -0.971175465210515     
 -0.959467939659637      -0.947760414108759      -0.936052888557881     
 -0.924345363007004      -0.912637837456126      -0.900930311905248     
 -0.889222786354371     
  3.960717710078315E-002  3.564645939070483E-002  3.168574168062652E-002
  2.772502397054821E-002  2.376430626046989E-002  1.980358855039158E-002
  1.584287084031326E-002  1.188215313023495E-002  7.921435420156629E-003
  3.960717710078312E-003  0.000000000000000E+000  3.960717710078315E-002
  3.564645939070483E-002  3.168574168062652E-002  2.772502397054821E-002
  2.376430626046989E-002  1.980358855039158E-002  1.584287084031326E-002
  1.188215313023495E-002  7.921435420156629E-003  3.960717710078312E-003
  0.000000000000000E+000  3.960717710078315E-002  3.564645939070483E-002
  3.168574168062652E-002  2.772502397054821E-002  2.376430626046989E-002
  1.980358855039158E-002  1.584287084031326E-002  1.188215313023495E-002
  7.921435420156629E-003  3.960717710078312E-003  0.000000000000000E+000
  3.960717710078315E-002  3.564645939070483E-002  3.168574168062652E-002
  2.772502397054821E-002  2.376430626046989E-002  1.980358855039158E-002
  1.584287084031326E-002  1.188215313023495E-002  7.921435420156629E-003
  3.960717710078312E-003  0.000000000000000E+000  3.960717710078315E-002
  3.564645939070483E-002  3.168574168062652E-002  2.772502397054821E-002
  2.376430626046989E-002  1.980358855039158E-002  1.584287084031326E-002
  1.188215313023495E-002  7.921435420156629E-003  3.960717710078312E-003
  0.000000000000000E+000  3.960717710078315E-002  3.564645939070483E-002
  3.168574168062652E-002  2.772502397054821E-002  2.376430626046989E-002
  1.980358855039158E-002  1.584287084031326E-002  1.188215313023495E-002
  7.921435420156629E-003  3.960717710078312E-003  0.000000000000000E+000
  3.960717710078315E-002  3.564645939070483E-002  3.168574168062652E-002
  2.772502397054821E-002  2.376430626046989E-002  1.980358855039158E-002
  1.584287084031326E-002  1.188215313023495E-002  7.921435420156629E-003
  3.960717710078312E-003  0.000000000000000E+000  3.960717710078315E-002
  3.564645939070483E-002  3.168574168062652E-002  2.772502397054821E-002
  2.376430626046989E-002  1.980358855039158E-002  1.584287084031326E-002
  1.188215313023495E-002  7.921435420156629E-003  3.960717710078312E-003
  0.000000000000000E+000  3.960717710078315E-002  3.564645939070483E-002
  3.168574168062652E-002  2.772502397054821E-002  2.376430626046989E-002
  1.980358855039158E-002  1.584287084031326E-002  1.188215313023495E-002
  7.921435420156629E-003  3.960717710078312E-003  0.000000000000000E+000
  3.960717710078315E-002  3.564645939070483E-002  3.168574168062652E-002
  2.772502397054821E-002  2.376430626046989E-002  1.980358855039158E-002
  1.584287084031326E-002  1.188215313023495E-002  7.921435420156629E-003
  3.960717710078312E-003  0.000000000000000E+000  3.960717710078315E-002
  3.564645939070483E-002  3.168574168062652E-002  2.772502397054821E-002
  2.376430626046989E-002  1.980358855039158E-002  1.584287084031326E-002
  1.188215313023495E-002  7.921435420156629E-003  3.960717710078312E-003
  0.000000000000000E+000  3.960717710078315E-002  3.564645939070483E-002
  3.168574168062652E-002  2.772502397054821E-002  2.376430626046989E-002
  1.980358855039158E-002  1.584287084031326E-002  1.188215313023495E-002
  7.921435420156629E-003  3.960717710078312E-003  0.000000000000000E+000
  3.960717710078315E-002  3.564645939070483E-002  3.168574168062652E-002
  2.772502397054821E-002  2.376430626046989E-002  1.980358855039158E-002
  1.584287084031326E-002  1.188215313023495E-002  7.921435420156629E-003
  3.960717710078312E-003  0.000000000000000E+000  3.960717710078315E-002
  3.564645939070483E-002  3.168574168062652E-002  2.772502397054821E-002
  2.376430626046989E-002  1.980358855039158E-002  1.584287084031326E-002
  1.188215313023495E-002  7.921435420156629E-003  3.960717710078312E-003
  0.000000000000000E+000  3.960717710078315E-002  3.564645939070483E-002
  3.168574168062652E-002  2.772502397054821E-002  2.376430626046989E-002
  1.980358855039158E-002  1.584287084031326E-002  1.188215313023495E-002
  7.921435420156629E-003  3.960717710078312E-003  0.000000000000000E+000
  3.960717710078315E-002  3.564645939070483E-002  3.168574168062652E-002
  2.772502397054821E-002  2.376430626046989E-002  1.980358855039158E-002
  1.584287084031326E-002  1.188215313023495E-002  7.921435420156629E-003
  3.960717710078312E-003  0.000000000000000E+000  3.960717710078315E-002
  3.564645939070483E-002  3.168574168062652E-002  2.772502397054821E-002
  2.376430626046989E-002  1.980358855039158E-002  1.584287084031326E-002
  1.188215313023495E-002  7.921435420156629E-003  3.960717710078312E-003
  0.000000000000000E+000  3.960717710078315E-002  3.564645939070483E-002
  3.168574168062652E-002  2.772502397054821E-002  2.376430626046989E-002
  1.980358855039158E-002  1.584287084031326E-002  1.188215313023495E-002
  7.921435420156629E-003  3.960717710078312E-003  0.000000000000000E+000
  3.960717710078315E-002  3.564645939070483E-002  3.168574168062652E-002
  2.772502397054821E-002  2.376430626046989E-002  1.980358855039158E-002
  1.584287084031326E-002  1.188215313023495E-002  7.921435420156629E-003
  3.960717710078312E-003  0.000000000000000E+000  3.960717710078315E-002
  3.564645939070483E-002  3.168574168062652E-002  2.772502397054821E-002
  2.376430626046989E-002  1.980358855039158E-002  1.584287084031326E-002
  1.188215313023495E-002  7.921435420156629E-003  3.960717710078312E-003
  0.000000000000000E+000  3.960717710078315E-002  3.564645939070483E-002
  3.168574168062652E-002  2.772502397054821E-002  2.376430626046989E-002
  1.980358855039158E-002  1.584287084031326E-002  1.188215313023495E-002
  7.921435420156629E-003  3.960717710078312E-003  0.000000000000000E+000
  3.960717710078315E-002  3.564645939070483E-002  3.168574168062652E-002
  2.772502397054821E-002  2.376430626046989E-002  1.980358855039158E-002
  1.584287084031326E-002  1.188215313023495E-002  7.921435420156629E-003
  3.960717710078312E-003  0.000000000000000E+000  3.960717710078315E-002
  3.564645939070483E-002  3.168574168062652E-002  2.772502397054821E-002
  2.376430626046989E-002  1.980358855039158E-002  1.584287084031326E-002
  1.188215313023495E-002  7.921435420156629E-003  3.960717710078312E-003
  0.000000000000000E+000  3.960717710078315E-002  3.564645939070483E-002
  3.168574168062652E-002  2.772502397054821E-002  2.376430626046989E-002
  1.980358855039158E-002  1.584287084031326E-002  1.188215313023495E-002
  7.921435420156629E-003  3.960717710078312E-003  0.000000000000000E+000
  3.960717710078315E-002  3.564645939070483E-002  3.168574168062652E-002
  2.772502397054821E-002  2.376430626046989E-002  1.980358855039158E-002
  1.584287084031326E-002  1.188215313023495E-002  7.921435420156629E-003
  3.960717710078312E-003  0.000000000000000E+000  3.960717710078315E-002
  3.564645939070483E-002  3.168574168062652E-002  2.772502397054821E-002
  2.376430626046989E-002  1.980358855039158E-002  1.584287084031326E-002
  1.188215313023495E-002  7.921435420156629E-003  3.960717710078312E-003
  0.000000000000000E+000
  0.222598028648854       0.298968636964217       0.347198944991676     
  0.382204393188430       0.409194254978210       0.430593357367352     
  0.447668334259649       0.461078938245362       0.471036742262867     
  0.477007817160806       0.372582951706894       0.509143144141497     
  0.594632978472484       0.656410057536202       0.703895876540798     
  0.741439729183709       0.771311883432536       0.794731284705326     
  0.812288198330323       0.824345473851475       0.509659741347359     
  0.715862616665225       0.846086575445172       0.939981715179027     
   1.01185871125003        1.06838617067437        1.11306718206047     
   1.14777866526300        1.17329378945049        1.18871775349591     
  0.632785559639434       0.905703351978625        1.08320254687821     
   1.21245906648565        1.31150827878246        1.38908312570950     
   1.44984772823847        1.49624167643688        1.52893299533337     
   1.54588492330435       0.749528941511357        1.08451959950602     
   1.30817233333620        1.47351099917956        1.60103553419316     
   1.70091177376323        1.77865067547372        1.83706365537229     
   1.87671833217450        1.89514015338678       0.865186793982659     
   1.25964828575054        1.52753139970560        1.72802005627664     
   1.88378832130684        2.00609889111516        2.10108337405748     
   2.17180681209400        2.21877423882497        2.23932411952870     
  0.983039587117954        1.43619135642569        1.74701328060892     
   1.98152140949082        2.16476983866731        2.30912113681776     
   2.42125506057390        2.50446799988026        2.55927711687727     
   2.58285963106741        1.10458854643789        1.61679903348935     
   1.97008186670872        2.23791013300612        2.44800291648918     
   2.61394796759004        2.74303328999732        2.83883920705138     
   2.90192875614806        2.92923832502709        1.22994727830116     
   1.80204018284744        2.19778963116028        2.49862413484696     
   2.73516303153496        2.92234943771751        3.06817386392879     
   3.17657818128537        3.24818190838013        3.27960347717911     
   1.35811718498137        1.99072345284554        2.42895026577907     
   2.76252453973154        3.02513566365949        3.23320327484688     
   3.39549923338156        3.51635238631221        3.59646286471056     
   3.63214207505071        1.48712046217154        2.18009393312647     
   2.66034697035738        3.02608159799696        3.31415194056001     
   3.54251410945691        3.72077535213109        3.85369891446575     
   3.94208699680968        3.98195516075947        1.61410530165502     
   2.36602193653149        2.88698558267543        3.28363880747709     
   3.59601951538899        3.84365221856959        4.03699798863541     
   4.18126734123234        4.27740890222356        4.32120434388376     
   1.73544688518755        2.54316011682276        3.10229746223982     
   3.52767426947202        3.86243705948561        4.12765572955501     
   4.33464854753224        4.48909458435072        4.59212463138455     
   4.63936050152675        1.84683429418220        2.70508845327693     
   3.29832684468649        3.74899875741069        4.10318761989450     
   4.38344950855675        4.60194779822147        4.76483982176495     
   4.87347033482994        4.92340502087603        1.94334804713657     
   2.84441417227770        3.46584229987460        3.93688626789571     
   4.30629329141879        4.59800036908408        4.82498551919243     
   4.99389694842028        5.10634261468178        5.15795498438141     
   2.01952606063722        2.95285563865904        3.59442487729324     
   4.07916040981965        4.45809486360554        4.75639562956695     
   4.98780600316299        5.15948166714376        5.27336520098563     
   5.32531944730401        2.06944230570083        3.02132759188460     
   3.67254304087052        4.16225556995449        4.54331544049598     
   4.84192817531255        5.07253062876557        5.24279111107600     
   5.35507103745160        5.40567133453220        2.08680439110634     
   3.04003661338867        3.68764024365169        4.17131577832107     
   4.54519056421751        4.83629173030110        5.05965047187013     
   5.22341833579835        5.33043266760924        5.37765577638797     
   2.06506008942864        2.99856494283695        3.62621723727911     
   4.09035094038746        4.44578386341504        4.72010518853617     
   4.92878626310678        5.08035732795167        5.17809883941286     
   5.21979324314502        1.99742850288230        2.88581064252988     
   3.47382640529316        3.90248885918346        4.22666865290441     
   4.47412567368587        4.66043129436496        4.79419571903010     
   4.87892964893147        4.91322535938439        1.87667735322635     
   2.68954366341112        3.21493049444748        3.59062256263343     
   3.87056078058506        4.08180149338313        4.23925818616482     
   4.35100582580182        4.42030385149166        4.44625183374351     
   1.69432674312538        2.39549479046419        2.83347241753871     
   3.13996185946570        3.36541289316906        3.53420515400281     
   3.65930852881796        3.74751073971749        3.80137723122628     
   3.81999778922545        1.43828147121426        1.98743338934248     
   2.31780812145594        2.54584129131268        2.71283012156134     
   2.83774023050200        2.93041209351521        2.99600991572892     
   3.03675097574239        3.05253792900252        1.08952307472725     
   1.45812985402776        1.67705690819548        1.82851727916678     
   1.93983954155681        2.02340323872316        2.08565618864538     
   2.13013347207953        2.15892697129381        2.17502806610174     
  0.660212473631390       0.866485059349040       0.990127712436541     
   1.07612648367977        1.13954479797963        1.18725586183093     
   1.22285365944839        1.24828550503085        1.26448732428757     
   1.27135253107163     
  0.000000000000000E+000  0.000000000000000E+000  0.000000000000000E+000
  0.000000000000000E+000  0.000000000000000E+000  0.000000000000000E+000
  0.000000000000000E+000  0.000000000000000E+000  0.000000000000000E+000
  0.000000000000000E+000  0.000000000000000E+000  0.000000000000000E+000
  0.000000000000000E+000  0.000000000000000E+000  0.000000000000000E+000
  0.000000000000000E+000  0.000000000000000E+000  0.000000000000000E+000
  0.000000000000000E+000  0.000000000000000E+000  0.000000000000000E+000
  0.000000000000000E+000  0.000000000000000E+000  0.000000000000000E+000
  0.000000000000000E+000  0.000000000000000E+000  0.000000000000000E+000
  0.000000000000000E+000  0.000000000000000E+000  0.000000000000000E+000
  0.000000000000000E+000  0.000000000000000E+000  0.000000000000000E+000
  0.000000000000000E+000  0.000000000000000E+000  0.000000000000000E+000
  0.000000000000000E+000  0.000000000000000E+000  0.000000000000000E+000
  0.000000000000000E+000  0.000000000000000E+000  0.000000000000000E+000
  0.000000000000000E+000  0.000000000000000E+000  0.000000000000000E+000
  0.000000000000000E+000  0.000000000000000E+000  0.000000000000000E+000
  0.000000000000000E+000  0.000000000000000E+000  0.000000000000000E+000
  0.000000000000000E+000  0.000000000000000E+000  0.000000000000000E+000
  0.000000000000000E+000  0.000000000000000E+000  0.000000000000000E+000
  0.000000000000000E+000  0.000000000000000E+000  0.000000000000000E+000
  0.000000000000000E+000  0.000000000000000E+000  0.000000000000000E+000
  0.000000000000000E+000  0.000000000000000E+000  0.000000000000000E+000
  0.000000000000000E+000  0.000000000000000E+000  0.000000000000000E+000
  0.000000000000000E+000  0.000000000000000E+000  0.000000000000000E+000
  0.000000000000000E+000  0.000000000000000E+000  0.000000000000000E+000
  0.000000000000000E+000  0.000000000000000E+000  0.000000000000000E+000
  0.000000000000000E+000  0.000000000000000E+000  0.000000000000000E+000
  0.000000000000000E+000  0.000000000000000E+000  0.000000000000000E+000
  0.000000000000000E+000  0.000000000000000E+000  0.000000000000000E+000
  0.000000000000000E+000  0.000000000000000E+000  0.000000000000000E+000
  0.000000000000000E+000  0.000000000000000E+000  0.000000000000000E+000
  0.000000000000000E+000  0.000000000000000E+000  0.000000000000000E+000
  0.000000000000000E+000  0.000000000000000E+000  0.000000000000000E+000
  0.000000000000000E+000  0.000000000000000E+000  0.000000000000000E+000
  0.000000000000000E+000  0.000000000000000E+000  0.000000000000000E+000
  0.000000000000000E+000  0.000000000000000E+000  0.000000000000000E+000
  0.000000000000000E+000  0.000000000000000E+000  0.000000000000000E+000
  0.000000000000000E+000  0.000000000000000E+000  0.000000000000000E+000
  0.000000000000000E+000  0.000000000000000E+000  0.000000000000000E+000