 Title = "Wing and Wake"
 VARIABLES = "X" "Y" "Z" "GAM" "skew"
 Zone I=   11 J=   26 K=1  T="Blade"
 DATAPACKING=BLOCK
 VARLOCATION=([4]=CELLCENTERED,[5]=CELLCENTERED)
 -0.182716307820448      -0.183482377850090      -0.184248447879732     
 -0.185014517909374      -0.185780587939016      -0.186546657968658     
 -0.187312727998300      -0.188078798027942      -0.188844868057584     
 -0.189610938087226      -0.190377008116868      -0.186468356222455     
 -0.187234426252097      -0.188000496281738      -0.188766566311381     
 -0.189532636341022      -0.190298706370664      -0.191064776400306     
 -0.191830846429948      -0.192596916459590      -0.193362986489232     
 -0.194129056518874      -0.197665329383809      -0.198431399413451     
 -0.199197469443093      -0.199963539472735      -0.200729609502376     
 -0.201495679532019      -0.202261749561661      -0.203027819591303     
 -0.203793889620944      -0.204559959650586      -0.205326029680228     
 -0.216130644349010      -0.216896714378651      -0.217662784408294     
 -0.218428854437936      -0.219194924467577      -0.219960994497219     
 -0.220727064526861      -0.221493134556503      -0.222259204586145     
 -0.223025274615787      -0.223791344645428      -0.241573092070409     
 -0.242339162100051      -0.243105232129693      -0.243871302159336     
 -0.244637372188977      -0.245403442218620      -0.246169512248262     
 -0.246935582277903      -0.247701652307545      -0.248467722337187     
 -0.249233792366829      -0.273591429948862      -0.274357499978505     
 -0.275123570008146      -0.275889640037788      -0.276655710067430     
 -0.277421780097073      -0.278187850126714      -0.278953920156356     
 -0.279719990185998      -0.280486060215640      -0.281252130245282     
 -0.311680709669195      -0.312446779698838      -0.313212849728480     
 -0.313978919758122      -0.314744989787763      -0.315511059817406     
 -0.316277129847048      -0.317043199876689      -0.317809269906331     
 -0.318575339935972      -0.319341409965614      -0.355240240536788     
 -0.356006310566429      -0.356772380596072      -0.357538450625714     
 -0.358304520655356      -0.359070590684997      -0.359836660714640     
 -0.360602730744282      -0.361368800773923      -0.362134870803565     
 -0.362900940833208      -0.403583062728655      -0.404349132758297     
 -0.405115202787938      -0.405881272817581      -0.406647342847223     
 -0.407413412876864      -0.408179482906505      -0.408945552936148     
 -0.409711622965790      -0.410477692995432      -0.411243763025074     
 -0.455946781060227      -0.456712851089869      -0.457478921119511     
 -0.458244991149153      -0.459011061178795      -0.459777131208436     
 -0.460543201238079      -0.461309271267721      -0.462075341297362     
 -0.462841411327004      -0.463607481356646      -0.511505588412849     
 -0.512271658442491      -0.513037728472132      -0.513803798501774     
 -0.514569868531416      -0.515335938561059      -0.516102008590698     
 -0.516868078620342      -0.517634148649983      -0.518400218679625     
 -0.519166288709267      -0.569383289205344      -0.570149359234985     
 -0.570915429264629      -0.571681499294268      -0.572447569323911     
 -0.573213639353554      -0.573979709383196      -0.574745779412837     
 -0.575511849442479      -0.576277919472120      -0.577043989501762     
 -0.628667117521755      -0.629433187551396      -0.630199257581037     
 -0.630965327610680      -0.631731397640322      -0.632497467669963     
 -0.633263537699606      -0.634029607729248      -0.634795677758890     
 -0.635561747788531      -0.636327817818173      -0.688422131975087     
 -0.689188202004728      -0.689954272034369      -0.690720342064011     
 -0.691486412093653      -0.692252482123296      -0.693018552152938     
 -0.693784622182578      -0.694550692212224      -0.695316762241863     
 -0.696082832271505      -0.747705960291495      -0.748472030321137     
 -0.749238100350780      -0.750004170380420      -0.750770240410063     
 -0.751536310439707      -0.752302380469347      -0.753068450498990     
 -0.753834520528630      -0.754600590558271      -0.755366660587916     
 -0.805583661083991      -0.806349731113633      -0.807115801143276     
 -0.807881871172917      -0.808647941202560      -0.809414011232202     
 -0.810180081261842      -0.810946151291485      -0.811712221321126     
 -0.812478291350767      -0.813244361380412      -0.861142468436613     
 -0.861908538466254      -0.862674608495895      -0.863440678525539     
 -0.864206748555180      -0.864972818584822      -0.865738888614464     
 -0.866504958644107      -0.867271028673748      -0.868037098703391     
 -0.868803168733033      -0.913506186768185      -0.914272256797827     
 -0.915038326827469      -0.915804396857111      -0.916570466886753     
 -0.917336536916396      -0.918102606946037      -0.918868676975678     
 -0.919634747005320      -0.920400817034962      -0.921166887064603     
 -0.961849008960050      -0.962615078989692      -0.963381149019335     
 -0.964147219048977      -0.964913289078619      -0.965679359108262     
 -0.966445429137901      -0.967211499167545      -0.967977569197188     
 -0.968743639226828      -0.969509709256469       -1.00540853982764     
  -1.00617460985729       -1.00694067988693       -1.00770674991657     
  -1.00847281994621       -1.00923888997585       -1.01000496000550     
  -1.01077103003514       -1.01153710006478       -1.01230317009442     
  -1.01306924012406       -1.04349781954798       -1.04426388957762     
  -1.04502995960726       -1.04579602963690       -1.04656209966654     
  -1.04732816969619       -1.04809423972583       -1.04886030975547     
  -1.04962637978511       -1.05039244981475       -1.05115851984439     
  -1.07551615742643       -1.07628222745607       -1.07704829748571     
  -1.07781436751535       -1.07858043754500       -1.07934650757464     
  -1.08011257760428       -1.08087864763392       -1.08164471766357     
  -1.08241078769321       -1.08317685772285       -1.10095860514783     
  -1.10172467517747       -1.10249074520711       -1.10325681523676     
  -1.10402288526640       -1.10478895529604       -1.10555502532568     
  -1.10632109535533       -1.10708716538497       -1.10785323541461     
  -1.10861930544425       -1.11942392011303       -1.12018999014267     
  -1.12095606017231       -1.12172213020196       -1.12248820023160     
  -1.12325427026124       -1.12402034029088       -1.12478641032052     
  -1.12555248035016       -1.12631855037981       -1.12708462040945     
  -1.13062089327438       -1.13138696330403       -1.13215303333367     
  -1.13291910336331       -1.13368517339295       -1.13445124342259     
  -1.13521731345224       -1.13598338348188       -1.13674945351152     
  -1.13751552354116       -1.13828159357080       -1.13437294167639     
  -1.13513901170603       -1.13590508173568       -1.13667115176532     
  -1.13743722179496       -1.13820329182460       -1.13896936185424     
  -1.13973543188388       -1.14050150191353       -1.14126757194317     
  -1.14203364197281     
 -0.194012989075936      -0.175395031295053      -0.156777073514170     
 -0.138159115733286      -0.119541157952403      -0.100923200171520     
 -8.230524239063641E-002 -6.368728460975315E-002 -4.506932682887024E-002
 -2.645136904798666E-002 -7.833411267103543E-003 -0.194167373990993     
 -0.175549416210110      -0.156931458429227      -0.138313500648344     
 -0.119695542867460      -0.101077585086577      -8.245962730569364E-002
 -6.384166952481068E-002 -4.522371174392743E-002 -2.660575396304431E-002
 -7.987796182160794E-003 -0.194628093993830      -0.176010136212947     
 -0.157392178432063      -0.138774220651180      -0.120156262870297     
 -0.101538305089414      -8.292034730853012E-002 -6.430238952764729E-002
 -4.568443174676413E-002 -2.706647396588056E-002 -8.448516184997453E-003
 -0.195387883254780      -0.176769925473896      -0.158151967693013     
 -0.139534009912131      -0.120916052131247      -0.102298094350364     
 -8.368013656948074E-002 -6.506217878859728E-002 -4.644422100771398E-002
 -2.782626322683057E-002 -9.208305445947791E-003 -0.196434759443322     
 -0.177816801662440      -0.159198843881556      -0.140580886100673     
 -0.121962928319789      -0.103344970538906      -8.472701275802295E-002
 -6.610905497713987E-002 -4.749109719625651E-002 -2.887313941537352E-002
 -1.025518163449012E-002 -0.197752212696590      -0.179134254915707     
 -0.160516297134824      -0.141898339353941      -0.123280381573058     
 -0.104662423792174      -8.604446601129088E-002 -6.742650823040788E-002
 -4.880855044952437E-002 -3.019059266864102E-002 -1.157263488775768E-002
 -0.199319465989771      -0.180701508208888      -0.162083550428005     
 -0.143465592647122      -0.124847634866238      -0.106229677085355     
 -8.761171930447229E-002 -6.899376152358891E-002 -5.037580374270603E-002
 -3.175784596182248E-002 -1.313988818093932E-002 -0.201111802802200     
 -0.182493845021317      -0.163875887240434      -0.145257929459551     
 -0.126639971678667      -0.108022013897784      -8.940405611690115E-002
 -7.078609833601812E-002 -5.216814055513434E-002 -3.355018277425146E-002
 -1.493222499336826E-002 -0.203100956911655      -0.184482999130772     
 -0.165865041349888      -0.147247083569006      -0.128629125788123     
 -0.110011168007239      -9.139321022635537E-002 -7.277525244547230E-002
 -5.415729466458916E-002 -3.553933688370579E-002 -1.692137910282299E-002
 -0.205255558169566      -0.186637600388684      -0.168019642607800     
 -0.149401684826916      -0.130783727046033      -0.112165769265150     
 -9.354781148426690E-002 -7.492985370338404E-002 -5.631189592250046E-002
 -3.769393814161711E-002 -1.907598036073399E-002 -0.207541627227001     
 -0.188923669446117      -0.170305711665234      -0.151687753884351     
 -0.133069796103468      -0.114451838322585      -9.583388054170167E-002
 -7.721592276081721E-002 -5.859796497993500E-002 -3.998000719905121E-002
 -2.136204941816810E-002 -0.209923111409290      -0.191305153628407     
 -0.172687195847523      -0.154069238066640      -0.135451280285757     
 -0.116833322504875      -9.821536472399116E-002 -7.959740694310743E-002
 -6.097944916222423E-002 -4.236149138134145E-002 -2.374353360045874E-002
 -0.212362453288251      -0.193744495507368      -0.175126537726484     
 -0.156508579945602      -0.137890622164719      -0.119272664383836     
 -0.100654706602951      -8.203674882206861E-002 -6.341879104118586E-002
 -4.480083326030244E-002 -2.618287547941925E-002 -0.214821182985261     
 -0.196203225204377      -0.177585267423495      -0.158967309642611     
 -0.140349351861728      -0.121731394080844      -0.103113436299960     
 -8.449547851907876E-002 -6.587752073819456E-002 -4.725956295731087E-002
 -2.864160517642811E-002 -0.217260524864221      -0.198642567083339     
 -0.180024609302455      -0.161406651521572      -0.142788693740688     
 -0.124170735959806      -0.105552778178922      -8.693482039803778E-002
 -6.831686261715576E-002 -4.969890483627237E-002 -3.108094705538929E-002
 -0.219642009046512      -0.201024051265627      -0.182406093484745     
 -0.163788135703863      -0.145170177922979      -0.126552220142095     
 -0.107934262361213      -8.931630458032924E-002 -7.069834679944584E-002
 -5.208038901856264E-002 -3.346243123767914E-002 -0.221928078103946     
 -0.203310120323063      -0.184692162542179      -0.166074204761296     
 -0.147456246980412      -0.128838289199529      -0.110220331418645     
 -9.160237363776284E-002 -7.298441585687979E-002 -5.436645807599542E-002
 -3.574850029511390E-002 -0.224082679361857      -0.205464721580973     
 -0.186846763800090      -0.168228806019207      -0.149610848238324     
 -0.130992890457440      -0.112374932676557      -9.375697489567346E-002
 -7.513901711479086E-002 -5.652105933390751E-002 -3.790310155302507E-002
 -0.226071833471311      -0.207453875690427      -0.188835917909544     
 -0.170217960128662      -0.151600002347779      -0.132982044566895     
 -0.114364086786012      -9.574612900512885E-002 -7.712817122424599E-002
 -5.851021344336147E-002 -3.989225566247919E-002 -0.227864170283741     
 -0.209246212502856      -0.190628254721974      -0.172010296941090     
 -0.153392339160208      -0.134774381379323      -0.116156423598442     
 -9.753846581755811E-002 -7.892050803667355E-002 -6.030255025579118E-002
 -4.168459247490909E-002 -0.229431423576921      -0.210813465796038     
 -0.192195508015155      -0.173577550234271      -0.154959592453389     
 -0.136341634672506      -0.117723676891622      -9.910571911073833E-002
 -8.048776132985673E-002 -6.186980354897138E-002 -4.325184576808896E-002
 -0.230748876830190      -0.212130919049307      -0.193512961268421     
 -0.174895003487539      -0.156277045706658      -0.137659087925773     
 -0.119041130144889      -0.100423172364007      -8.180521458312480E-002
 -6.318725680223915E-002 -4.456929902135572E-002 -0.231795753018732     
 -0.213177795237849      -0.194559837456965      -0.175941879676082     
 -0.157323921895199      -0.138705964114316      -0.120088006333433     
 -0.101470048552549      -8.285209077166618E-002 -6.423413299078364E-002
 -4.561617520989911E-002 -0.232555542279683      -0.213937584498800     
 -0.195319626717916      -0.176701668937032      -0.158083711156149     
 -0.139465753375265      -0.120847795594383      -0.102229837813498     
 -8.361188003261623E-002 -6.499392225173149E-002 -4.637596447084900E-002
 -0.233016262282519      -0.214398304501636      -0.195780346720754     
 -0.177162388939869      -0.158544431158986      -0.139926473378101     
 -0.121308515597218      -0.102690557816336      -8.407260003545264E-002
 -6.545464225456907E-002 -4.683668447368662E-002 -0.233170647197577     
 -0.214552689416692      -0.195934731635811      -0.177316773854926     
 -0.158698816074043      -0.140080858293159      -0.121462900512277     
 -0.102844942731393      -8.422698495050977E-002 -6.560902716962652E-002
 -4.699106938874298E-002
  3.960717710078315E-002  3.564645939070483E-002  3.168574168062652E-002
  2.772502397054821E-002  2.376430626046989E-002  1.980358855039158E-002
  1.584287084031326E-002  1.188215313023495E-002  7.921435420156629E-003
  3.960717710078312E-003  0.000000000000000E+000  3.960717710078315E-002
  3.564645939070483E-002  3.168574168062652E-002  2.772502397054821E-002
  2.376430626046989E-002  1.980358855039158E-002  1.584287084031326E-002
  1.188215313023495E-002  7.921435420156629E-003  3.960717710078312E-003
  0.000000000000000E+000  3.960717710078315E-002  3.564645939070483E-002
  3.168574168062652E-002  2.772502397054821E-002  2.376430626046989E-002
  1.980358855039158E-002  1.584287084031326E-002  1.188215313023495E-002
  7.921435420156629E-003  3.960717710078312E-003  0.000000000000000E+000
  3.960717710078315E-002  3.564645939070483E-002  3.168574168062652E-002
  2.772502397054821E-002  2.376430626046989E-002  1.980358855039158E-002
  1.584287084031326E-002  1.188215313023495E-002  7.921435420156629E-003
  3.960717710078312E-003  0.000000000000000E+000  3.960717710078315E-002
  3.564645939070483E-002  3.168574168062652E-002  2.772502397054821E-002
  2.376430626046989E-002  1.980358855039158E-002  1.584287084031326E-002
  1.188215313023495E-002  7.921435420156629E-003  3.960717710078312E-003
  0.000000000000000E+000  3.960717710078315E-002  3.564645939070483E-002
  3.168574168062652E-002  2.772502397054821E-002  2.376430626046989E-002
  1.980358855039158E-002  1.584287084031326E-002  1.188215313023495E-002
  7.921435420156629E-003  3.960717710078312E-003  0.000000000000000E+000
  3.960717710078315E-002  3.564645939070483E-002  3.168574168062652E-002
  2.772502397054821E-002  2.376430626046989E-002  1.980358855039158E-002
  1.584287084031326E-002  1.188215313023495E-002  7.921435420156629E-003
  3.960717710078312E-003  0.000000000000000E+000  3.960717710078315E-002
  3.564645939070483E-002  3.168574168062652E-002  2.772502397054821E-002
  2.376430626046989E-002  1.980358855039158E-002  1.584287084031326E-002
  1.188215313023495E-002  7.921435420156629E-003  3.960717710078312E-003
  0.000000000000000E+000  3.960717710078315E-002  3.564645939070483E-002
  3.168574168062652E-002  2.772502397054821E-002  2.376430626046989E-002
  1.980358855039158E-002  1.584287084031326E-002  1.188215313023495E-002
  7.921435420156629E-003  3.960717710078312E-003  0.000000000000000E+000
  3.960717710078315E-002  3.564645939070483E-002  3.168574168062652E-002
  2.772502397054821E-002  2.376430626046989E-002  1.980358855039158E-002
  1.584287084031326E-002  1.188215313023495E-002  7.921435420156629E-003
  3.960717710078312E-003  0.000000000000000E+000  3.960717710078315E-002
  3.564645939070483E-002  3.168574168062652E-002  2.772502397054821E-002
  2.376430626046989E-002  1.980358855039158E-002  1.584287084031326E-002
  1.188215313023495E-002  7.921435420156629E-003  3.960717710078312E-003
  0.000000000000000E+000  3.960717710078315E-002  3.564645939070483E-002
  3.168574168062652E-002  2.772502397054821E-002  2.376430626046989E-002
  1.980358855039158E-002  1.584287084031326E-002  1.188215313023495E-002
  7.921435420156629E-003  3.960717710078312E-003  0.000000000000000E+000
  3.960717710078315E-002  3.564645939070483E-002  3.168574168062652E-002
  2.772502397054821E-002  2.376430626046989E-002  1.980358855039158E-002
  1.584287084031326E-002  1.188215313023495E-002  7.921435420156629E-003
  3.960717710078312E-003  0.000000000000000E+000  3.960717710078315E-002
  3.564645939070483E-002  3.168574168062652E-002  2.772502397054821E-002
  2.376430626046989E-002  1.980358855039158E-002  1.584287084031326E-002
  1.188215313023495E-002  7.921435420156629E-003  3.960717710078312E-003
  0.000000000000000E+000  3.960717710078315E-002  3.564645939070483E-002
  3.168574168062652E-002  2.772502397054821E-002  2.376430626046989E-002
  1.980358855039158E-002  1.584287084031326E-002  1.188215313023495E-002
  7.921435420156629E-003  3.960717710078312E-003  0.000000000000000E+000
  3.960717710078315E-002  3.564645939070483E-002  3.168574168062652E-002
  2.772502397054821E-002  2.376430626046989E-002  1.980358855039158E-002
  1.584287084031326E-002  1.188215313023495E-002  7.921435420156629E-003
  3.960717710078312E-003  0.000000000000000E+000  3.960717710078315E-002
  3.564645939070483E-002  3.168574168062652E-002  2.772502397054821E-002
  2.376430626046989E-002  1.980358855039158E-002  1.584287084031326E-002
  1.188215313023495E-002  7.921435420156629E-003  3.960717710078312E-003
  0.000000000000000E+000  3.960717710078315E-002  3.564645939070483E-002
  3.168574168062652E-002  2.772502397054821E-002  2.376430626046989E-002
  1.980358855039158E-002  1.584287084031326E-002  1.188215313023495E-002
  7.921435420156629E-003  3.960717710078312E-003  0.000000000000000E+000
  3.960717710078315E-002  3.564645939070483E-002  3.168574168062652E-002
  2.772502397054821E-002  2.376430626046989E-002  1.980358855039158E-002
  1.584287084031326E-002  1.188215313023495E-002  7.921435420156629E-003
  3.960717710078312E-003  0.000000000000000E+000  3.960717710078315E-002
  3.564645939070483E-002  3.168574168062652E-002  2.772502397054821E-002
  2.376430626046989E-002  1.980358855039158E-002  1.584287084031326E-002
  1.188215313023495E-002  7.921435420156629E-003  3.960717710078312E-003
  0.000000000000000E+000  3.960717710078315E-002  3.564645939070483E-002
  3.168574168062652E-002  2.772502397054821E-002  2.376430626046989E-002
  1.980358855039158E-002  1.584287084031326E-002  1.188215313023495E-002
  7.921435420156629E-003  3.960717710078312E-003  0.000000000000000E+000
  3.960717710078315E-002  3.564645939070483E-002  3.168574168062652E-002
  2.772502397054821E-002  2.376430626046989E-002  1.980358855039158E-002
  1.584287084031326E-002  1.188215313023495E-002  7.921435420156629E-003
  3.960717710078312E-003  0.000000000000000E+000  3.960717710078315E-002
  3.564645939070483E-002  3.168574168062652E-002  2.772502397054821E-002
  2.376430626046989E-002  1.980358855039158E-002  1.584287084031326E-002
  1.188215313023495E-002  7.921435420156629E-003  3.960717710078312E-003
  0.000000000000000E+000  3.960717710078315E-002  3.564645939070483E-002
  3.168574168062652E-002  2.772502397054821E-002  2.376430626046989E-002
  1.980358855039158E-002  1.584287084031326E-002  1.188215313023495E-002
  7.921435420156629E-003  3.960717710078312E-003  0.000000000000000E+000
  3.960717710078315E-002  3.564645939070483E-002  3.168574168062652E-002
  2.772502397054821E-002  2.376430626046989E-002  1.980358855039158E-002
  1.584287084031326E-002  1.188215313023495E-002  7.921435420156629E-003
  3.960717710078312E-003  0.000000000000000E+000  3.960717710078315E-002
  3.564645939070483E-002  3.168574168062652E-002  2.772502397054821E-002
  2.376430626046989E-002  1.980358855039158E-002  1.584287084031326E-002
  1.188215313023495E-002  7.921435420156629E-003  3.960717710078312E-003
  0.000000000000000E+000
  2.884024527289650E-002  5.273077740205551E-002  7.577111384784727E-002
  9.780259756702220E-002  0.118175607848983       0.136371451016878     
  0.152197850173558       0.165780312111630       0.177361511115582     
  0.186726727523388       5.255599920051424E-002  9.395737160965865E-002
  0.133410591273068       0.171033057667263       0.205868404442190     
  0.237073005156416       0.264299027015551       0.287721526253369     
  0.307790926433602       0.324596020683046       8.668335903898086E-002
  0.147818833943895       0.204070268265662       0.257078119180711     
  0.306174311035424       0.350427389481871       0.389342763452740     
  0.423032786576675       0.451840845537792       0.474761483659683     
  0.134986667306286       0.219048129006527       0.292070756271385     
  0.358960761473334       0.420344103955434       0.475809445407145     
  0.524924638160389       0.567520716803513       0.603347433367330     
  0.630417749839658       0.200725555033437       0.313636691061914     
  0.405617310729427       0.486412725569662       0.558758469828460     
  0.623383391594148       0.680388029216256       0.729667019940981     
  0.770606522560705       0.800502286033631       0.285094738252176     
  0.434954925590902       0.550872125195123       0.648671480775902     
  0.733650122898255       0.807993794728226       0.872635771307425     
  0.927816479499611       0.972926660419695        1.00502591180869     
  0.387828532551913       0.583514165111574       0.729794885593201     
  0.849707885599781       0.951421742172582        1.03864753637945     
   1.11322212834558        1.17587730193641        1.22616630391622     
   1.26105825862592       0.508395633677767       0.758646141047105     
  0.941724879635021        1.08897497150111        1.21178381604451     
   1.31551764894854        1.40296260834596        1.47536832265610     
   1.53249400880828        1.57121298725534       0.646051730498182     
  0.959043347183297        1.18477740503132        1.36400875996972     
   1.51173987045132        1.63516162496209        1.73807185418360     
   1.82227442449332        1.88777511835761        1.93131637739476     
  0.799702737804056        1.18293989377845        1.45657121168390     
   1.67182388383813        1.84770991828695        1.99343246722554     
   2.11392661246488        2.21163631386646        2.28684515241495     
   2.33613983838293       0.967924277510424        1.42812121220074     
   1.75423606715126        2.00895224519471        2.21568124418119     
   2.38583938100601        2.52561729247315        2.63819123617138     
   2.72417149815712        2.77995711628608        1.14891317945683     
   1.69181359784371        2.07424634812878        2.37122811040505     
   2.61091212203397        2.80711608877853        2.96740628701520     
   3.09576829950941        3.19320637303270        3.25596782265492     
   1.34056667528046        1.97077310334591        2.41244122997361     
   2.75369007839241        3.02772614917583        3.25093665016211     
   3.43237295466591        3.57692158537998        3.68606217398302     
   3.75595360705228        1.54101190780643        2.26196725965803     
   2.76476956576598        3.15133003438132        3.46019949064071     
   3.71051985460771        3.91296612411794        4.07342311878989     
   4.19393288524218        4.27068281477630        1.75011711057090     
   2.56458247386164        3.12948722171300        3.56134508350844     
   3.90443314311765        4.18088623326564        4.40318365579992     
   4.57836328888323        4.70916870935427        4.79199412647387     
   1.97176069817769        2.88291564740419        3.51028538355687     
   3.98637083557230        4.36184327064753        4.66223771244536     
   4.90211269976756        5.08986587430693        5.22912933572974     
   5.31674016703713        2.21313258630014        3.22506195124481     
   3.91457708646381        4.43266499060689        4.83755468126451     
   5.15880899495444        5.41339880347524        5.61126280904174     
   5.75704796194025        5.84818364689317        2.46451674829441     
   3.57612891545236        4.32373451805005        4.87883582226020     
   5.30814159070660        5.64568279935238        5.91103916997954     
   6.11578076063908        6.26563421671044        6.35873935552109     
   2.68026192530186        3.86952432717414        4.65711055155360     
   5.23406947724834        5.67511278882717        6.01824676237106     
   6.28532075345750        6.48937852313525        6.63721338845885     
   6.72799498808480        2.81175953648666        4.03538160839947     
   4.83151610079946        5.40624020360990        5.84055389271208     
   6.17545028027927        6.43431066858446        6.63098854868201     
   6.77275324433798        6.85941900606749        2.78111569873937     
   3.96135706309551        4.71160375918135        5.24243342742327     
   5.63704728795267        5.93743250217477        6.16706947217313     
   6.33937528037986        6.46116613114402        6.53310672070018     
   2.58022956955776        3.62745077537097        4.27063628464115     
   4.71548333039927        5.04135587424438        5.28686688916600     
   5.47282456496092        5.61058007212158        5.70541444285118     
   5.75781841471338        2.22259764492863        3.05413364877889     
   3.54553546085886        3.88053680699744        4.12466125764382     
   4.30818635158678        4.44700117315447        4.54970003130609     
   4.62046735929758        4.66038368610766        1.69655498368549     
   2.25744339333012        2.58448495511388        2.80797157034360     
   2.97142646001327        3.09468402991497        3.18818956017278     
   3.25783480693895        3.30742004530334        3.34267718280320     
   1.03077128494300        1.34482979007032        1.52967272621139     
   1.65669223491077        1.74991249319437        1.82036604606023     
   1.87389232806150        1.91377254315941        1.94184890083632     
   1.95856951205223     
  0.000000000000000E+000  0.000000000000000E+000  0.000000000000000E+000
  0.000000000000000E+000  0.000000000000000E+000  0.000000000000000E+000
  0.000000000000000E+000  0.000000000000000E+000  0.000000000000000E+000
  0.000000000000000E+000  0.000000000000000E+000  0.000000000000000E+000
  0.000000000000000E+000  0.000000000000000E+000  0.000000000000000E+000
  0.000000000000000E+000  0.000000000000000E+000  0.000000000000000E+000
  0.000000000000000E+000  0.000000000000000E+000  0.000000000000000E+000
  0.000000000000000E+000  0.000000000000000E+000  0.000000000000000E+000
  0.000000000000000E+000  0.000000000000000E+000  0.000000000000000E+000
  0.000000000000000E+000  0.000000000000000E+000  0.000000000000000E+000
  0.000000000000000E+000  0.000000000000000E+000  0.000000000000000E+000
  0.000000000000000E+000  0.000000000000000E+000  0.000000000000000E+000
  0.000000000000000E+000  0.000000000000000E+000  0.000000000000000E+000
  0.000000000000000E+000  0.000000000000000E+000  0.000000000000000E+000
  0.000000000000000E+000  0.000000000000000E+000  0.000000000000000E+000
  0.000000000000000E+000  0.000000000000000E+000  0.000000000000000E+000
  0.000000000000000E+000  0.000000000000000E+000  0.000000000000000E+000
  0.000000000000000E+000  0.000000000000000E+000  0.000000000000000E+000
  0.000000000000000E+000  0.000000000000000E+000  0.000000000000000E+000
  0.000000000000000E+000  0.000000000000000E+000  0.000000000000000E+000
  0.000000000000000E+000  0.000000000000000E+000  0.000000000000000E+000
  0.000000000000000E+000  0.000000000000000E+000  0.000000000000000E+000
  0.000000000000000E+000  0.000000000000000E+000  0.000000000000000E+000
  0.000000000000000E+000  0.000000000000000E+000  0.000000000000000E+000
  0.000000000000000E+000  0.000000000000000E+000  0.000000000000000E+000
  0.000000000000000E+000  0.000000000000000E+000  0.000000000000000E+000
  0.000000000000000E+000  0.000000000000000E+000  0.000000000000000E+000
  0.000000000000000E+000  0.000000000000000E+000  0.000000000000000E+000
  0.000000000000000E+000  0.000000000000000E+000  0.000000000000000E+000
  0.000000000000000E+000  0.000000000000000E+000  0.000000000000000E+000
  0.000000000000000E+000  0.000000000000000E+000  0.000000000000000E+000
  0.000000000000000E+000  0.000000000000000E+000  0.000000000000000E+000
  0.000000000000000E+000  0.000000000000000E+000  0.000000000000000E+000
  0.000000000000000E+000  0.000000000000000E+000  0.000000000000000E+000
  0.000000000000000E+000  0.000000000000000E+000  0.000000000000000E+000
  0.000000000000000E+000  0.000000000000000E+000  0.000000000000000E+000
  0.000000000000000E+000  0.000000000000000E+000  0.000000000000000E+000
  0.000000000000000E+000  0.000000000000000E+000  0.000000000000000E+000
  0.000000000000000E+000  0.000000000000000E+000  0.000000000000000E+000