 Title = "Wing and Wake"
 VARIABLES = "X" "Y" "Z" "GAM" "skew"
 Zone I=   11 J=   26 K=1  T="Blade"
 DATAPACKING=BLOCK
 VARLOCATION=([4]=CELLCENTERED,[5]=CELLCENTERED)
  7.667389899066274E-002  6.016683733542076E-002  4.365977568017850E-002
  2.715271402493609E-002  1.064565236969356E-002 -5.861409285548492E-003
 -2.236847094079083E-002 -3.887553259603301E-002 -5.538259425127492E-002
 -7.188965590651750E-002 -8.839671756175967E-002  7.493173082576227E-002
  5.842466917051996E-002  4.191760751527771E-002  2.541054586003569E-002
  8.903484204793224E-003 -7.603577450448982E-003 -2.411063910569123E-002
 -4.061770076093336E-002 -5.712476241617578E-002 -7.363182407141780E-002
 -9.013888572666021E-002  6.973270136374221E-002  5.322563970849994E-002
  3.671857805325757E-002  2.021151639801534E-002  3.704454742773290E-003
 -1.280260691246906E-002 -2.930966856771151E-002 -4.581673022295357E-002
 -6.232379187819555E-002 -7.883085353343783E-002 -9.533791518868021E-002
  6.115880240496800E-002  4.465174074972573E-002  2.814467909448308E-002
  1.163761743924118E-002 -4.869444216001191E-003 -2.137650587124330E-002
 -3.788356752648535E-002 -5.439062918172777E-002 -7.089769083697019E-002
 -8.740475249221243E-002 -0.103911814147454       4.934524945781876E-002
  3.283818780257704E-002  1.633112614733412E-002 -1.759355079079955E-004
 -1.668299716315015E-002 -3.319005881839245E-002 -4.969712047363494E-002
 -6.620418212887677E-002 -8.271124378411912E-002 -9.921830543936132E-002
 -0.115725367094604       3.447834930934542E-002  1.797128765410320E-002
  1.464225998860970E-003 -1.504283565638131E-002 -3.154989731162344E-002
 -4.805695896686629E-002 -6.456402062210817E-002 -8.107108227735024E-002
 -9.757814393259279E-002 -0.114085205587835      -0.130592267243077     
  1.679256185594524E-002  2.855002007027480E-004 -1.622156145453913E-002
 -3.272862310978159E-002 -4.923568476502346E-002 -6.574274642026658E-002
 -8.224980807550840E-002 -9.875686973075054E-002 -0.115263931385992     
 -0.131770993041234      -0.148278054696476      -3.433197469264784E-003
 -1.994025912450695E-002 -3.644732077974954E-002 -5.295438243499145E-002
 -6.946144409023368E-002 -8.596850574547590E-002 -0.102475567400718     
 -0.118982629055960      -0.135489690711203      -0.151996752366444     
 -0.168503814021687      -2.587995635944235E-002 -4.238701801468565E-002
 -5.889407966992734E-002 -7.540114132516934E-002 -9.190820298041173E-002
 -0.108415264635654      -0.124922326290896      -0.141429387946139     
 -0.157936449601381      -0.174443511256623      -0.190950572911865     
 -5.019371601784674E-002 -6.670077767308902E-002 -8.320783932833138E-002
 -9.971490098357393E-002 -0.116221962638816      -0.132729024294058     
 -0.149236085949300      -0.165743147604542      -0.182250209259785     
 -0.198757270915027      -0.215264332570269      -7.599103393032829E-002
 -9.249809558557073E-002 -0.109005157240812      -0.125512218896054     
 -0.142019280551297      -0.158526342206540      -0.175033403861781     
 -0.191540465517024      -0.208047527172265      -0.224554588827508     
 -0.241061650482750      -0.102865070982836      -0.119372132638078     
 -0.135879194293321      -0.152386255948562      -0.168893317603805     
 -0.185400379259047      -0.201907440914289      -0.218414502569532     
 -0.234921564224774      -0.251428625880015      -0.267935687535257     
 -0.130392007557281      -0.146899069212523      -0.163406130867765     
 -0.179913192523007      -0.196420254178249      -0.212927315833491     
 -0.229434377488735      -0.245941439143976      -0.262448500799219     
 -0.278955562454460      -0.295462624109702      -0.158137727420089     
 -0.174644789075332      -0.191151850730572      -0.207658912385814     
 -0.224165974041057      -0.240673035696300      -0.257180097351543     
 -0.273687159006783      -0.290194220662027      -0.306701282317268     
 -0.323208343972510      -0.185664663994533      -0.202171725649774     
 -0.218678787305018      -0.235185848960259      -0.251692910615502     
 -0.268199972270744      -0.284707033925985      -0.301214095581230     
 -0.317721157236470      -0.334228218891712      -0.350735280546956     
 -0.212538701047040      -0.229045762702283      -0.245552824357525     
 -0.262059886012766      -0.278566947668010      -0.295074009323252     
 -0.311581070978493      -0.328088132633736      -0.344595194288978     
 -0.361102255944219      -0.377609317599463      -0.238336018959522     
 -0.254843080614763      -0.271350142270006      -0.287857203925248     
 -0.304364265580491      -0.320871327235733      -0.337378388890976     
 -0.353885450546218      -0.370392512201460      -0.386899573856703     
 -0.403406635511944      -0.262649778617925      -0.279156840273168     
 -0.295663901928411      -0.312170963583653      -0.328678025238895     
 -0.345185086894138      -0.361692148549379      -0.378199210204622     
 -0.394706271859863      -0.411213333515106      -0.427720395170347     
 -0.285096537508104      -0.301603599163346      -0.318110660818588     
 -0.334617722473830      -0.351124784129073      -0.367631845784315     
 -0.384138907439556      -0.400645969094799      -0.417153030750041     
 -0.433660092405285      -0.450167154060525      -0.305322296833314     
 -0.321829358488556      -0.338336420143798      -0.354843481799041     
 -0.371350543454282      -0.387857605109526      -0.404364666764766     
 -0.420871728420010      -0.437378790075252      -0.453885851730494     
 -0.470392913385735      -0.323008084286715      -0.339515145941957     
 -0.356022207597198      -0.372529269252440      -0.389036330907683     
 -0.405543392562924      -0.422050454218168      -0.438557515873410     
 -0.455064577528651      -0.471571639183895      -0.488078700839136     
 -0.337874984435186      -0.354382046090428      -0.370889107745673     
 -0.387396169400914      -0.403903231056155      -0.420410292711399     
 -0.436917354366642      -0.453424416021882      -0.469931477677124     
 -0.486438539332369      -0.502945600987612      -0.349688537382337     
 -0.366195599037578      -0.382702660692820      -0.399209722348064     
 -0.415716784003306      -0.432223845658548      -0.448730907313790     
 -0.465237968969034      -0.481745030624274      -0.498252092279516     
 -0.514759153934758      -0.358262436341110      -0.374769497996352     
 -0.391276559651595      -0.407783621306837      -0.424290682962080     
 -0.440797744617323      -0.457304806272565      -0.473811867927807     
 -0.490318929583047      -0.506825991238292      -0.523333052893534     
 -0.363461465803130      -0.379968527458371      -0.396475589113614     
 -0.412982650768856      -0.429489712424098      -0.445996774079343     
 -0.462503835734584      -0.479010897389825      -0.495517959045069     
 -0.512025020700311      -0.528532082355552      -0.365203633968030     
 -0.381710695623274      -0.398217757278515      -0.414724818933758     
 -0.431231880589001      -0.447738942244243      -0.464246003899486     
 -0.480753065554727      -0.497260127209970      -0.513767188865212     
 -0.530274250520456     
 -0.255239891645654      -0.246595116881030      -0.237950342116405     
 -0.229305567351780      -0.220660792587155      -0.212016017822529     
 -0.203371243057905      -0.194726468293280      -0.186081693528655     
 -0.177436918764030      -0.168792143999405      -0.258566534397470     
 -0.249921759632845      -0.241276984868219      -0.232632210103595     
 -0.223987435338969      -0.215342660574345      -0.206697885809719     
 -0.198053111045095      -0.189408336280470      -0.180763561515845     
 -0.172118786751220      -0.268493999509478      -0.259849224744853     
 -0.251204449980228      -0.242559675215603      -0.233914900450978     
 -0.225270125686353      -0.216625350921729      -0.207980576157104     
 -0.199335801392478      -0.190691026627853      -0.182046251863228     
 -0.284865724926484      -0.276220950161859      -0.267576175397235     
 -0.258931400632609      -0.250286625867984      -0.241641851103359     
 -0.232997076338735      -0.224352301574110      -0.215707526809485     
 -0.207062752044860      -0.198417977280234      -0.307423518758666     
 -0.298778743994041      -0.290133969229416      -0.281489194464792     
 -0.272844419700166      -0.264199644935542      -0.255554870170917     
 -0.246910095406291      -0.238265320641666      -0.229620545877042     
 -0.220975771112416      -0.335811631121918      -0.327166856357293     
 -0.318522081592668      -0.309877306828043      -0.301232532063418     
 -0.292587757298794      -0.283942982534168      -0.275298207769543     
 -0.266653433004918      -0.258008658240293      -0.249363883475668     
 -0.369582364526035      -0.360937589761410      -0.352292814996785     
 -0.343648040232160      -0.335003265467535      -0.326358490702911     
 -0.317713715938286      -0.309068941173660      -0.300424166409035     
 -0.291779391644410      -0.283134616879785      -0.408203134331576     
 -0.399558359566950      -0.390913584802327      -0.382268810037702     
 -0.373624035273076      -0.364979260508451      -0.356334485743826     
 -0.347689710979202      -0.339044936214576      -0.330400161449951     
 -0.321755386685327      -0.451064867927778      -0.442420093163153     
 -0.433775318398528      -0.425130543633903      -0.416485768869279     
 -0.407840994104653      -0.399196219340028      -0.390551444575403     
 -0.381906669810779      -0.373261895046153      -0.364617120281528     
 -0.497491610171470      -0.488846835406845      -0.480202060642221     
 -0.471557285877595      -0.462912511112971      -0.454267736348345     
 -0.445622961583720      -0.436978186819096      -0.428333412054470     
 -0.419688637289845      -0.411043862525220      -0.546751183603479     
 -0.538106408838854      -0.529461634074228      -0.520816859309604     
 -0.512172084544978      -0.503527309780354      -0.494882535015727     
 -0.486237760251103      -0.477592985486478      -0.468948210721853     
 -0.460303435957228      -0.598066735324536      -0.589421960559911     
 -0.580777185795287      -0.572132411030659      -0.563487636266036     
 -0.554842861501412      -0.546198086736787      -0.537553311972161     
 -0.528908537207536      -0.520263762442911      -0.511618987678286     
 -0.650628988429579      -0.641984213664953      -0.633339438900328     
 -0.624694664135703      -0.616049889371079      -0.607405114606453     
 -0.598760339841828      -0.590115565077204      -0.581470790312579     
 -0.572826015547953      -0.564181240783328      -0.703609004787971     
 -0.694964230023345      -0.686319455258720      -0.677674680494095     
 -0.669029905729470      -0.660385130964846      -0.651740356200220     
 -0.643095581435595      -0.634450806670973      -0.625806031906345     
 -0.617161257141720      -0.756171257893011      -0.747526483128387     
 -0.738881708363763      -0.730236933599136      -0.721592158834512     
 -0.712947384069889      -0.704302609305262      -0.695657834540637     
 -0.687013059776011      -0.678368285011386      -0.669723510246763     
 -0.807486809614070      -0.798842034849444      -0.790197260084820     
 -0.781552485320196      -0.772907710555572      -0.764262935790946     
 -0.755618161026320      -0.746973386261696      -0.738328611497070     
 -0.729683836732444      -0.721039061967822      -0.856746383046078     
 -0.848101608281453      -0.839456833516828      -0.830812058752204     
 -0.822167283987577      -0.813522509222954      -0.804877734458328     
 -0.796232959693704      -0.787588184929078      -0.778943410164454     
 -0.770298635399830      -0.903173125289770      -0.894528350525145     
 -0.885883575760520      -0.877238800995895      -0.868594026231271     
 -0.859949251466646      -0.851304476702020      -0.842659701937395     
 -0.834014927172770      -0.825370152408145      -0.816725377643520     
 -0.946034858885971      -0.937390084121346      -0.928745309356721     
 -0.920100534592097      -0.911455759827472      -0.902810985062847     
 -0.894166210298221      -0.885521435533597      -0.876876660768974     
 -0.868231886004347      -0.859587111239721      -0.984655628691514     
 -0.976010853926887      -0.967366079162263      -0.958721304397638     
 -0.950076529633014      -0.941431754868386      -0.932786980103764     
 -0.924142205339139      -0.915497430574512      -0.906852655809889     
 -0.898207881045263       -1.01842636209563       -1.00978158733101     
  -1.00113681256638      -0.992492037801752      -0.983847263037130     
 -0.975202488272505      -0.966557713507881      -0.957912938743255     
 -0.949268163978631      -0.940623389214005      -0.931978614449379     
  -1.04681447445888       -1.03816969969426       -1.02952492492963     
  -1.02088015016501       -1.01223537540038       -1.00359060063576     
 -0.994945825871132      -0.986301051106507      -0.977656276341883     
 -0.969011501577257      -0.960366726812633       -1.06937226829106     
  -1.06072749352644       -1.05208271876181       -1.04343794399719     
  -1.03479316923257       -1.02614839446794       -1.01750361970332     
  -1.00885884493869       -1.00021407017406      -0.991569295409440     
 -0.982924520644813       -1.08574399370807       -1.07709921894345     
  -1.06845444417882       -1.05980966941419       -1.05116489464957     
  -1.04252011988494       -1.03387534512032       -1.02523057035569     
  -1.01658579559107       -1.00794102082644      -0.999296246061820     
  -1.09567145882008       -1.08702668405545       -1.07838190929083     
  -1.06973713452620       -1.06109235976158       -1.05244758499695     
  -1.04380281023233       -1.03515803546770       -1.02651326070308     
  -1.01786848593845       -1.00922371117383       -1.09899810157189     
  -1.09035332680727       -1.08170855204264       -1.07306377727802     
  -1.06441900251340       -1.05577422774877       -1.04712945298415     
  -1.03848467821952       -1.02983990345489       -1.02119512869027     
  -1.01255035392565     
  3.960717710078315E-002  3.564645939070483E-002  3.168574168062652E-002
  2.772502397054821E-002  2.376430626046989E-002  1.980358855039158E-002
  1.584287084031326E-002  1.188215313023495E-002  7.921435420156629E-003
  3.960717710078312E-003  0.000000000000000E+000  3.960717710078315E-002
  3.564645939070483E-002  3.168574168062652E-002  2.772502397054821E-002
  2.376430626046989E-002  1.980358855039158E-002  1.584287084031326E-002
  1.188215313023495E-002  7.921435420156629E-003  3.960717710078312E-003
  0.000000000000000E+000  3.960717710078315E-002  3.564645939070483E-002
  3.168574168062652E-002  2.772502397054821E-002  2.376430626046989E-002
  1.980358855039158E-002  1.584287084031326E-002  1.188215313023495E-002
  7.921435420156629E-003  3.960717710078312E-003  0.000000000000000E+000
  3.960717710078315E-002  3.564645939070483E-002  3.168574168062652E-002
  2.772502397054821E-002  2.376430626046989E-002  1.980358855039158E-002
  1.584287084031326E-002  1.188215313023495E-002  7.921435420156629E-003
  3.960717710078312E-003  0.000000000000000E+000  3.960717710078315E-002
  3.564645939070483E-002  3.168574168062652E-002  2.772502397054821E-002
  2.376430626046989E-002  1.980358855039158E-002  1.584287084031326E-002
  1.188215313023495E-002  7.921435420156629E-003  3.960717710078312E-003
  0.000000000000000E+000  3.960717710078315E-002  3.564645939070483E-002
  3.168574168062652E-002  2.772502397054821E-002  2.376430626046989E-002
  1.980358855039158E-002  1.584287084031326E-002  1.188215313023495E-002
  7.921435420156629E-003  3.960717710078312E-003  0.000000000000000E+000
  3.960717710078315E-002  3.564645939070483E-002  3.168574168062652E-002
  2.772502397054821E-002  2.376430626046989E-002  1.980358855039158E-002
  1.584287084031326E-002  1.188215313023495E-002  7.921435420156629E-003
  3.960717710078312E-003  0.000000000000000E+000  3.960717710078315E-002
  3.564645939070483E-002  3.168574168062652E-002  2.772502397054821E-002
  2.376430626046989E-002  1.980358855039158E-002  1.584287084031326E-002
  1.188215313023495E-002  7.921435420156629E-003  3.960717710078312E-003
  0.000000000000000E+000  3.960717710078315E-002  3.564645939070483E-002
  3.168574168062652E-002  2.772502397054821E-002  2.376430626046989E-002
  1.980358855039158E-002  1.584287084031326E-002  1.188215313023495E-002
  7.921435420156629E-003  3.960717710078312E-003  0.000000000000000E+000
  3.960717710078315E-002  3.564645939070483E-002  3.168574168062652E-002
  2.772502397054821E-002  2.376430626046989E-002  1.980358855039158E-002
  1.584287084031326E-002  1.188215313023495E-002  7.921435420156629E-003
  3.960717710078312E-003  0.000000000000000E+000  3.960717710078315E-002
  3.564645939070483E-002  3.168574168062652E-002  2.772502397054821E-002
  2.376430626046989E-002  1.980358855039158E-002  1.584287084031326E-002
  1.188215313023495E-002  7.921435420156629E-003  3.960717710078312E-003
  0.000000000000000E+000  3.960717710078315E-002  3.564645939070483E-002
  3.168574168062652E-002  2.772502397054821E-002  2.376430626046989E-002
  1.980358855039158E-002  1.584287084031326E-002  1.188215313023495E-002
  7.921435420156629E-003  3.960717710078312E-003  0.000000000000000E+000
  3.960717710078315E-002  3.564645939070483E-002  3.168574168062652E-002
  2.772502397054821E-002  2.376430626046989E-002  1.980358855039158E-002
  1.584287084031326E-002  1.188215313023495E-002  7.921435420156629E-003
  3.960717710078312E-003  0.000000000000000E+000  3.960717710078315E-002
  3.564645939070483E-002  3.168574168062652E-002  2.772502397054821E-002
  2.376430626046989E-002  1.980358855039158E-002  1.584287084031326E-002
  1.188215313023495E-002  7.921435420156629E-003  3.960717710078312E-003
  0.000000000000000E+000  3.960717710078315E-002  3.564645939070483E-002
  3.168574168062652E-002  2.772502397054821E-002  2.376430626046989E-002
  1.980358855039158E-002  1.584287084031326E-002  1.188215313023495E-002
  7.921435420156629E-003  3.960717710078312E-003  0.000000000000000E+000
  3.960717710078315E-002  3.564645939070483E-002  3.168574168062652E-002
  2.772502397054821E-002  2.376430626046989E-002  1.980358855039158E-002
  1.584287084031326E-002  1.188215313023495E-002  7.921435420156629E-003
  3.960717710078312E-003  0.000000000000000E+000  3.960717710078315E-002
  3.564645939070483E-002  3.168574168062652E-002  2.772502397054821E-002
  2.376430626046989E-002  1.980358855039158E-002  1.584287084031326E-002
  1.188215313023495E-002  7.921435420156629E-003  3.960717710078312E-003
  0.000000000000000E+000  3.960717710078315E-002  3.564645939070483E-002
  3.168574168062652E-002  2.772502397054821E-002  2.376430626046989E-002
  1.980358855039158E-002  1.584287084031326E-002  1.188215313023495E-002
  7.921435420156629E-003  3.960717710078312E-003  0.000000000000000E+000
  3.960717710078315E-002  3.564645939070483E-002  3.168574168062652E-002
  2.772502397054821E-002  2.376430626046989E-002  1.980358855039158E-002
  1.584287084031326E-002  1.188215313023495E-002  7.921435420156629E-003
  3.960717710078312E-003  0.000000000000000E+000  3.960717710078315E-002
  3.564645939070483E-002  3.168574168062652E-002  2.772502397054821E-002
  2.376430626046989E-002  1.980358855039158E-002  1.584287084031326E-002
  1.188215313023495E-002  7.921435420156629E-003  3.960717710078312E-003
  0.000000000000000E+000  3.960717710078315E-002  3.564645939070483E-002
  3.168574168062652E-002  2.772502397054821E-002  2.376430626046989E-002
  1.980358855039158E-002  1.584287084031326E-002  1.188215313023495E-002
  7.921435420156629E-003  3.960717710078312E-003  0.000000000000000E+000
  3.960717710078315E-002  3.564645939070483E-002  3.168574168062652E-002
  2.772502397054821E-002  2.376430626046989E-002  1.980358855039158E-002
  1.584287084031326E-002  1.188215313023495E-002  7.921435420156629E-003
  3.960717710078312E-003  0.000000000000000E+000  3.960717710078315E-002
  3.564645939070483E-002  3.168574168062652E-002  2.772502397054821E-002
  2.376430626046989E-002  1.980358855039158E-002  1.584287084031326E-002
  1.188215313023495E-002  7.921435420156629E-003  3.960717710078312E-003
  0.000000000000000E+000  3.960717710078315E-002  3.564645939070483E-002
  3.168574168062652E-002  2.772502397054821E-002  2.376430626046989E-002
  1.980358855039158E-002  1.584287084031326E-002  1.188215313023495E-002
  7.921435420156629E-003  3.960717710078312E-003  0.000000000000000E+000
  3.960717710078315E-002  3.564645939070483E-002  3.168574168062652E-002
  2.772502397054821E-002  2.376430626046989E-002  1.980358855039158E-002
  1.584287084031326E-002  1.188215313023495E-002  7.921435420156629E-003
  3.960717710078312E-003  0.000000000000000E+000  3.960717710078315E-002
  3.564645939070483E-002  3.168574168062652E-002  2.772502397054821E-002
  2.376430626046989E-002  1.980358855039158E-002  1.584287084031326E-002
  1.188215313023495E-002  7.921435420156629E-003  3.960717710078312E-003
  0.000000000000000E+000
  6.017948711372787E-002  9.868482690044141E-002  0.133023923848693     
  0.163475755876895       0.189460067205324       0.211011062328805     
  0.228455699405736       0.242045586234323       0.251805605273615     
  0.256895174146491       0.102484635533951       0.168197749482974     
  0.226492594443692       0.278533411182776       0.323367148740482     
  0.360860667827610       0.391399262831718       0.415370208079508     
  0.433006900565379       0.444031024969665       0.146333564708774     
  0.238256736013255       0.318663896438407       0.391204960567753     
  0.455127349731349       0.509833732368255       0.555232587032575     
  0.591532649396108       0.619208562285918       0.638154564103127     
  0.194600633013553       0.309955023521187       0.407530808574802     
  0.495071948353909       0.573603473735998       0.642691105741639     
  0.701532560433053       0.749421943623257       0.785765063793162     
  0.808251756944187       0.254096138159656       0.394848259060443     
  0.508136138429192       0.606567192002853       0.693727489109081     
  0.770501608185469       0.836538352080083       0.890828479399019     
  0.931774618533025       0.955932240808035       0.329639782570028     
  0.502769212570392       0.636279109136810       0.748276843816801     
  0.844703269316852       0.927839338024808       0.998341522009594     
   1.05584447188721        1.09894013769021        1.12425856463161     
  0.423168585213613       0.637465267942049       0.797847904941363     
  0.929047968466301        1.03963226107725        1.13330031751887     
   1.21164497041268        1.27498720944796        1.32238419652798     
   1.35065715385276       0.535173594894436       0.799521268866751     
  0.993243931929555        1.14894688839504        1.27830274566703     
   1.38664043827642        1.47651190834909        1.54882956957870     
   1.60300182209918        1.63585165936670       0.665237340343265     
  0.988242201229670        1.22145607569183        1.40654031181786     
   1.55868653273988        1.68503036239779        1.78919184905753     
   1.87273967572984        1.93541538920083        1.97391278446852     
  0.812457912429795        1.20226864212019        1.48071351461892     
   1.69960950296122        1.87809083993073        2.02532335795082     
   2.14611480357466        2.24273986130681        2.31527730333228     
   2.36023544858989       0.975460827971148        1.43946922767293     
   1.76829421231761        2.02495220792390        2.23290806460913     
   2.40353985259649        2.54294171996058        2.65415076143142     
   2.73759811749524        2.78959790190246        1.15241166896712     
   1.69704468112226        2.08064391201786        2.37835302737265     
   2.61831932186014        2.81430955656302        2.97380072919725     
   3.10065021144414        3.19569419122806        3.25509086533848     
   1.34118011048696        1.97167397098902        2.41346111610510     
   2.75463519257302        3.02834837097108        3.25092061153956     
   3.43131541239750        3.57429741693668        3.68118389022225     
   3.74803902546594        1.53992967057314        2.26034821672225     
   2.76268198477319        3.14872734217957        3.45695462716595     
   3.70642366285122        3.90771863179243        4.06661160031718     
   4.18499073807403        4.25894364165690        1.74872471580868     
   2.56252106021471        3.12687685686989        3.55817139966562     
   3.90060206609173        4.17622429203076        4.39742243829778     
   4.57111515975334        4.69989187269709        4.78004718641931     
   1.97170526536606        2.88285419455211        3.51018851286832     
   3.98616266957622        4.36139871102404        4.66136305078540     
   4.90051088557917        5.08709610510579        5.22456240266886     
   5.30961476969288        2.21587768890485        3.22922886385879     
   3.91987212585888        4.43894977846175        4.84470643691740     
   5.16665250512961        5.42165565533623        5.61950028294476     
   5.76461967340708        5.85422759835557        2.47028060652756     
   3.58514782473083        4.33558097974439        4.89343075793536     
   5.32550164707798        5.66581815967190        5.93390256178674     
   6.14124644546828        6.29348702780885        6.38854906813513     
   2.68898162266603        3.88323952046572        4.67537787472247     
   5.25704637624011        5.70315540394754        6.05179712201032     
   6.32487493000741        6.53544880157627        6.69024435810466     
   6.78791867709049        2.82232486714172        4.05232638270491     
   4.85455574340832        5.43590655882828        5.87778672004132     
   6.22154740543025        6.49098221796812        6.70039254793868     
   6.85741165709350        6.96119797511198        2.79163341808518     
   3.97857082756595        4.73546403241179        5.27382947675283     
   5.67755705117790        5.98941234595098        6.23389819462530     
   6.42569328134739        6.57264189344743        6.67357411832664     
   2.58987649225684        3.64328037239516        4.29274800245897     
   4.74497217575029        5.08018947538931        5.33817400490471     
   5.54154000713306        5.70452408780224        5.83636111161123     
   5.93770135291072        2.23065611542779        3.06721468619052     
   3.56377534349484        3.90494751944612        4.15703006360197     
   4.35136466628015        4.50557552020704        4.63139713828160     
   4.73904977438744        4.83873096352727        1.70242551103463     
   2.26676663355268        2.59736741880703        2.82509925625901     
   2.99395241714777        3.12434175283933        3.22752131309081     
   3.31049483561444        3.37821699365858        3.43548324422059     
   1.03424098816430        1.35025912302448        1.53712786234399     
   1.66654745869383        1.76277843277309        1.83712578499449     
   1.89576170674904        1.94228686941841        1.97838365807004     
   2.00123835056295     
  0.000000000000000E+000  0.000000000000000E+000  0.000000000000000E+000
  0.000000000000000E+000  0.000000000000000E+000  0.000000000000000E+000
  0.000000000000000E+000  0.000000000000000E+000  0.000000000000000E+000
  0.000000000000000E+000  0.000000000000000E+000  0.000000000000000E+000
  0.000000000000000E+000  0.000000000000000E+000  0.000000000000000E+000
  0.000000000000000E+000  0.000000000000000E+000  0.000000000000000E+000
  0.000000000000000E+000  0.000000000000000E+000  0.000000000000000E+000
  0.000000000000000E+000  0.000000000000000E+000  0.000000000000000E+000
  0.000000000000000E+000  0.000000000000000E+000  0.000000000000000E+000
  0.000000000000000E+000  0.000000000000000E+000  0.000000000000000E+000
  0.000000000000000E+000  0.000000000000000E+000  0.000000000000000E+000
  0.000000000000000E+000  0.000000000000000E+000  0.000000000000000E+000
  0.000000000000000E+000  0.000000000000000E+000  0.000000000000000E+000
  0.000000000000000E+000  0.000000000000000E+000  0.000000000000000E+000
  0.000000000000000E+000  0.000000000000000E+000  0.000000000000000E+000
  0.000000000000000E+000  0.000000000000000E+000  0.000000000000000E+000
  0.000000000000000E+000  0.000000000000000E+000  0.000000000000000E+000
  0.000000000000000E+000  0.000000000000000E+000  0.000000000000000E+000
  0.000000000000000E+000  0.000000000000000E+000  0.000000000000000E+000
  0.000000000000000E+000  0.000000000000000E+000  0.000000000000000E+000
  0.000000000000000E+000  0.000000000000000E+000  0.000000000000000E+000
  0.000000000000000E+000  0.000000000000000E+000  0.000000000000000E+000
  0.000000000000000E+000  0.000000000000000E+000  0.000000000000000E+000
  0.000000000000000E+000  0.000000000000000E+000  0.000000000000000E+000
  0.000000000000000E+000  0.000000000000000E+000  0.000000000000000E+000
  0.000000000000000E+000  0.000000000000000E+000  0.000000000000000E+000
  0.000000000000000E+000  0.000000000000000E+000  0.000000000000000E+000
  0.000000000000000E+000  0.000000000000000E+000  0.000000000000000E+000
  0.000000000000000E+000  0.000000000000000E+000  0.000000000000000E+000
  0.000000000000000E+000  0.000000000000000E+000  0.000000000000000E+000
  0.000000000000000E+000  0.000000000000000E+000  0.000000000000000E+000
  0.000000000000000E+000  0.000000000000000E+000  0.000000000000000E+000
  0.000000000000000E+000  0.000000000000000E+000  0.000000000000000E+000
  0.000000000000000E+000  0.000000000000000E+000  0.000000000000000E+000
  0.000000000000000E+000  0.000000000000000E+000  0.000000000000000E+000
  0.000000000000000E+000  0.000000000000000E+000  0.000000000000000E+000
  0.000000000000000E+000  0.000000000000000E+000  0.000000000000000E+000
  0.000000000000000E+000  0.000000000000000E+000  0.000000000000000E+000
  0.000000000000000E+000  0.000000000000000E+000  0.000000000000000E+000