 Title = "Wing and Wake"
 VARIABLES = "X" "Y" "Z" "GAM" "skew"
 Zone I=   11 J=   26 K=1  T="Blade"
 DATAPACKING=BLOCK
 VARLOCATION=([4]=CELLCENTERED,[5]=CELLCENTERED)
  0.216187037000970       0.197828035361687       0.179469033722404     
  0.161110032083121       0.142751030443838       0.124392028804555     
  0.106033027165272       8.767402552598949E-002  6.931502388670675E-002
  5.095602224742352E-002  3.259702060814070E-002  0.216829475918845     
  0.198470474279562       0.180111472640279       0.161752471000997     
  0.143393469361714       0.125034467722431       0.106675466083148     
  8.831646444386490E-002  6.995746280458197E-002  5.159846116529912E-002
  3.323945952601592E-002  0.218746661026962       0.200387659387679     
  0.182028657748396       0.163669656109113       0.145310654469830     
  0.126951652830547       0.108592651191264       9.023364955198163E-002
  7.187464791269864E-002  5.351564627341548E-002  3.515664463413280E-002
  0.221908357170894       0.203549355531611       0.185190353892328     
  0.166831352253046       0.148472350613762       0.130113348974479     
  0.111754347335197       9.339534569591372E-002  7.503634405663072E-002
  5.667734241734766E-002  3.831834077806507E-002  0.226264702513746     
  0.207905700874464       0.189546699235180       0.171187697595897     
  0.152828695956614       0.134469694317332       0.116110692678049     
  9.775169103876583E-002  7.939268939948292E-002  6.103368776020006E-002
  4.267468612091704E-002  0.231746994887107       0.213387993247824     
  0.195028991608541       0.176669989969258       0.158310988329975     
  0.139951986690692       0.121592985051409       0.103233983412127     
  8.487498177284346E-002  6.651598013356028E-002  4.815697849427741E-002
  0.238268775265285       0.219909773626002       0.201550771986720     
  0.183191770347437       0.164832768708154       0.146473767068871     
  0.128114765429588       0.109755763790305       9.139676215102251E-002
  7.303776051173928E-002  5.467875887245642E-002  0.245727191275795     
  0.227368189636512       0.209009187997230       0.190650186357947     
  0.172291184718664       0.153932183079381       0.135573181440098     
  0.117214179800816       9.885517816153216E-002  8.049617652224955E-002
  6.213717488296657E-002  0.254004619242710       0.235645617603426     
  0.217286615964144       0.198927614324861       0.180568612685578     
  0.162209611046295       0.143850609407012       0.125491607767729     
  0.107132606128446       8.877360448916331E-002  7.041460284988064E-002
  0.262970519182293       0.244611517543010       0.226252515903728     
  0.207893514264444       0.189534512625162       0.171175510985879     
  0.152816509346596       0.134457507707313       0.116098506068030     
  9.773950442874713E-002  7.938050278946400E-002  0.272483493496531     
  0.254124491857248       0.235765490217965       0.217406488578682     
  0.199047486939399       0.180688485300116       0.162329483660833     
  0.143970482021550       0.125611480382267       0.107252478742984     
  8.889347710370150E-002  0.282393516897710       0.264034515258428     
  0.245675513619145       0.227316511979861       0.208957510340578     
  0.190598508701296       0.172239507062013       0.153880505422730     
  0.135521503783447       0.117162502144164       9.880350050488142E-002
  0.292544302396836       0.274185300757552       0.255826299118269     
  0.237467297478987       0.219108295839703       0.200749294200421     
  0.182390292561138       0.164031290921855       0.145672289282572     
  0.127313287643289       0.108954286004006       0.302775766042800     
  0.284416764403516       0.266057762764233       0.247698761124950     
  0.229339759485667       0.210980757846384       0.192621756207101     
  0.174262754567819       0.155903752928536       0.137544751289252     
  0.119185749649969       0.312926551541924       0.294567549902641     
  0.276208548263358       0.257849546624075       0.239490544984792     
  0.221131543345510       0.202772541706226       0.184413540066942     
  0.166054538427660       0.147695536788377       0.129336535149095     
  0.322836574943104       0.304477573303820       0.286118571664538     
  0.267759570025256       0.249400568385973       0.231041566746689     
  0.212682565107407       0.194323563468123       0.175964561828841     
  0.157605560189557       0.139246558550275       0.332349549257341     
  0.313990547618058       0.295631545978775       0.277272544339493     
  0.258913542700209       0.240554541060927       0.222195539421643     
  0.203836537782361       0.185477536143078       0.167118534503795     
  0.148759532864512       0.341315449196925       0.322956447557642     
  0.304597445918358       0.286238444279076       0.267879442639793     
  0.249520441000511       0.231161439361227       0.212802437721944     
  0.194443436082661       0.176084434443378       0.157725432804096     
  0.349592877163838       0.331233875524555       0.312874873885272     
  0.294515872245990       0.276156870606707       0.257797868967424     
  0.239438867328141       0.221079865688858       0.202720864049576     
  0.184361862410292       0.166002860771010       0.357051293174349     
  0.338692291535066       0.320333289895783       0.301974288256500     
  0.283615286617218       0.265256284977933       0.246897283338652     
  0.228538281699368       0.210179280060085       0.191820278420802     
  0.173461276781520       0.363573073552527       0.345214071913244     
  0.326855070273961       0.308496068634679       0.290137066995396     
  0.271778065356113       0.253419063716829       0.235060062077546     
  0.216701060438264       0.198342058798981       0.179983057159698     
  0.369055365925889       0.350696364286606       0.332337362647321     
  0.313978361008039       0.295619359368758       0.277260357729474     
  0.258901356090190       0.240542354450908       0.222183352811625     
  0.203824351172341       0.185465349533058       0.373411711268739     
  0.355052709629457       0.336693707990174       0.318334706350892     
  0.299975704711609       0.281616703072326       0.263257701433043     
  0.244898699793760       0.226539698154476       0.208180696515195     
  0.189821694875910       0.376573407412673       0.358214405773391     
  0.339855404134106       0.321496402494823       0.303137400855541     
  0.284778399216257       0.266419397576975       0.248060395937691     
  0.229701394298409       0.211342392659125       0.192983391019843     
  0.378490592520789       0.360131590881507       0.341772589242225     
  0.323413587602940       0.305054585963657       0.286695584324374     
  0.268336582685090       0.249977581045808       0.231618579406526     
  0.213259577767243       0.194900576127960       0.379133031438664     
  0.360774029799380       0.342415028160100       0.324056026520815     
  0.305697024881532       0.287338023242250       0.268979021602967     
  0.250620019963683       0.232261018324401       0.213902016685117     
  0.195543015045835     
 -0.155850743041083      -0.159038575224539      -0.162226407407994     
 -0.165414239591450      -0.168602071774906      -0.171789903958361     
 -0.174977736141817      -0.178165568325273      -0.181353400508728     
 -0.184541232692184      -0.187729064875640      -0.159550604410080     
 -0.162738436593536      -0.165926268776991      -0.169114100960447     
 -0.172301933143903      -0.175489765327358      -0.178677597510814     
 -0.181865429694269      -0.185053261877725      -0.188241094061181     
 -0.191428926244637      -0.170591839493091      -0.173779671676547     
 -0.176967503860002      -0.180155336043458      -0.183343168226913     
 -0.186531000410370      -0.189718832593825      -0.192906664777281     
 -0.196094496960736      -0.199282329144192      -0.202470161327647     
 -0.188800321417144      -0.191988153600600      -0.195175985784055     
 -0.198363817967511      -0.201551650150966      -0.204739482334422     
 -0.207927314517878      -0.211115146701333      -0.214302978884789     
 -0.217490811068245      -0.220678643251700      -0.213888891545075     
 -0.217076723728531      -0.220264555911987      -0.223452388095442     
 -0.226640220278898      -0.229828052462354      -0.233015884645810     
 -0.236203716829265      -0.239391549012721      -0.242579381196176     
 -0.245767213379632      -0.245461888138783      -0.248649720322239     
 -0.251837552505695      -0.255025384689151      -0.258213216872607     
 -0.261401049056062      -0.264588881239517      -0.267776713422973     
 -0.270964545606429      -0.274152377789884      -0.277340209973340     
 -0.283021386181191      -0.286209218364646      -0.289397050548102     
 -0.292584882731558      -0.295772714915014      -0.298960547098470     
 -0.302148379281925      -0.305336211465381      -0.308524043648836     
 -0.311711875832291      -0.314899708015747      -0.325975049951213     
 -0.329162882134668      -0.332350714318125      -0.335538546501580     
 -0.338726378685035      -0.341914210868491      -0.345102043051947     
 -0.348289875235402      -0.351477707418858      -0.354665539602313     
 -0.357853371785770      -0.373645474511921      -0.376833306695377     
 -0.380021138878832      -0.383208971062288      -0.386396803245744     
 -0.389584635429199      -0.392772467612654      -0.395960299796110     
 -0.399148131979566      -0.402335964163022      -0.405523796346477     
 -0.425280868791061      -0.428468700974516      -0.431656533157973     
 -0.434844365341428      -0.438032197524884      -0.441220029708339     
 -0.444407861891794      -0.447595694075251      -0.450783526258706     
 -0.453971358442161      -0.457159190625617      -0.480066911775362     
 -0.483254743958818      -0.486442576142273      -0.489630408325729     
 -0.492818240509185      -0.496006072692641      -0.499193904876096     
 -0.502381737059552      -0.505569569243007      -0.508757401426463     
 -0.511945233609918      -0.537139594839366      -0.540327427022821     
 -0.543515259206278      -0.546703091389732      -0.549890923573188     
 -0.553078755756644      -0.556266587940100      -0.559454420123555     
 -0.562642252307011      -0.565830084490466      -0.569017916673922     
 -0.595598847677585      -0.598786679861041      -0.601974512044495     
 -0.605162344227952      -0.608350176411407      -0.611538008594863     
 -0.614725840778319      -0.617913672961775      -0.621101505145230     
 -0.624289337328686      -0.627477169512141      -0.654522732950896     
 -0.657710565134351      -0.660898397317805      -0.664086229501262     
 -0.667274061684718      -0.670461893868174      -0.673649726051630     
 -0.676837558235084      -0.680025390418542      -0.683213222601996     
 -0.686401054785452      -0.712981985789114      -0.716169817972570     
 -0.719357650156027      -0.722545482339480      -0.725733314522936     
 -0.728921146706393      -0.732108978889847      -0.735296811073304     
 -0.738484643256758      -0.741672475440213      -0.744860307623671     
 -0.770054668853118      -0.773242501036573      -0.776430333220030     
 -0.779618165403485      -0.782805997586941      -0.785993829770396     
 -0.789181661953851      -0.792369494137307      -0.795557326320763     
 -0.798745158504217      -0.801932990687675      -0.824840711837419     
 -0.828028544020875      -0.831216376204330      -0.834404208387787     
 -0.837592040571241      -0.840779872754697      -0.843967704938153     
 -0.847155537121609      -0.850343369305064      -0.853531201488521     
 -0.856719033671976      -0.876476106116560      -0.879663938300015     
 -0.882851770483470      -0.886039602666926      -0.889227434850381     
 -0.892415267033838      -0.895603099217293      -0.898790931400748     
 -0.901978763584204      -0.905166595767659      -0.908354427951115     
 -0.924146530677267      -0.927334362860721      -0.930522195044178     
 -0.933710027227633      -0.936897859411089      -0.940085691594545     
 -0.943273523778000      -0.946461355961457      -0.949649188144913     
 -0.952837020328367      -0.956024852511823      -0.967100194447288     
 -0.970288026630745      -0.973475858814199      -0.976663690997657     
 -0.979851523181111      -0.983039355364566      -0.986227187548022     
 -0.989415019731479      -0.992602851914934      -0.995790684098390     
 -0.998978516281844       -1.00465969248970       -1.00784752467315     
  -1.01103535685661       -1.01422318904006       -1.01741102122352     
  -1.02059885340697       -1.02378668559043       -1.02697451777389     
  -1.03016234995734       -1.03335018214080       -1.03653801432425     
  -1.03623268908340       -1.03942052126686       -1.04260835345031     
  -1.04579618563377       -1.04898401781723       -1.05217185000068     
  -1.05535968218414       -1.05854751436759       -1.06173534655105     
  -1.06492317873451       -1.06811101091796       -1.06132125921134     
  -1.06450909139479       -1.06769692357825       -1.07088475576170     
  -1.07407258794516       -1.07726042012861       -1.08044825231207     
  -1.08363608449553       -1.08682391667898       -1.09001174886244     
  -1.09319958104589       -1.07952974113539       -1.08271757331884     
  -1.08590540550230       -1.08909323768575       -1.09228106986921     
  -1.09546890205267       -1.09865673423612       -1.10184456641958     
  -1.10503239860303       -1.10822023078649       -1.11140806296994     
  -1.09057097621840       -1.09375880840185       -1.09694664058531     
  -1.10013447276876       -1.10332230495222       -1.10651013713568     
  -1.10969796931913       -1.11288580150259       -1.11607363368605     
  -1.11926146586950       -1.12244929805296       -1.09427083758739     
  -1.09745866977085       -1.10064650195431       -1.10383433413776     
  -1.10702216632122       -1.11020999850468       -1.11339783068813     
  -1.11658566287159       -1.11977349505504       -1.12296132723850     
  -1.12614915942195     
  3.960717710078315E-002  3.564645939070483E-002  3.168574168062652E-002
  2.772502397054821E-002  2.376430626046989E-002  1.980358855039158E-002
  1.584287084031326E-002  1.188215313023495E-002  7.921435420156629E-003
  3.960717710078312E-003  0.000000000000000E+000  3.960717710078315E-002
  3.564645939070483E-002  3.168574168062652E-002  2.772502397054821E-002
  2.376430626046989E-002  1.980358855039158E-002  1.584287084031326E-002
  1.188215313023495E-002  7.921435420156629E-003  3.960717710078312E-003
  0.000000000000000E+000  3.960717710078315E-002  3.564645939070483E-002
  3.168574168062652E-002  2.772502397054821E-002  2.376430626046989E-002
  1.980358855039158E-002  1.584287084031326E-002  1.188215313023495E-002
  7.921435420156629E-003  3.960717710078312E-003  0.000000000000000E+000
  3.960717710078315E-002  3.564645939070483E-002  3.168574168062652E-002
  2.772502397054821E-002  2.376430626046989E-002  1.980358855039158E-002
  1.584287084031326E-002  1.188215313023495E-002  7.921435420156629E-003
  3.960717710078312E-003  0.000000000000000E+000  3.960717710078315E-002
  3.564645939070483E-002  3.168574168062652E-002  2.772502397054821E-002
  2.376430626046989E-002  1.980358855039158E-002  1.584287084031326E-002
  1.188215313023495E-002  7.921435420156629E-003  3.960717710078312E-003
  0.000000000000000E+000  3.960717710078315E-002  3.564645939070483E-002
  3.168574168062652E-002  2.772502397054821E-002  2.376430626046989E-002
  1.980358855039158E-002  1.584287084031326E-002  1.188215313023495E-002
  7.921435420156629E-003  3.960717710078312E-003  0.000000000000000E+000
  3.960717710078315E-002  3.564645939070483E-002  3.168574168062652E-002
  2.772502397054821E-002  2.376430626046989E-002  1.980358855039158E-002
  1.584287084031326E-002  1.188215313023495E-002  7.921435420156629E-003
  3.960717710078312E-003  0.000000000000000E+000  3.960717710078315E-002
  3.564645939070483E-002  3.168574168062652E-002  2.772502397054821E-002
  2.376430626046989E-002  1.980358855039158E-002  1.584287084031326E-002
  1.188215313023495E-002  7.921435420156629E-003  3.960717710078312E-003
  0.000000000000000E+000  3.960717710078315E-002  3.564645939070483E-002
  3.168574168062652E-002  2.772502397054821E-002  2.376430626046989E-002
  1.980358855039158E-002  1.584287084031326E-002  1.188215313023495E-002
  7.921435420156629E-003  3.960717710078312E-003  0.000000000000000E+000
  3.960717710078315E-002  3.564645939070483E-002  3.168574168062652E-002
  2.772502397054821E-002  2.376430626046989E-002  1.980358855039158E-002
  1.584287084031326E-002  1.188215313023495E-002  7.921435420156629E-003
  3.960717710078312E-003  0.000000000000000E+000  3.960717710078315E-002
  3.564645939070483E-002  3.168574168062652E-002  2.772502397054821E-002
  2.376430626046989E-002  1.980358855039158E-002  1.584287084031326E-002
  1.188215313023495E-002  7.921435420156629E-003  3.960717710078312E-003
  0.000000000000000E+000  3.960717710078315E-002  3.564645939070483E-002
  3.168574168062652E-002  2.772502397054821E-002  2.376430626046989E-002
  1.980358855039158E-002  1.584287084031326E-002  1.188215313023495E-002
  7.921435420156629E-003  3.960717710078312E-003  0.000000000000000E+000
  3.960717710078315E-002  3.564645939070483E-002  3.168574168062652E-002
  2.772502397054821E-002  2.376430626046989E-002  1.980358855039158E-002
  1.584287084031326E-002  1.188215313023495E-002  7.921435420156629E-003
  3.960717710078312E-003  0.000000000000000E+000  3.960717710078315E-002
  3.564645939070483E-002  3.168574168062652E-002  2.772502397054821E-002
  2.376430626046989E-002  1.980358855039158E-002  1.584287084031326E-002
  1.188215313023495E-002  7.921435420156629E-003  3.960717710078312E-003
  0.000000000000000E+000  3.960717710078315E-002  3.564645939070483E-002
  3.168574168062652E-002  2.772502397054821E-002  2.376430626046989E-002
  1.980358855039158E-002  1.584287084031326E-002  1.188215313023495E-002
  7.921435420156629E-003  3.960717710078312E-003  0.000000000000000E+000
  3.960717710078315E-002  3.564645939070483E-002  3.168574168062652E-002
  2.772502397054821E-002  2.376430626046989E-002  1.980358855039158E-002
  1.584287084031326E-002  1.188215313023495E-002  7.921435420156629E-003
  3.960717710078312E-003  0.000000000000000E+000  3.960717710078315E-002
  3.564645939070483E-002  3.168574168062652E-002  2.772502397054821E-002
  2.376430626046989E-002  1.980358855039158E-002  1.584287084031326E-002
  1.188215313023495E-002  7.921435420156629E-003  3.960717710078312E-003
  0.000000000000000E+000  3.960717710078315E-002  3.564645939070483E-002
  3.168574168062652E-002  2.772502397054821E-002  2.376430626046989E-002
  1.980358855039158E-002  1.584287084031326E-002  1.188215313023495E-002
  7.921435420156629E-003  3.960717710078312E-003  0.000000000000000E+000
  3.960717710078315E-002  3.564645939070483E-002  3.168574168062652E-002
  2.772502397054821E-002  2.376430626046989E-002  1.980358855039158E-002
  1.584287084031326E-002  1.188215313023495E-002  7.921435420156629E-003
  3.960717710078312E-003  0.000000000000000E+000  3.960717710078315E-002
  3.564645939070483E-002  3.168574168062652E-002  2.772502397054821E-002
  2.376430626046989E-002  1.980358855039158E-002  1.584287084031326E-002
  1.188215313023495E-002  7.921435420156629E-003  3.960717710078312E-003
  0.000000000000000E+000  3.960717710078315E-002  3.564645939070483E-002
  3.168574168062652E-002  2.772502397054821E-002  2.376430626046989E-002
  1.980358855039158E-002  1.584287084031326E-002  1.188215313023495E-002
  7.921435420156629E-003  3.960717710078312E-003  0.000000000000000E+000
  3.960717710078315E-002  3.564645939070483E-002  3.168574168062652E-002
  2.772502397054821E-002  2.376430626046989E-002  1.980358855039158E-002
  1.584287084031326E-002  1.188215313023495E-002  7.921435420156629E-003
  3.960717710078312E-003  0.000000000000000E+000  3.960717710078315E-002
  3.564645939070483E-002  3.168574168062652E-002  2.772502397054821E-002
  2.376430626046989E-002  1.980358855039158E-002  1.584287084031326E-002
  1.188215313023495E-002  7.921435420156629E-003  3.960717710078312E-003
  0.000000000000000E+000  3.960717710078315E-002  3.564645939070483E-002
  3.168574168062652E-002  2.772502397054821E-002  2.376430626046989E-002
  1.980358855039158E-002  1.584287084031326E-002  1.188215313023495E-002
  7.921435420156629E-003  3.960717710078312E-003  0.000000000000000E+000
  3.960717710078315E-002  3.564645939070483E-002  3.168574168062652E-002
  2.772502397054821E-002  2.376430626046989E-002  1.980358855039158E-002
  1.584287084031326E-002  1.188215313023495E-002  7.921435420156629E-003
  3.960717710078312E-003  0.000000000000000E+000  3.960717710078315E-002
  3.564645939070483E-002  3.168574168062652E-002  2.772502397054821E-002
  2.376430626046989E-002  1.980358855039158E-002  1.584287084031326E-002
  1.188215313023495E-002  7.921435420156629E-003  3.960717710078312E-003
  0.000000000000000E+000
  0.244397251240790       0.325558892974301       0.376729351306732     
  0.413547242963878       0.441198980695514       0.462824813768595     
  0.479514460951934       0.491746083759284       0.500586897857401     
  0.505741994988612       0.396643814279230       0.540200522972689     
  0.630089514580381       0.694264210620361       0.742186017307472     
  0.779358323342485       0.807771386133562       0.828356602940749     
  0.843147938523200       0.853328947502250       0.486287083997044     
  0.695849857351593       0.830178093842780       0.925917883855576     
  0.996785949386750        1.05037676255333        1.09010077848063     
   1.11762493707254        1.13550522273272        1.14457982624888     
  0.472655036021716       0.722320738982785       0.896729333017738     
   1.02722797623388        1.12423212327937        1.19446159010213     
   1.24364689641746        1.27491469624693        1.29098778821433     
   1.29394486286598       0.415151681571900       0.652576703946915     
  0.836284880607887       0.983412345342139        1.09598048480483     
   1.17784087646888        1.23476432488700        1.27008203338200     
   1.28658530642483        1.28697814939868       0.403765541971945     
  0.625971741637802       0.798052037609472       0.935328212820313     
   1.04064847538899        1.11697008117240        1.16933923701551     
   1.20341196179743        1.22200448252000        1.22726123285961     
  0.442184268691727       0.668484047381718       0.833574749998473     
  0.959277395134491        1.05332469653940        1.12202627432789     
   1.17249723202115        1.21071417989435        1.23872911310524     
   1.25556412396543       0.502319314557380       0.748452682836025     
  0.924351756807991        1.06011791693546        1.16723401613399     
   1.25248835016390        1.32085487911327        1.37563825109815     
   1.41812717792601        1.44638071205836       0.612939457555715     
  0.908352997321170        1.11912324270365        1.28407924649514     
   1.41803528643512        1.52854067475908        1.61982571153179     
   1.69405877394764        1.75162014978152        1.78976191018755     
  0.764377815266448        1.12944769789827        1.38888550314053     
   1.59185565441513        1.75684582741424        1.89302734868238     
   2.00541871996465        2.09655087200986        2.16682361341403     
   2.21303846624778       0.937352789330236        1.38211641314110     
   1.69658554463165        1.94164622911235        2.14012997775773     
   2.30327914257299        2.43727702896731        2.54534478576394     
   2.62816894336576        2.68227418452398        1.12463811685344     
   1.65545480310370        2.02893440649450        2.31865136018794     
   2.55227687588489        2.74344246333617        2.89967681963880     
   3.02500428182191        3.12049600706800        3.18248287875488     
   1.32280865505653        1.94420354110037        2.37938124993575     
   2.71540035638783        2.98512117403650        3.20480219553779     
   3.38346520364844        3.52602305261185        3.63401268649695     
   3.70365323605016        1.52940412781283        2.24449035562221     
   2.74291699743072        3.12593059912727        3.43187622425026     
   3.67983118219397        3.88045791767395        4.03965857724653     
   4.15951604992620        4.23625847342229        1.74366439878604     
   2.55465733356615        3.11686570014467        3.54648840151982     
   3.88771502065023        4.16266387337160        4.38382498286078     
   4.55825269819471        4.68871112474674        4.77161434480429     
   1.96819205278896        2.87726173258762        3.50294119858891     
   3.97759816574607        4.35187228618365        4.65129749605310     
   4.89044649013456        5.07773540108349        5.21681259622942     
   5.30451572116200        2.20736899073319        3.21657629802052     
   3.90418734353386        4.42079519439306        4.82446975902871     
   5.14471199627194        5.39848830622814        5.59576357134169     
   5.74121874297045        5.83230749084839        2.44964743186831     
   3.55496205692195        4.29853518098090        4.85066753367439     
   5.27757072003662        5.61306701170076        5.87668743316391     
   6.08003129960031        6.22889028893123        6.32151495401467     
   2.65172911291556        3.82958807802756        4.61018082625800     
   5.18203799399333        5.61895217973720        5.95864347564999     
   6.22288898546803        6.42472065478815        6.57097440038682     
   6.66098293090154        2.76500452190839        3.97014679439914     
   4.75497552137131        5.32146051049834        5.74918322111444     
   6.07872049446176        6.33330761597116        6.52672513118553     
   6.66625296165003        6.75187409569827        2.72944847569013     
   3.88858026975788        4.62575717191698        5.14743446869880     
   5.53523751219764        5.83044321971692        6.05619181402424     
   6.22574174603368        6.34587516645450        6.41733420224770     
   2.53360186283757        3.56190395109405        4.19353312961457     
   4.63046684187855        4.95063421268837        5.19196280703122     
   5.37491042907656        5.51065980168116        5.60445021876029     
   5.65681929535179        2.18411541226435        3.00088335906922     
   3.48347803353071        3.81250230735274        4.05234194588606     
   4.23274532210433        4.36933175256003        4.47056516689328     
   4.54059449990264        4.58052525447369        1.66804288482839     
   2.21906357840560        2.54025680440416        2.75975542822434     
   2.92034021288249        3.04150164501269        3.13350732442965     
   3.20215940273462        3.25121940756958        3.28635795795565     
   1.01364597364669        1.32218556423008        1.50372324155213     
   1.62847564040931        1.72005879979984        1.78931431998978     
   1.84198212804142        1.88129346303330        1.90907376027187     
   1.92578258772137     
  0.000000000000000E+000  0.000000000000000E+000  0.000000000000000E+000
  0.000000000000000E+000  0.000000000000000E+000  0.000000000000000E+000
  0.000000000000000E+000  0.000000000000000E+000  0.000000000000000E+000
  0.000000000000000E+000  0.000000000000000E+000  0.000000000000000E+000
  0.000000000000000E+000  0.000000000000000E+000  0.000000000000000E+000
  0.000000000000000E+000  0.000000000000000E+000  0.000000000000000E+000
  0.000000000000000E+000  0.000000000000000E+000  0.000000000000000E+000
  0.000000000000000E+000  0.000000000000000E+000  0.000000000000000E+000
  0.000000000000000E+000  0.000000000000000E+000  0.000000000000000E+000
  0.000000000000000E+000  0.000000000000000E+000  0.000000000000000E+000
  0.000000000000000E+000  0.000000000000000E+000  0.000000000000000E+000
  0.000000000000000E+000  0.000000000000000E+000  0.000000000000000E+000
  0.000000000000000E+000  0.000000000000000E+000  0.000000000000000E+000
  0.000000000000000E+000  0.000000000000000E+000  0.000000000000000E+000
  0.000000000000000E+000  0.000000000000000E+000  0.000000000000000E+000
  0.000000000000000E+000  0.000000000000000E+000  0.000000000000000E+000
  0.000000000000000E+000  0.000000000000000E+000  0.000000000000000E+000
  0.000000000000000E+000  0.000000000000000E+000  0.000000000000000E+000
  0.000000000000000E+000  0.000000000000000E+000  0.000000000000000E+000
  0.000000000000000E+000  0.000000000000000E+000  0.000000000000000E+000
  0.000000000000000E+000  0.000000000000000E+000  0.000000000000000E+000
  0.000000000000000E+000  0.000000000000000E+000  0.000000000000000E+000
  0.000000000000000E+000  0.000000000000000E+000  0.000000000000000E+000
  0.000000000000000E+000  0.000000000000000E+000  0.000000000000000E+000
  0.000000000000000E+000  0.000000000000000E+000  0.000000000000000E+000
  0.000000000000000E+000  0.000000000000000E+000  0.000000000000000E+000
  0.000000000000000E+000  0.000000000000000E+000  0.000000000000000E+000
  0.000000000000000E+000  0.000000000000000E+000  0.000000000000000E+000
  0.000000000000000E+000  0.000000000000000E+000  0.000000000000000E+000
  0.000000000000000E+000  0.000000000000000E+000  0.000000000000000E+000
  0.000000000000000E+000  0.000000000000000E+000  0.000000000000000E+000
  0.000000000000000E+000  0.000000000000000E+000  0.000000000000000E+000
  0.000000000000000E+000  0.000000000000000E+000  0.000000000000000E+000
  0.000000000000000E+000  0.000000000000000E+000  0.000000000000000E+000
  0.000000000000000E+000  0.000000000000000E+000  0.000000000000000E+000
  0.000000000000000E+000  0.000000000000000E+000  0.000000000000000E+000
  0.000000000000000E+000  0.000000000000000E+000  0.000000000000000E+000
  0.000000000000000E+000  0.000000000000000E+000  0.000000000000000E+000
  0.000000000000000E+000  0.000000000000000E+000  0.000000000000000E+000