 Title = "Wing and Wake"
 VARIABLES = "X" "Y" "Z" "GAM" "skew"
 Zone I=   11 J=   26 K=1  T="Blade"
 DATAPACKING=BLOCK
 VARLOCATION=([4]=CELLCENTERED,[5]=CELLCENTERED)
 -0.126289793331146      -0.131847407826453      -0.137405022321759     
 -0.142962636817066      -0.148520251312372      -0.154077865807678     
 -0.159635480302985      -0.165193094798291      -0.170750709293598     
 -0.176308323788904      -0.181865938284211      -0.129874101173088     
 -0.135431715668395      -0.140989330163701      -0.146546944659008     
 -0.152104559154314      -0.157662173649620      -0.163219788144926     
 -0.168777402640233      -0.174335017135540      -0.179892631630846     
 -0.185450246126152      -0.140570498023084      -0.146128112518390     
 -0.151685727013696      -0.157243341509003      -0.162800956004309     
 -0.168358570499616      -0.173916184994922      -0.179473799490228     
 -0.185031413985534      -0.190589028480841      -0.196146642976147     
 -0.158210295313091      -0.163767909808398      -0.169325524303704     
 -0.174883138799010      -0.180440753294317      -0.185998367789623     
 -0.191555982284929      -0.197113596780236      -0.202671211275542     
 -0.208228825770849      -0.213786440266155      -0.182515302902342     
 -0.188072917397649      -0.193630531892955      -0.199188146388262     
 -0.204745760883568      -0.210303375378875      -0.215860989874181     
 -0.221418604369487      -0.226976218864794      -0.232533833360100     
 -0.238091447855406      -0.213102216302048      -0.218659830797355     
 -0.224217445292661      -0.229775059787967      -0.235332674283274     
 -0.240890288778581      -0.246447903273886      -0.252005517769193     
 -0.257563132264499      -0.263120746759805      -0.268678361255112     
 -0.249488661616157      -0.255046276111464      -0.260603890606770     
 -0.266161505102077      -0.271719119597383      -0.277276734092690     
 -0.282834348587996      -0.288391963083302      -0.293949577578608     
 -0.299507192073914      -0.305064806569221      -0.291100802865859     
 -0.296658417361165      -0.302216031856473      -0.307773646351779     
 -0.313331260847085      -0.318888875342391      -0.324446489837698     
 -0.330004104333004      -0.335561718828310      -0.341119333323616     
 -0.346676947818924      -0.337282391725756      -0.342840006221064     
 -0.348397620716370      -0.353955235211676      -0.359512849706983     
 -0.365070464202289      -0.370628078697594      -0.376185693192901     
 -0.381743307688208      -0.387300922183514      -0.392858536678821     
 -0.387305116951985      -0.392862731447292      -0.398420345942599     
 -0.403977960437905      -0.409535574933211      -0.415093189428517     
 -0.420650803923823      -0.426208418419131      -0.431766032914436     
 -0.437323647409742      -0.442881261905049      -0.440380090285601     
 -0.445937704780907      -0.451495319276213      -0.457052933771519     
 -0.462610548266826      -0.468168162762133      -0.473725777257438     
 -0.479283391752745      -0.484841006248051      -0.490398620743357     
 -0.495956235238664      -0.495670287691678      -0.501227902186984     
 -0.506785516682291      -0.512343131177596      -0.517900745672903     
 -0.523458360168210      -0.529015974663516      -0.534573589158822     
 -0.540131203654129      -0.545688818149434      -0.551246432644741     
 -0.552303749728361      -0.557861364223668      -0.563418978718973     
 -0.568976593214280      -0.574534207709586      -0.580091822204892     
 -0.585649436700200      -0.591207051195506      -0.596764665690812     
 -0.602322280186118      -0.607879894681424      -0.609387332868142     
 -0.614944947363447      -0.620502561858753      -0.626060176354060     
 -0.631617790849367      -0.637175405344673      -0.642733019839980     
 -0.648290634335284      -0.653848248830594      -0.659405863325899     
 -0.664963477821205      -0.666020794904824      -0.671578409400130     
 -0.677136023895438      -0.682693638390743      -0.688251252886049     
 -0.693808867381357      -0.699366481876662      -0.704924096371969     
 -0.710481710867274      -0.716039325362580      -0.721596939857889     
 -0.721310992310902      -0.726868606806208      -0.732426221301515     
 -0.737983835796820      -0.743541450292127      -0.749099064787434     
 -0.754656679282739      -0.760214293778046      -0.765771908273352     
 -0.771329522768658      -0.776887137263966      -0.774385965644516     
 -0.779943580139822      -0.785501194635128      -0.791058809130436     
 -0.796616423625742      -0.802174038121048      -0.807731652616355     
 -0.813289267111662      -0.818846881606968      -0.824404496102275     
 -0.829962110597581      -0.824408690870745      -0.829966305366051     
 -0.835523919861357      -0.841081534356664      -0.846639148851970     
 -0.852196763347278      -0.857754377842583      -0.863311992337889     
 -0.868869606833196      -0.874427221328502      -0.879984835823808     
 -0.870590279730642      -0.876147894225947      -0.881705508721255     
 -0.887263123216561      -0.892820737711868      -0.898378352207175     
 -0.903935966702479      -0.909493581197787      -0.915051195693094     
 -0.920608810188400      -0.926166424683705      -0.912202420980344     
 -0.917760035475651      -0.923317649970956      -0.928875264466265     
 -0.934432878961569      -0.939990493456875      -0.945548107952181     
 -0.951105722447490      -0.956663336942795      -0.962220951438102     
 -0.967778565933406      -0.948588866294455      -0.954146480789761     
 -0.959704095285065      -0.965261709780372      -0.970819324275679     
 -0.976376938770985      -0.981934553266293      -0.987492167761598     
 -0.993049782256905      -0.998607396752210       -1.00416501124752     
 -0.979175779694158      -0.984733394189465      -0.990291008684772     
 -0.995848623180078       -1.00140623767538       -1.00696385217069     
  -1.01252146666600       -1.01807908116130       -1.02363669565661     
  -1.02919431015192       -1.03475192464722       -1.00348078728341     
  -1.00903840177872       -1.01459601627402       -1.02015363076933     
  -1.02571124526464       -1.03126885975994       -1.03682647425525     
  -1.04238408875056       -1.04794170324586       -1.05349931774117     
  -1.05905693223647       -1.02112058457342       -1.02667819906872     
  -1.03223581356403       -1.03779342805934       -1.04335104255464     
  -1.04890865704995       -1.05446627154526       -1.06002388604056     
  -1.06558150053587       -1.07113911503118       -1.07669672952648     
  -1.03181698142341       -1.03737459591872       -1.04293221041403     
  -1.04848982490933       -1.05404743940464       -1.05960505389994     
  -1.06516266839525       -1.07072028289056       -1.07627789738587     
  -1.08183551188117       -1.08739312637648       -1.03540128926535     
  -1.04095890376066       -1.04651651825597       -1.05207413275127     
  -1.05763174724658       -1.06318936174189       -1.06874697623719     
  -1.07430459073250       -1.07986220522781       -1.08541981972311     
  -1.09097743421842     
 -0.234685272597350      -0.216899656601759      -0.199114040606168     
 -0.181328424610577      -0.163542808614986      -0.145757192619394     
 -0.127971576623803      -0.110185960628212      -9.240034463262116E-002
 -7.461472863702955E-002 -5.682911264143862E-002 -0.235805290100424     
 -0.218019674104833      -0.200234058109242      -0.182448442113651     
 -0.164662826118060      -0.146877210122468      -0.129091594126877     
 -0.111305978131286      -9.352036213569513E-002 -7.573474614010395E-002
 -5.794913014451254E-002 -0.239147679264557      -0.221362063268966     
 -0.203576447273374      -0.185790831277783      -0.168005215282192     
 -0.150219599286601      -0.132433983291009      -0.114648367295419     
 -9.686275129982748E-002 -7.907713530423600E-002 -6.129151930864511E-002
 -0.244659728615983      -0.226874112620391      -0.209088496624800     
 -0.191302880629209      -0.173517264633618      -0.155731648638027     
 -0.137946032642436      -0.120160416646845      -0.102374800651253     
 -8.458918465566209E-002 -6.680356866007124E-002 -0.252254509843691     
 -0.234468893848101      -0.216683277852509      -0.198897661856918     
 -0.181112045861327      -0.163326429865736      -0.145540813870145     
 -0.127755197874554      -0.109969581878962      -9.218396588337145E-002
 -7.439834988778010E-002 -0.261812248710820      -0.244026632715229     
 -0.226241016719638      -0.208455400724046      -0.190669784728456     
 -0.172884168732864      -0.155098552737273      -0.137312936741682     
 -0.119527320746091      -0.101741704750499      -8.395608875490819E-002
 -0.273182213965916      -0.255396597970326      -0.237610981974735     
 -0.219825365979144      -0.202039749983552      -0.184254133987962     
 -0.166468517992370      -0.148682901996779      -0.130897286001188     
 -0.113111670005597      -9.532605401000539E-002 -0.286185094464821     
 -0.268399478469230      -0.250613862473639      -0.232828246478048     
 -0.215042630482457      -0.197257014486866      -0.179471398491275     
 -0.161685782495684      -0.143900166500092      -0.126114550504501     
 -0.108328934508910      -0.300615827014522      -0.282830211018931     
 -0.265044595023339      -0.247258979027749      -0.229473363032158     
 -0.211687747036566      -0.193902131040974      -0.176116515045384     
 -0.158330899049792      -0.140545283054201      -0.122759667058611     
 -0.316246830342207      -0.298461214346616      -0.280675598351025     
 -0.262889982355434      -0.245104366359843      -0.227318750364251     
 -0.209533134368660      -0.191747518373069      -0.173961902377478     
 -0.156176286381887      -0.138390670386296      -0.332831594187891     
 -0.315045978192300      -0.297260362196709      -0.279474746201118     
 -0.261689130205527      -0.243903514209936      -0.226117898214344     
 -0.208332282218752      -0.190546666223162      -0.172761050227571     
 -0.154975434231979      -0.350108566918469      -0.332322950922878     
 -0.314537334927287      -0.296751718931695      -0.278966102936104     
 -0.261180486940514      -0.243394870944923      -0.225609254949331     
 -0.207823638953740      -0.190038022958149      -0.172252406962558     
 -0.367805280353218      -0.350019664357627      -0.332234048362034     
 -0.314448432366445      -0.296662816370853      -0.278877200375262     
 -0.261091584379670      -0.243305968384079      -0.225520352388489     
 -0.207734736392897      -0.189949120397306      -0.385642646749767     
 -0.367857030754174      -0.350071414758584      -0.332285798762992     
 -0.314500182767401      -0.296714566771810      -0.278928950776219     
 -0.261143334780628      -0.243357718785037      -0.225572102789446     
 -0.207786486793855      -0.403339360184514      -0.385553744188924     
 -0.367768128193333      -0.349982512197741      -0.332196896202149     
 -0.314411280206559      -0.296625664210968      -0.278840048215375     
 -0.261054432219784      -0.243268816224193      -0.225483200228603     
 -0.420616332915093      -0.402830716919501      -0.385045100923910     
 -0.367259484928320      -0.349473868932729      -0.331688252937137     
 -0.313902636941546      -0.296117020945955      -0.278331404950364     
 -0.260545788954772      -0.242760172959182      -0.437201096760777     
 -0.419415480765185      -0.401629864769594      -0.383844248774004     
 -0.366058632778411      -0.348273016782821      -0.330487400787229     
 -0.312701784791639      -0.294916168796047      -0.277130552800456     
 -0.259344936804866      -0.452832100088462      -0.435046484092870     
 -0.417260868097279      -0.399475252101688      -0.381689636106097     
 -0.363904020110506      -0.346118404114915      -0.328332788119323     
 -0.310547172123732      -0.292761556128141      -0.274975940132551     
 -0.467262832638161      -0.449477216642570      -0.431691600646979     
 -0.413905984651389      -0.396120368655797      -0.378334752660206     
 -0.360549136664615      -0.342763520669024      -0.324977904673433     
 -0.307192288677841      -0.289406672682250      -0.480265713137067     
 -0.462480097141475      -0.444694481145884      -0.426908865150293     
 -0.409123249154703      -0.391337633159109      -0.373552017163520     
 -0.355766401167929      -0.337980785172337      -0.320195169176746     
 -0.302409553181155      -0.491635678392163      -0.473850062396573     
 -0.456064446400981      -0.438278830405390      -0.420493214409799     
 -0.402707598414207      -0.384921982418616      -0.367136366423025     
 -0.349350750427435      -0.331565134431842      -0.313779518436252     
 -0.501193417259292      -0.483407801263702      -0.465622185268108     
 -0.447836569272518      -0.430050953276928      -0.412265337281336     
 -0.394479721285744      -0.376694105290154      -0.358908489294564     
 -0.341122873298970      -0.323337257303380      -0.508788198487000     
 -0.491002582491410      -0.473216966495819      -0.455431350500227     
 -0.437645734504636      -0.419860118509045      -0.402074502513455     
 -0.384288886517863      -0.366503270522272      -0.348717654526682     
 -0.330932038531088      -0.514300247838427      -0.496514631842836     
 -0.478729015847245      -0.460943399851654      -0.443157783856063     
 -0.425372167860470      -0.407586551864880      -0.389800935869287     
 -0.372015319873698      -0.354229703878105      -0.336444087882514     
 -0.517642637002559      -0.499857021006969      -0.482071405011378     
 -0.464285789015785      -0.446500173020194      -0.428714557024602     
 -0.410928941029011      -0.393143325033421      -0.375357709037831     
 -0.357572093042238      -0.339786477046648      -0.518762654505633     
 -0.500977038510041      -0.483191422514452      -0.465405806518859     
 -0.447620190523269      -0.429834574527678      -0.412048958532087     
 -0.394263342536495      -0.376477726540904      -0.358692110545312     
 -0.340906494549721     
  3.960717710078315E-002  3.564645939070483E-002  3.168574168062652E-002
  2.772502397054821E-002  2.376430626046989E-002  1.980358855039158E-002
  1.584287084031326E-002  1.188215313023495E-002  7.921435420156629E-003
  3.960717710078312E-003  0.000000000000000E+000  3.960717710078315E-002
  3.564645939070483E-002  3.168574168062652E-002  2.772502397054821E-002
  2.376430626046989E-002  1.980358855039158E-002  1.584287084031326E-002
  1.188215313023495E-002  7.921435420156629E-003  3.960717710078312E-003
  0.000000000000000E+000  3.960717710078315E-002  3.564645939070483E-002
  3.168574168062652E-002  2.772502397054821E-002  2.376430626046989E-002
  1.980358855039158E-002  1.584287084031326E-002  1.188215313023495E-002
  7.921435420156629E-003  3.960717710078312E-003  0.000000000000000E+000
  3.960717710078315E-002  3.564645939070483E-002  3.168574168062652E-002
  2.772502397054821E-002  2.376430626046989E-002  1.980358855039158E-002
  1.584287084031326E-002  1.188215313023495E-002  7.921435420156629E-003
  3.960717710078312E-003  0.000000000000000E+000  3.960717710078315E-002
  3.564645939070483E-002  3.168574168062652E-002  2.772502397054821E-002
  2.376430626046989E-002  1.980358855039158E-002  1.584287084031326E-002
  1.188215313023495E-002  7.921435420156629E-003  3.960717710078312E-003
  0.000000000000000E+000  3.960717710078315E-002  3.564645939070483E-002
  3.168574168062652E-002  2.772502397054821E-002  2.376430626046989E-002
  1.980358855039158E-002  1.584287084031326E-002  1.188215313023495E-002
  7.921435420156629E-003  3.960717710078312E-003  0.000000000000000E+000
  3.960717710078315E-002  3.564645939070483E-002  3.168574168062652E-002
  2.772502397054821E-002  2.376430626046989E-002  1.980358855039158E-002
  1.584287084031326E-002  1.188215313023495E-002  7.921435420156629E-003
  3.960717710078312E-003  0.000000000000000E+000  3.960717710078315E-002
  3.564645939070483E-002  3.168574168062652E-002  2.772502397054821E-002
  2.376430626046989E-002  1.980358855039158E-002  1.584287084031326E-002
  1.188215313023495E-002  7.921435420156629E-003  3.960717710078312E-003
  0.000000000000000E+000  3.960717710078315E-002  3.564645939070483E-002
  3.168574168062652E-002  2.772502397054821E-002  2.376430626046989E-002
  1.980358855039158E-002  1.584287084031326E-002  1.188215313023495E-002
  7.921435420156629E-003  3.960717710078312E-003  0.000000000000000E+000
  3.960717710078315E-002  3.564645939070483E-002  3.168574168062652E-002
  2.772502397054821E-002  2.376430626046989E-002  1.980358855039158E-002
  1.584287084031326E-002  1.188215313023495E-002  7.921435420156629E-003
  3.960717710078312E-003  0.000000000000000E+000  3.960717710078315E-002
  3.564645939070483E-002  3.168574168062652E-002  2.772502397054821E-002
  2.376430626046989E-002  1.980358855039158E-002  1.584287084031326E-002
  1.188215313023495E-002  7.921435420156629E-003  3.960717710078312E-003
  0.000000000000000E+000  3.960717710078315E-002  3.564645939070483E-002
  3.168574168062652E-002  2.772502397054821E-002  2.376430626046989E-002
  1.980358855039158E-002  1.584287084031326E-002  1.188215313023495E-002
  7.921435420156629E-003  3.960717710078312E-003  0.000000000000000E+000
  3.960717710078315E-002  3.564645939070483E-002  3.168574168062652E-002
  2.772502397054821E-002  2.376430626046989E-002  1.980358855039158E-002
  1.584287084031326E-002  1.188215313023495E-002  7.921435420156629E-003
  3.960717710078312E-003  0.000000000000000E+000  3.960717710078315E-002
  3.564645939070483E-002  3.168574168062652E-002  2.772502397054821E-002
  2.376430626046989E-002  1.980358855039158E-002  1.584287084031326E-002
  1.188215313023495E-002  7.921435420156629E-003  3.960717710078312E-003
  0.000000000000000E+000  3.960717710078315E-002  3.564645939070483E-002
  3.168574168062652E-002  2.772502397054821E-002  2.376430626046989E-002
  1.980358855039158E-002  1.584287084031326E-002  1.188215313023495E-002
  7.921435420156629E-003  3.960717710078312E-003  0.000000000000000E+000
  3.960717710078315E-002  3.564645939070483E-002  3.168574168062652E-002
  2.772502397054821E-002  2.376430626046989E-002  1.980358855039158E-002
  1.584287084031326E-002  1.188215313023495E-002  7.921435420156629E-003
  3.960717710078312E-003  0.000000000000000E+000  3.960717710078315E-002
  3.564645939070483E-002  3.168574168062652E-002  2.772502397054821E-002
  2.376430626046989E-002  1.980358855039158E-002  1.584287084031326E-002
  1.188215313023495E-002  7.921435420156629E-003  3.960717710078312E-003
  0.000000000000000E+000  3.960717710078315E-002  3.564645939070483E-002
  3.168574168062652E-002  2.772502397054821E-002  2.376430626046989E-002
  1.980358855039158E-002  1.584287084031326E-002  1.188215313023495E-002
  7.921435420156629E-003  3.960717710078312E-003  0.000000000000000E+000
  3.960717710078315E-002  3.564645939070483E-002  3.168574168062652E-002
  2.772502397054821E-002  2.376430626046989E-002  1.980358855039158E-002
  1.584287084031326E-002  1.188215313023495E-002  7.921435420156629E-003
  3.960717710078312E-003  0.000000000000000E+000  3.960717710078315E-002
  3.564645939070483E-002  3.168574168062652E-002  2.772502397054821E-002
  2.376430626046989E-002  1.980358855039158E-002  1.584287084031326E-002
  1.188215313023495E-002  7.921435420156629E-003  3.960717710078312E-003
  0.000000000000000E+000  3.960717710078315E-002  3.564645939070483E-002
  3.168574168062652E-002  2.772502397054821E-002  2.376430626046989E-002
  1.980358855039158E-002  1.584287084031326E-002  1.188215313023495E-002
  7.921435420156629E-003  3.960717710078312E-003  0.000000000000000E+000
  3.960717710078315E-002  3.564645939070483E-002  3.168574168062652E-002
  2.772502397054821E-002  2.376430626046989E-002  1.980358855039158E-002
  1.584287084031326E-002  1.188215313023495E-002  7.921435420156629E-003
  3.960717710078312E-003  0.000000000000000E+000  3.960717710078315E-002
  3.564645939070483E-002  3.168574168062652E-002  2.772502397054821E-002
  2.376430626046989E-002  1.980358855039158E-002  1.584287084031326E-002
  1.188215313023495E-002  7.921435420156629E-003  3.960717710078312E-003
  0.000000000000000E+000  3.960717710078315E-002  3.564645939070483E-002
  3.168574168062652E-002  2.772502397054821E-002  2.376430626046989E-002
  1.980358855039158E-002  1.584287084031326E-002  1.188215313023495E-002
  7.921435420156629E-003  3.960717710078312E-003  0.000000000000000E+000
  3.960717710078315E-002  3.564645939070483E-002  3.168574168062652E-002
  2.772502397054821E-002  2.376430626046989E-002  1.980358855039158E-002
  1.584287084031326E-002  1.188215313023495E-002  7.921435420156629E-003
  3.960717710078312E-003  0.000000000000000E+000  3.960717710078315E-002
  3.564645939070483E-002  3.168574168062652E-002  2.772502397054821E-002
  2.376430626046989E-002  1.980358855039158E-002  1.584287084031326E-002
  1.188215313023495E-002  7.921435420156629E-003  3.960717710078312E-003
  0.000000000000000E+000
  2.140978521878127E-002  5.719252944228045E-002  0.100426873267259     
  0.144629641693805       0.188530668298558       0.227581518502034     
  0.255400299582162       0.270008724827667       0.269749194344498     
  0.256570175169094       3.602923803239470E-002  9.259629665700732E-002
  0.161281267887759       0.232618076791753       0.304798191386008     
  0.369971500820639       0.417018616523246       0.442874649837888     
  0.444898538040273       0.426433512565946       5.366867813053849E-002
  0.119701959689965       0.198447436486053       0.283398998646398     
  0.371932645508569       0.454447232922627       0.516382411313384     
  0.555015114416531       0.566283324556203       0.550312191281556     
  8.467917260618760E-002  0.153900811500335       0.227263130094704     
  0.306912002830672       0.391374520839099       0.471159048579466     
  0.533969444207334       0.580193943103018       0.606853183927178     
  0.609117518307805       0.137379067425347       0.221055977978139     
  0.294552567249275       0.365426737940581       0.435759709731817     
  0.502487020490660       0.560564537741505       0.608889275704180     
  0.645571933472740       0.665516364774937       0.215043581828012     
  0.329614898989803       0.419538001827175       0.497201451134153     
  0.566781053939308       0.629784293432384       0.686442196405400     
  0.735668746204462       0.775496659089112       0.802929498491853     
  0.317951638150289       0.477609072502976       0.596435486154579     
  0.693807570050114       0.776859769895734       0.848889087200424     
  0.911484694985961       0.965134913374641        1.00912551507851     
   1.04047422251426       0.443970254754079       0.660985554455922     
  0.818721586279419       0.945003838776482        1.05018757238921     
   1.13928224643822        1.21488839394020        1.27814294310293     
   1.32887566438642        1.36431413406292       0.590737488134713     
  0.875340683403932        1.07953888730701        1.24099000481663     
   1.37372808234731        1.48459401001120        1.57726477770005     
   1.65354071608123        1.71351674960466        1.75424678463179     
  0.754608331893815        1.11475010601774        1.37088898870849     
   1.57169488476428        1.73536316668207        1.87079914136692     
   1.98284834210341        2.07397956054209        2.14459443502287     
   2.19152893475206       0.932223403201112        1.37412033126519     
   1.68637517640372        1.92964290046448        2.12667491418101     
   2.28863711232891        2.42164256072380        2.52887871633081     
   2.61104729652703        2.66476243757079        1.12113586978777     
   1.64979904767202        2.02145173885205        2.30952456209598     
   2.54165179491833        2.73144768630557        2.88639780580797     
   3.01048595132092        3.10479212793190        3.16574151787835     
   1.31937499591766        1.93871082652261        2.37214325178606     
   2.70657303056933        2.97479468258818        3.19304062893929     
   3.37031431047166        3.51149979623178        3.61811542813973     
   3.68645161340971        1.52534794399205        2.23821736521566     
   2.73485275326705        3.11627619779604        3.42074173736437     
   3.66727347577794        3.86651049939850        4.02434403108238     
   4.14285088070879        4.21831465308344        1.73901707848502     
   2.54765245750815        3.10805028269054        3.53611382789640     
   3.87591848605372        4.14952087507629        4.36937820167762     
   4.54253803927905        4.67177639347263        4.75355891345459     
   1.96389646382843        2.87083291811866        3.49489301601920     
   3.96816465059054        4.34118500784783        4.63943662747311     
   4.87746322110358        5.06367059552845        5.20171387692830     
   5.28848129523707        2.20587577651937        3.21409843829489     
   3.90080316695717        4.41654419061689        4.81939592463486     
   5.13886044494064        5.39189144462384        5.58843365169403     
   5.73315458766001        5.82352611648411        2.45407134886090     
   3.56083861857685        4.30503336832641        4.85740882962160     
   5.28438317766100        5.61986969094165        5.88341491641512     
   6.08659177737143        6.23514812729443        6.32729066889052     
   2.66359391614110        3.84580799406638        4.62876744074949     
   5.20213791463990        5.64015270694720        5.98067549324683     
   6.24550911654913        6.44767040257876        6.59395038590421     
   6.68359971906367        2.78554578506803        3.99852825366037     
   4.78791188959271        5.35752820180598        5.78763980552673     
   6.11903256342542        6.37499600855232        6.56931752919971     
   6.70923769735598        6.79463471305351        2.75227708003895     
   3.92052656819524        4.66316516208588        5.18850128618573     
   5.57887661420226        5.87588913946582        6.10282398382783     
   6.27299466385922        6.39317394991069        6.46405506677953     
   2.55414439250164        3.59062571053576        4.22710520291794     
   4.66721701527214        4.98953084649510        5.23227861303739     
   5.41606960453062        5.55215168312293        5.64576625707907     
   5.69742422921766        2.20100415736279        3.02414188566433     
   3.51042380452092        3.84183816915629        4.08327496806822     
   4.26471645204250        4.40189891939036        4.50333786437612     
   4.57318679013636        4.61253623905572        1.68052509999680     
   2.23579084684101        2.55942334686934        2.78050796615358     
   2.94215350919713        3.06400218766850        3.15639864999149     
   3.22518069812413        3.27411869756774        3.30890109471615     
   1.02113678521928        1.33204705725385        1.51496052391977     
   1.64061206242968        1.73279790246134        1.80244385114075     
   1.85533299928589        1.89471657070431        1.92242321514794     
   1.93890505154920     
  0.000000000000000E+000  0.000000000000000E+000  0.000000000000000E+000
  0.000000000000000E+000  0.000000000000000E+000  0.000000000000000E+000
  0.000000000000000E+000  0.000000000000000E+000  0.000000000000000E+000
  0.000000000000000E+000  0.000000000000000E+000  0.000000000000000E+000
  0.000000000000000E+000  0.000000000000000E+000  0.000000000000000E+000
  0.000000000000000E+000  0.000000000000000E+000  0.000000000000000E+000
  0.000000000000000E+000  0.000000000000000E+000  0.000000000000000E+000
  0.000000000000000E+000  0.000000000000000E+000  0.000000000000000E+000
  0.000000000000000E+000  0.000000000000000E+000  0.000000000000000E+000
  0.000000000000000E+000  0.000000000000000E+000  0.000000000000000E+000
  0.000000000000000E+000  0.000000000000000E+000  0.000000000000000E+000
  0.000000000000000E+000  0.000000000000000E+000  0.000000000000000E+000
  0.000000000000000E+000  0.000000000000000E+000  0.000000000000000E+000
  0.000000000000000E+000  0.000000000000000E+000  0.000000000000000E+000
  0.000000000000000E+000  0.000000000000000E+000  0.000000000000000E+000
  0.000000000000000E+000  0.000000000000000E+000  0.000000000000000E+000
  0.000000000000000E+000  0.000000000000000E+000  0.000000000000000E+000
  0.000000000000000E+000  0.000000000000000E+000  0.000000000000000E+000
  0.000000000000000E+000  0.000000000000000E+000  0.000000000000000E+000
  0.000000000000000E+000  0.000000000000000E+000  0.000000000000000E+000
  0.000000000000000E+000  0.000000000000000E+000  0.000000000000000E+000
  0.000000000000000E+000  0.000000000000000E+000  0.000000000000000E+000
  0.000000000000000E+000  0.000000000000000E+000  0.000000000000000E+000
  0.000000000000000E+000  0.000000000000000E+000  0.000000000000000E+000
  0.000000000000000E+000  0.000000000000000E+000  0.000000000000000E+000
  0.000000000000000E+000  0.000000000000000E+000  0.000000000000000E+000
  0.000000000000000E+000  0.000000000000000E+000  0.000000000000000E+000
  0.000000000000000E+000  0.000000000000000E+000  0.000000000000000E+000
  0.000000000000000E+000  0.000000000000000E+000  0.000000000000000E+000
  0.000000000000000E+000  0.000000000000000E+000  0.000000000000000E+000
  0.000000000000000E+000  0.000000000000000E+000  0.000000000000000E+000
  0.000000000000000E+000  0.000000000000000E+000  0.000000000000000E+000
  0.000000000000000E+000  0.000000000000000E+000  0.000000000000000E+000
  0.000000000000000E+000  0.000000000000000E+000  0.000000000000000E+000
  0.000000000000000E+000  0.000000000000000E+000  0.000000000000000E+000
  0.000000000000000E+000  0.000000000000000E+000  0.000000000000000E+000
  0.000000000000000E+000  0.000000000000000E+000  0.000000000000000E+000
  0.000000000000000E+000  0.000000000000000E+000  0.000000000000000E+000
  0.000000000000000E+000  0.000000000000000E+000  0.000000000000000E+000