 Title = "Wing and Wake"
 VARIABLES = "X" "Y" "Z" "GAM" "skew"
 Zone I=   11 J=   26 K=1  T="Blade"
 DATAPACKING=BLOCK
 VARLOCATION=([4]=CELLCENTERED,[5]=CELLCENTERED)
  0.265145709433903       0.250838874947384       0.236532040460866     
  0.222225205974346       0.207918371487828       0.193611537001309     
  0.179304702514790       0.164997868028271       0.150691033541752     
  0.136384199055233       0.122077364568714       0.267551673185419     
  0.253244838698900       0.238938004212381       0.224631169725862     
  0.210324335239343       0.196017500752824       0.181710666266305     
  0.167403831779786       0.153096997293268       0.138790162806749     
  0.124483328320230       0.274731620954351       0.260424786467833     
  0.246117951981314       0.231811117494795       0.217504283008276     
  0.203197448521757       0.188890614035238       0.174583779548719     
  0.160276945062200       0.145970110575681       0.131663276089162     
  0.286572320675292       0.272265486188773       0.257958651702254     
  0.243651817215735       0.229344982729217       0.215038148242697     
  0.200731313756179       0.186424479269660       0.172117644783141     
  0.157810810296622       0.143503975810103       0.302887037440350     
  0.288580202953831       0.274273368467312       0.259966533980793     
  0.245659699494274       0.231352865007755       0.217046030521237     
  0.202739196034718       0.188432361548199       0.174125527061680     
  0.159818692575161       0.323418478420201       0.309111643933682     
  0.294804809447163       0.280497974960644       0.266191140474126     
  0.251884305987607       0.237577471501088       0.223270637014569     
  0.208963802528050       0.194656968041531       0.180350133555012     
  0.347842850525705       0.333536016039186       0.319229181552667     
  0.304922347066148       0.290615512579629       0.276308678093111     
  0.262001843606592       0.247695009120073       0.233388174633554     
  0.219081340147035       0.204774505660516       0.375774966818345     
  0.361468132331826       0.347161297845307       0.332854463358788     
  0.318547628872269       0.304240794385751       0.289933959899232     
  0.275627125412713       0.261320290926193       0.247013456439675     
  0.232706621953156       0.406774321138349       0.392467486651830     
  0.378160652165311       0.363853817678792       0.349546983192273     
  0.335240148705754       0.320933314219235       0.306626479732716     
  0.292319645246198       0.278012810759679       0.263705976273160     
  0.440352035149973       0.426045200663454       0.411738366176935     
  0.397431531690416       0.383124697203897       0.368817862717379     
  0.354511028230859       0.340204193744341       0.325897359257821     
  0.311590524771303       0.297283690284784       0.475978568244900     
  0.461671733758382       0.447364899271863       0.433058064785344     
  0.418751230298825       0.404444395812306       0.390137561325787     
  0.375830726839268       0.361523892352749       0.347217057866231     
  0.332910223379711       0.513092068713965       0.498785234227446     
  0.484478399740927       0.470171565254408       0.455864730767889     
  0.441557896281370       0.427251061794852       0.412944227308333     
  0.398637392821814       0.384330558335295       0.370023723848776     
  0.551107234484239       0.536800399997719       0.522493565511200     
  0.508186731024682       0.493879896538163       0.479573062051644     
  0.465266227565124       0.450959393078606       0.436652558592087     
  0.422345724105569       0.408038889619049       0.589424543682365     
  0.575117709195846       0.560810874709327       0.546504040222808     
  0.532197205736289       0.517890371249770       0.503583536763252     
  0.489276702276732       0.474969867790214       0.460663033303695     
  0.446356198817176       0.627439709452639       0.613132874966120     
  0.598826040479601       0.584519205993082       0.570212371506562     
  0.555905537020044       0.541598702533525       0.527291868047005     
  0.512985033560487       0.498678199073968       0.484371364587450     
  0.664553209921703       0.650246375435183       0.635939540948665     
  0.621632706462146       0.607325871975627       0.593019037489108     
  0.578712203002589       0.564405368516071       0.550098534029552     
  0.535791699543032       0.521484865056514       0.700179743016630     
  0.685872908530111       0.671566074043592       0.657259239557074     
  0.642952405070555       0.628645570584036       0.614338736097516     
  0.600031901610998       0.585725067124479       0.571418232637960     
  0.557111398151442       0.733757457028255       0.719450622541735     
  0.705143788055217       0.690836953568698       0.676530119082179     
  0.662223284595660       0.647916450109141       0.633609615622622     
  0.619302781136103       0.604995946649584       0.590689112163065     
  0.764756811348257       0.750449976861739       0.736143142375220     
  0.721836307888701       0.707529473402183       0.693222638915664     
  0.678915804429144       0.664608969942626       0.650302135456107     
  0.635995300969588       0.621688466483069       0.792688927640898     
  0.778382093154380       0.764075258667860       0.749768424181341     
  0.735461589694823       0.721154755208303       0.706847920721785     
  0.692541086235266       0.678234251748747       0.663927417262228     
  0.649620582775708       0.817113299746403       0.802806465259883     
  0.788499630773364       0.774192796286845       0.759885961800326     
  0.745579127313807       0.731272292827288       0.716965458340770     
  0.702658623854251       0.688351789367731       0.674044954881213     
  0.837644740726253       0.823337906239735       0.809031071753214     
  0.794724237266696       0.780417402780179       0.766110568293659     
  0.751803733807140       0.737496899320621       0.723190064834102     
  0.708883230347583       0.694576395861064       0.853959457491311     
  0.839652623004792       0.825345788518274       0.811038954031754     
  0.796732119545236       0.782425285058717       0.768118450572198     
  0.753811616085679       0.739504781599159       0.725197947112641     
  0.710891112626122       0.865800157212252       0.851493322725734     
  0.837186488239214       0.822879653752695       0.808572819266177     
  0.794265984779657       0.779959150293138       0.765652315806620     
  0.751345481320101       0.737038646833582       0.722731812347063     
  0.872980104981184       0.858673270494665       0.844366436008147     
  0.830059601521627       0.815752767035109       0.801445932548590     
  0.787139098062070       0.772832263575551       0.758525429089033     
  0.744218594602513       0.729911760115994       0.875386068732700     
  0.861079234246181       0.846772399759662       0.832465565273144     
  0.818158730786624       0.803851896300106       0.789545061813586     
  0.775238227327067       0.760931392840550       0.746624558354029     
  0.732317723867512     
 -2.690802561521704E-002 -3.884660602481466E-002 -5.078518643441213E-002
 -6.272376684400940E-002 -7.466234725360721E-002 -8.660092766320440E-002
 -9.853950807280186E-002 -0.110478088482399      -0.122416668891997     
 -0.134355249301594      -0.146293829711192      -2.979125996909621E-002
 -4.172984037869377E-002 -5.366842078829125E-002 -6.560700119788870E-002
 -7.754558160748608E-002 -8.948416201708355E-002 -0.101422742426681     
 -0.113361322836278      -0.125299903245876      -0.137238483655473     
 -0.149177064065071      -3.839549270261193E-002 -5.033407311220941E-002
 -6.227265352180699E-002 -7.421123393140446E-002 -8.614981434100177E-002
 -9.808839475059927E-002 -0.110026975160197      -0.121965555569794     
 -0.133904135979392      -0.145842716388989      -0.157781296798587     
 -5.258502992563763E-002 -6.452361033523515E-002 -7.646219074483274E-002
 -8.840077115443000E-002 -0.100339351564027      -0.112277931973625     
 -0.124216512383222      -0.136155092792820      -0.148093673202417     
 -0.160032253612015      -0.171970834021612      -7.213609415974696E-002
 -8.407467456934448E-002 -9.601325497894204E-002 -0.107951835388539     
 -0.119890415798137      -0.131828996207734      -0.143767576617332     
 -0.155706157026929      -0.167644737436527      -0.179583317846124     
 -0.191521898255722      -9.674035344272874E-002 -0.108678933852326     
 -0.120617514261924      -0.132556094671521      -0.144494675081119     
 -0.156433255490717      -0.168371835900314      -0.180310416309911     
 -0.192248996719509      -0.204187577129106      -0.216126157538703     
 -0.126009783907818      -0.137948364317416      -0.149886944727013     
 -0.161825525136611      -0.173764105546208      -0.185702685955806     
 -0.197641266365403      -0.209579846775001      -0.221518427184598     
 -0.233457007594195      -0.245395588003793      -0.159482789151871     
 -0.171421369561468      -0.183359949971066      -0.195298530380663     
 -0.207237110790261      -0.219175691199858      -0.231114271609456     
 -0.243052852019053      -0.254991432428650      -0.266930012838248     
 -0.278868593247846      -0.196631479886384      -0.208570060295981     
 -0.220508640705578      -0.232447221115176      -0.244385801524773     
 -0.256324381934371      -0.268262962343968      -0.280201542753566     
 -0.292140123163164      -0.304078703572761      -0.316017283982358     
 -0.236869999066921      -0.248808579476518      -0.260747159886116     
 -0.272685740295713      -0.284624320705311      -0.296562901114908     
 -0.308501481524505      -0.320440061934103      -0.332378642343700     
 -0.344317222753298      -0.356255803162895      -0.279563761208680     
 -0.291502341618277      -0.303440922027875      -0.315379502437472     
 -0.327318082847070      -0.339256663256667      -0.351195243666265     
 -0.363133824075862      -0.375072404485459      -0.387010984895057     
 -0.398949565304654      -0.324039460178667      -0.335978040588265     
 -0.347916620997862      -0.359855201407459      -0.371793781817057     
 -0.383732362226654      -0.395670942636252      -0.407609523045850     
 -0.419548103455447      -0.431486683865044      -0.443425264274642     
 -0.369595687635632      -0.381534268045229      -0.393472848454826     
 -0.405411428864424      -0.417350009274022      -0.429288589683619     
 -0.441227170093217      -0.453165750502814      -0.465104330912411     
 -0.477042911322009      -0.488981491731607      -0.415513994658606     
 -0.427452575068204      -0.439391155477801      -0.451329735887398     
 -0.463268316296996      -0.475206896706594      -0.487145477116192     
 -0.499084057525788      -0.511022637935386      -0.522961218344984     
 -0.534899798754580      -0.461070222115571      -0.473008802525168     
 -0.484947382934766      -0.496885963344362      -0.508824543753961     
 -0.520763124163558      -0.532701704573155      -0.544640284982752     
 -0.556578865392350      -0.568517445801948      -0.580456026211546     
 -0.505545921085558      -0.517484501495155      -0.529423081904753     
 -0.541361662314350      -0.553300242723948      -0.565238823133546     
 -0.577177403543142      -0.589115983952741      -0.601054564362338     
 -0.612993144771935      -0.624931725181533      -0.548239683227317     
 -0.560178263636915      -0.572116844046512      -0.584055424456110     
 -0.595994004865707      -0.607932585275304      -0.619871165684902     
 -0.631809746094499      -0.643748326504097      -0.655686906913695     
 -0.667625487323292      -0.588478202407855      -0.600416782817452     
 -0.612355363227050      -0.624293943636646      -0.636232524046244     
 -0.648171104455842      -0.660109684865439      -0.672048265275037     
 -0.683986845684634      -0.695925426094232      -0.707864006503828     
 -0.625626893142367      -0.637565473551964      -0.649504053961562     
 -0.661442634371159      -0.673381214780757      -0.685319795190354     
 -0.697258375599951      -0.709196956009549      -0.721135536419146     
 -0.733074116828744      -0.745012697238342      -0.659099898386419     
 -0.671038478796017      -0.682977059205614      -0.694915639615213     
 -0.706854220024809      -0.718792800434407      -0.730731380844004     
 -0.742669961253602      -0.754608541663199      -0.766547122072797     
 -0.778485702482394      -0.688369328851510      -0.700307909261107     
 -0.712246489670703      -0.724185070080301      -0.736123650489899     
 -0.748062230899496      -0.760000811309094      -0.771939391718692     
 -0.783877972128288      -0.795816552537886      -0.807755132947484     
 -0.712973588134491      -0.724912168544088      -0.736850748953685     
 -0.748789329363283      -0.760727909772880      -0.772666490182479     
 -0.784605070592076      -0.796543651001673      -0.808482231411270     
 -0.820420811820868      -0.832359392230466      -0.732524652368600     
 -0.744463232778197      -0.756401813187795      -0.768340393597392     
 -0.780278974006990      -0.792217554416588      -0.804156134826185     
 -0.816094715235782      -0.828033295645380      -0.839971876054977     
 -0.851910456464574      -0.746714189591626      -0.758652770001223     
 -0.770591350410820      -0.782529930820419      -0.794468511230015     
 -0.806407091639613      -0.818345672049210      -0.830284252458809     
 -0.842222832868405      -0.854161413278003      -0.866099993687600     
 -0.755318422325141      -0.767257002734738      -0.779195583144336     
 -0.791134163553933      -0.803072743963531      -0.815011324373129     
 -0.826949904782726      -0.838888485192324      -0.850827065601922     
 -0.862765646011518      -0.874704226421115      -0.758201656679020     
 -0.770140237088618      -0.782078817498215      -0.794017397907814     
 -0.805955978317410      -0.817894558727008      -0.829833139136606     
 -0.841771719546202      -0.853710299955801      -0.865648880365397     
 -0.877587460774996     
  3.960717710078315E-002  3.564645939070483E-002  3.168574168062652E-002
  2.772502397054821E-002  2.376430626046989E-002  1.980358855039158E-002
  1.584287084031326E-002  1.188215313023495E-002  7.921435420156629E-003
  3.960717710078312E-003  0.000000000000000E+000  3.960717710078315E-002
  3.564645939070483E-002  3.168574168062652E-002  2.772502397054821E-002
  2.376430626046989E-002  1.980358855039158E-002  1.584287084031326E-002
  1.188215313023495E-002  7.921435420156629E-003  3.960717710078312E-003
  0.000000000000000E+000  3.960717710078315E-002  3.564645939070483E-002
  3.168574168062652E-002  2.772502397054821E-002  2.376430626046989E-002
  1.980358855039158E-002  1.584287084031326E-002  1.188215313023495E-002
  7.921435420156629E-003  3.960717710078312E-003  0.000000000000000E+000
  3.960717710078315E-002  3.564645939070483E-002  3.168574168062652E-002
  2.772502397054821E-002  2.376430626046989E-002  1.980358855039158E-002
  1.584287084031326E-002  1.188215313023495E-002  7.921435420156629E-003
  3.960717710078312E-003  0.000000000000000E+000  3.960717710078315E-002
  3.564645939070483E-002  3.168574168062652E-002  2.772502397054821E-002
  2.376430626046989E-002  1.980358855039158E-002  1.584287084031326E-002
  1.188215313023495E-002  7.921435420156629E-003  3.960717710078312E-003
  0.000000000000000E+000  3.960717710078315E-002  3.564645939070483E-002
  3.168574168062652E-002  2.772502397054821E-002  2.376430626046989E-002
  1.980358855039158E-002  1.584287084031326E-002  1.188215313023495E-002
  7.921435420156629E-003  3.960717710078312E-003  0.000000000000000E+000
  3.960717710078315E-002  3.564645939070483E-002  3.168574168062652E-002
  2.772502397054821E-002  2.376430626046989E-002  1.980358855039158E-002
  1.584287084031326E-002  1.188215313023495E-002  7.921435420156629E-003
  3.960717710078312E-003  0.000000000000000E+000  3.960717710078315E-002
  3.564645939070483E-002  3.168574168062652E-002  2.772502397054821E-002
  2.376430626046989E-002  1.980358855039158E-002  1.584287084031326E-002
  1.188215313023495E-002  7.921435420156629E-003  3.960717710078312E-003
  0.000000000000000E+000  3.960717710078315E-002  3.564645939070483E-002
  3.168574168062652E-002  2.772502397054821E-002  2.376430626046989E-002
  1.980358855039158E-002  1.584287084031326E-002  1.188215313023495E-002
  7.921435420156629E-003  3.960717710078312E-003  0.000000000000000E+000
  3.960717710078315E-002  3.564645939070483E-002  3.168574168062652E-002
  2.772502397054821E-002  2.376430626046989E-002  1.980358855039158E-002
  1.584287084031326E-002  1.188215313023495E-002  7.921435420156629E-003
  3.960717710078312E-003  0.000000000000000E+000  3.960717710078315E-002
  3.564645939070483E-002  3.168574168062652E-002  2.772502397054821E-002
  2.376430626046989E-002  1.980358855039158E-002  1.584287084031326E-002
  1.188215313023495E-002  7.921435420156629E-003  3.960717710078312E-003
  0.000000000000000E+000  3.960717710078315E-002  3.564645939070483E-002
  3.168574168062652E-002  2.772502397054821E-002  2.376430626046989E-002
  1.980358855039158E-002  1.584287084031326E-002  1.188215313023495E-002
  7.921435420156629E-003  3.960717710078312E-003  0.000000000000000E+000
  3.960717710078315E-002  3.564645939070483E-002  3.168574168062652E-002
  2.772502397054821E-002  2.376430626046989E-002  1.980358855039158E-002
  1.584287084031326E-002  1.188215313023495E-002  7.921435420156629E-003
  3.960717710078312E-003  0.000000000000000E+000  3.960717710078315E-002
  3.564645939070483E-002  3.168574168062652E-002  2.772502397054821E-002
  2.376430626046989E-002  1.980358855039158E-002  1.584287084031326E-002
  1.188215313023495E-002  7.921435420156629E-003  3.960717710078312E-003
  0.000000000000000E+000  3.960717710078315E-002  3.564645939070483E-002
  3.168574168062652E-002  2.772502397054821E-002  2.376430626046989E-002
  1.980358855039158E-002  1.584287084031326E-002  1.188215313023495E-002
  7.921435420156629E-003  3.960717710078312E-003  0.000000000000000E+000
  3.960717710078315E-002  3.564645939070483E-002  3.168574168062652E-002
  2.772502397054821E-002  2.376430626046989E-002  1.980358855039158E-002
  1.584287084031326E-002  1.188215313023495E-002  7.921435420156629E-003
  3.960717710078312E-003  0.000000000000000E+000  3.960717710078315E-002
  3.564645939070483E-002  3.168574168062652E-002  2.772502397054821E-002
  2.376430626046989E-002  1.980358855039158E-002  1.584287084031326E-002
  1.188215313023495E-002  7.921435420156629E-003  3.960717710078312E-003
  0.000000000000000E+000  3.960717710078315E-002  3.564645939070483E-002
  3.168574168062652E-002  2.772502397054821E-002  2.376430626046989E-002
  1.980358855039158E-002  1.584287084031326E-002  1.188215313023495E-002
  7.921435420156629E-003  3.960717710078312E-003  0.000000000000000E+000
  3.960717710078315E-002  3.564645939070483E-002  3.168574168062652E-002
  2.772502397054821E-002  2.376430626046989E-002  1.980358855039158E-002
  1.584287084031326E-002  1.188215313023495E-002  7.921435420156629E-003
  3.960717710078312E-003  0.000000000000000E+000  3.960717710078315E-002
  3.564645939070483E-002  3.168574168062652E-002  2.772502397054821E-002
  2.376430626046989E-002  1.980358855039158E-002  1.584287084031326E-002
  1.188215313023495E-002  7.921435420156629E-003  3.960717710078312E-003
  0.000000000000000E+000  3.960717710078315E-002  3.564645939070483E-002
  3.168574168062652E-002  2.772502397054821E-002  2.376430626046989E-002
  1.980358855039158E-002  1.584287084031326E-002  1.188215313023495E-002
  7.921435420156629E-003  3.960717710078312E-003  0.000000000000000E+000
  3.960717710078315E-002  3.564645939070483E-002  3.168574168062652E-002
  2.772502397054821E-002  2.376430626046989E-002  1.980358855039158E-002
  1.584287084031326E-002  1.188215313023495E-002  7.921435420156629E-003
  3.960717710078312E-003  0.000000000000000E+000  3.960717710078315E-002
  3.564645939070483E-002  3.168574168062652E-002  2.772502397054821E-002
  2.376430626046989E-002  1.980358855039158E-002  1.584287084031326E-002
  1.188215313023495E-002  7.921435420156629E-003  3.960717710078312E-003
  0.000000000000000E+000  3.960717710078315E-002  3.564645939070483E-002
  3.168574168062652E-002  2.772502397054821E-002  2.376430626046989E-002
  1.980358855039158E-002  1.584287084031326E-002  1.188215313023495E-002
  7.921435420156629E-003  3.960717710078312E-003  0.000000000000000E+000
  3.960717710078315E-002  3.564645939070483E-002  3.168574168062652E-002
  2.772502397054821E-002  2.376430626046989E-002  1.980358855039158E-002
  1.584287084031326E-002  1.188215313023495E-002  7.921435420156629E-003
  3.960717710078312E-003  0.000000000000000E+000  3.960717710078315E-002
  3.564645939070483E-002  3.168574168062652E-002  2.772502397054821E-002
  2.376430626046989E-002  1.980358855039158E-002  1.584287084031326E-002
  1.188215313023495E-002  7.921435420156629E-003  3.960717710078312E-003
  0.000000000000000E+000
  0.137644381766976       0.203452224038982       0.258086087963298     
  0.308551088044215       0.356947717470829       0.403298694254521     
  0.446621448613685       0.485126760859619       0.516524116667547     
  0.539305697891939       0.230769401436707       0.345436779841316     
  0.439287596710352       0.525065462676356       0.606375122676366     
  0.683463101655975       0.754782998504065       0.818325795477185     
  0.871054180327795       0.911889174572470       0.315726964278909     
  0.481111963988988       0.614266336278598       0.733445566455521     
  0.843753797579853       0.945937948766991        1.03882547052981     
   1.12121196329706        1.19054788933198        1.24312560465979     
  0.389494118894648       0.597794127209190       0.763796514057986     
  0.909252835542477        1.04049903230173        1.15900503607839     
   1.26466435090263        1.35673172389703        1.43326980603979     
   1.48988915092338       0.456203482979598       0.698790723068894     
  0.889325790876837        1.05291762002417        1.19738772567920     
   1.32527133739698        1.43718472945699        1.53293211860557     
   1.61123950386353        1.66722199482539       0.521158714177630     
  0.793384009770951        1.00310227571741        1.17948209905527     
   1.33222277680963        1.46518867951560        1.57985362591729     
   1.67648747368007        1.75400853145105        1.80783564781189     
  0.591023931150306       0.893350232578243        1.12176777099545     
   1.31037172949900        1.47097995403827        1.60878233579645     
   1.72615036187708        1.82379960671818        1.90079711684506     
   1.95287562425677       0.674997851753238        1.01327990431809     
   1.26438598666708        1.46855259230219        1.64007631994070     
   1.78553428665983        1.90816243382083        2.00917378907792     
   2.08785525642549        2.13982282680665       0.779717024157511     
   1.16330916126381        1.44359754927143        1.66849327383605     
   1.85534611264448        2.01230357051687        2.14349290424700     
   2.25061082187450        2.33319246101767        2.38689223157846     
  0.906556092208296        1.34581707372497        1.66256538170901     
   1.91390587156332        2.12081358900792        2.29325251490496     
   2.43636630161533        2.55246408058929        2.64136694615432     
   2.69866416167811        1.05499059700146        1.56043820727738     
   1.92122493523920        2.20492600026816        2.43660169396749     
   2.62829862665929        2.78634964766224        2.91379149609922     
   3.01083772074494        3.07306211774196        1.22398083449898     
   1.80537066881888        2.21699626034450        2.53818982393162     
   2.79856681970841        3.01251514520476        3.18776261438247     
   3.32822498250461        3.43462695357717        3.50258063895298     
   1.41062483793391        2.07595808540568        2.54374324407139     
   2.90626878142277        3.19819819441841        3.43654533212427     
   3.63061018307939        3.78529731737120        3.90190581286743     
   3.97610375275022        1.61157194322620        2.36688459497294     
   2.89455935439881        3.30091294908746        3.62610218794703     
   3.89001267255990        4.10367020818948        4.27307048021393     
   4.40015606226416        4.48070973123012        1.82440756284047     
   2.67390904236952        3.26347550764591        3.71450915307437     
   4.07312241423037        4.36233384020111        4.59507332072084     
   4.77856440053545        4.91551338749043        5.00195687589014     
   2.04653298720565        2.99210222044818        3.64324590756063     
   4.13757607229700        4.52769042003310        4.84005865785816     
   5.08973061163896        5.28532860626779        5.43047579130938     
   5.52166218147558        2.26923711907843        3.30766257449805     
   4.01596018484295        4.54874250499698        4.96551854954051     
   5.29647144362864        5.55893944264239        5.76306358318780     
   5.91350501666553        6.00742902831192        2.46843388802451     
   3.58519672919898        4.33840545895136        4.89889786087292     
   5.33291180496828        5.67428147392999        5.94259252652289     
   6.14947079250091        6.30063017591836        6.39411754778659     
   2.60669856305383        3.77013497626452        4.54438561063406     
   5.11323222638879        5.54850375706961        5.88710797992099     
   6.15049451523022        6.35149500415822        6.49672250003240     
   6.58527730725822        2.64858425604472        3.80961078690380     
   4.56874018068768        5.11742241969116        5.53112532803973     
   5.84869312419064        6.09258778989877        6.27617298005912     
   6.40652605192610        6.48399427163690        2.57465608526096     
   3.67231025306600        4.37188151426834        4.86682946225444     
   5.23367615950683        5.51130835252521        5.72168212755729     
   5.87746727210236        5.98525377460544        6.04630134991131     
   2.37770907719491        3.34441099553856        3.93852478017104     
   4.34899182300843        4.64870780925148        4.87322408413289     
   5.04180322938403        5.16505980863002        5.24809894362754     
   5.29191831652143        2.04811311284253        2.81400511298676     
   3.26621947808208        3.57388031233793        3.79723289083941     
   3.96413341723123        4.08925734103141        4.18062303457434     
   4.24227300886851        4.27563961034429        1.56479067405872     
   2.08099132250515        2.38143154398257        2.58619914798779     
   2.73533519648921        2.84708579145348        2.93109143078611     
   2.99284187625118        3.03595938605203        3.06599691216155     
  0.951179908772296        1.24011654614348        1.40981770023553     
   1.52610105592210        1.61107090074865        1.67487583596177     
   1.72290449913532        1.75821418305789        1.78257164207567     
   1.79655304322416     
  0.000000000000000E+000  0.000000000000000E+000  0.000000000000000E+000
  0.000000000000000E+000  0.000000000000000E+000  0.000000000000000E+000
  0.000000000000000E+000  0.000000000000000E+000  0.000000000000000E+000
  0.000000000000000E+000  0.000000000000000E+000  0.000000000000000E+000
  0.000000000000000E+000  0.000000000000000E+000  0.000000000000000E+000
  0.000000000000000E+000  0.000000000000000E+000  0.000000000000000E+000
  0.000000000000000E+000  0.000000000000000E+000  0.000000000000000E+000
  0.000000000000000E+000  0.000000000000000E+000  0.000000000000000E+000
  0.000000000000000E+000  0.000000000000000E+000  0.000000000000000E+000
  0.000000000000000E+000  0.000000000000000E+000  0.000000000000000E+000
  0.000000000000000E+000  0.000000000000000E+000  0.000000000000000E+000
  0.000000000000000E+000  0.000000000000000E+000  0.000000000000000E+000
  0.000000000000000E+000  0.000000000000000E+000  0.000000000000000E+000
  0.000000000000000E+000  0.000000000000000E+000  0.000000000000000E+000
  0.000000000000000E+000  0.000000000000000E+000  0.000000000000000E+000
  0.000000000000000E+000  0.000000000000000E+000  0.000000000000000E+000
  0.000000000000000E+000  0.000000000000000E+000  0.000000000000000E+000
  0.000000000000000E+000  0.000000000000000E+000  0.000000000000000E+000
  0.000000000000000E+000  0.000000000000000E+000  0.000000000000000E+000
  0.000000000000000E+000  0.000000000000000E+000  0.000000000000000E+000
  0.000000000000000E+000  0.000000000000000E+000  0.000000000000000E+000
  0.000000000000000E+000  0.000000000000000E+000  0.000000000000000E+000
  0.000000000000000E+000  0.000000000000000E+000  0.000000000000000E+000
  0.000000000000000E+000  0.000000000000000E+000  0.000000000000000E+000
  0.000000000000000E+000  0.000000000000000E+000  0.000000000000000E+000
  0.000000000000000E+000  0.000000000000000E+000  0.000000000000000E+000
  0.000000000000000E+000  0.000000000000000E+000  0.000000000000000E+000
  0.000000000000000E+000  0.000000000000000E+000  0.000000000000000E+000
  0.000000000000000E+000  0.000000000000000E+000  0.000000000000000E+000
  0.000000000000000E+000  0.000000000000000E+000  0.000000000000000E+000
  0.000000000000000E+000  0.000000000000000E+000  0.000000000000000E+000
  0.000000000000000E+000  0.000000000000000E+000  0.000000000000000E+000
  0.000000000000000E+000  0.000000000000000E+000  0.000000000000000E+000
  0.000000000000000E+000  0.000000000000000E+000  0.000000000000000E+000
  0.000000000000000E+000  0.000000000000000E+000  0.000000000000000E+000
  0.000000000000000E+000  0.000000000000000E+000  0.000000000000000E+000
  0.000000000000000E+000  0.000000000000000E+000  0.000000000000000E+000
  0.000000000000000E+000  0.000000000000000E+000  0.000000000000000E+000
  0.000000000000000E+000  0.000000000000000E+000  0.000000000000000E+000