 Title = "Wing and Wake"
 VARIABLES = "X" "Y" "Z" "GAM" "skew"
 Zone I=   11 J=   26 K=1  T="Blade"
 DATAPACKING=BLOCK
 VARLOCATION=([4]=CELLCENTERED,[5]=CELLCENTERED)
  7.941481183482393E-003 -5.762893659893706E-003 -1.946726850326961E-002
 -3.317164334664553E-002 -4.687601819002184E-002 -6.058039303339750E-002
 -7.428476787677360E-002 -8.798914272014959E-002 -0.101693517563525     
 -0.115397892406902      -0.129102267250278       5.397067021692160E-003
 -8.307307821683927E-003 -2.201168266505992E-002 -3.571605750843591E-002
 -4.942043235181178E-002 -6.312480719518783E-002 -7.682918203856369E-002
 -9.053355688193965E-002 -0.104237931725316      -0.117942306568692     
 -0.131646681412068      -2.196048532387566E-003 -1.590042337576359E-002
 -2.960479821913965E-002 -4.330917306251569E-002 -5.701354790589146E-002
 -7.071792274926748E-002 -8.442229759264366E-002 -9.812667243601948E-002
 -0.111831047279395      -0.125535422122771      -0.139239796966147     
 -1.471811751056183E-002 -2.842249235393799E-002 -4.212686719731395E-002
 -5.583124204068982E-002 -6.953561688406575E-002 -8.323999172744177E-002
 -9.694436657081779E-002 -0.110648741414194      -0.124353116257570     
 -0.138057491100946      -0.151761865944321      -3.197165940472295E-002
 -4.567603424809901E-002 -5.938040909147516E-002 -7.308478393485097E-002
 -8.678915877822686E-002 -0.100493533621603      -0.114197908464979     
 -0.127902283308355      -0.141606658151731      -0.155311032995107     
 -0.169015407838483      -5.368457555243412E-002 -6.738895039581043E-002
 -8.109332523918612E-002 -9.479770008256222E-002 -0.108502074925938     
 -0.122206449769315      -0.135910824612690      -0.149615199456066     
 -0.163319574299443      -0.177023949142818      -0.190728323986194     
 -7.951444029537855E-002 -9.321881513875432E-002 -0.106923189982130     
 -0.120627564825506      -0.134331939668883      -0.148036314512259     
 -0.161740689355634      -0.175445064199010      -0.189149439042386     
 -0.202853813885762      -0.216558188729138      -0.109053901236546     
 -0.122758276079922      -0.136462650923298      -0.150167025766674     
 -0.163871400610050      -0.177575775453426      -0.191280150296802     
 -0.204984525140178      -0.218688899983554      -0.232393274826930     
 -0.246097649670307      -0.141837103430877      -0.155541478274253     
 -0.169245853117629      -0.182950227961005      -0.196654602804381     
 -0.210358977647757      -0.224063352491133      -0.237767727334509     
 -0.251472102177885      -0.265176477021261      -0.278880851864636     
 -0.177347036196030      -0.191051411039406      -0.204755785882782     
 -0.218460160726158      -0.232164535569534      -0.245868910412909     
 -0.259573285256285      -0.273277660099662      -0.286982034943037     
 -0.300686409786414      -0.314390784629789      -0.215023686679693     
 -0.228728061523069      -0.242432436366445      -0.256136811209821     
 -0.269841186053197      -0.283545560896573      -0.297249935739949     
 -0.310954310583325      -0.324658685426700      -0.338363060270077     
 -0.352067435113453      -0.254272871596800      -0.267977246440175     
 -0.281681621283552      -0.295385996126927      -0.309090370970303     
 -0.322794745813679      -0.336499120657055      -0.350203495500431     
 -0.363907870343807      -0.377612245187183      -0.391316620030559     
 -0.294475607854879      -0.308179982698255      -0.321884357541631     
 -0.335588732385007      -0.349293107228383      -0.362997482071759     
 -0.376701856915135      -0.390406231758511      -0.404110606601886     
 -0.417814981445263      -0.431519356288639      -0.334997874287192     
 -0.348702249130568      -0.362406623973943      -0.376110998817320     
 -0.389815373660696      -0.403519748504072      -0.417224123347449     
 -0.430928498190823      -0.444632873034201      -0.458337247877576     
 -0.472041622720952      -0.375200610545272      -0.388904985388648     
 -0.402609360232024      -0.416313735075399      -0.430018109918776     
 -0.443722484762151      -0.457426859605527      -0.471131234448904     
 -0.484835609292279      -0.498539984135655      -0.512244358979032     
 -0.414449795462378      -0.428154170305754      -0.441858545149130     
 -0.455562919992505      -0.469267294835882      -0.482971669679258     
 -0.496676044522633      -0.510380419366010      -0.524084794209385     
 -0.537789169052761      -0.551493543896138      -0.452126445946042     
 -0.465830820789417      -0.479535195632793      -0.493239570476170     
 -0.506943945319545      -0.520648320162921      -0.534352695006297     
 -0.548057069849673      -0.561761444693049      -0.575465819536426     
 -0.589170194379801      -0.487636378711195      -0.501340753554570     
 -0.515045128397946      -0.528749503241322      -0.542453878084698     
 -0.556158252928074      -0.569862627771450      -0.583567002614826     
 -0.597271377458202      -0.610975752301578      -0.624680127144953     
 -0.520419580905525      -0.534123955748900      -0.547828330592277     
 -0.561532705435652      -0.575237080279029      -0.588941455122405     
 -0.602645829965780      -0.616350204809156      -0.630054579652533     
 -0.643758954495909      -0.657463329339284      -0.549959041846692     
 -0.563663416690069      -0.577367791533444      -0.591072166376821     
 -0.604776541220196      -0.618480916063573      -0.632185290906947     
 -0.645889665750325      -0.659594040593701      -0.673298415437077     
 -0.687002790280452      -0.575788906589637      -0.589493281433013     
 -0.603197656276388      -0.616902031119764      -0.630606405963140     
 -0.644310780806516      -0.658015155649893      -0.671719530493269     
 -0.685423905336645      -0.699128280180021      -0.712832655023397     
 -0.597501822737348      -0.611206197580724      -0.624910572424099     
 -0.638614947267477      -0.652319322110852      -0.666023696954229     
 -0.679728071797604      -0.693432446640980      -0.707136821484355     
 -0.720841196327732      -0.734545571171108      -0.614755364631509     
 -0.628459739474885      -0.642164114318261      -0.655868489161636     
 -0.669572864005012      -0.683277238848389      -0.696981613691765     
 -0.710685988535141      -0.724390363378517      -0.738094738221893     
 -0.751799113065269      -0.627277433609684      -0.640981808453059     
 -0.654686183296435      -0.668390558139811      -0.682094932983188     
 -0.695799307826564      -0.709503682669938      -0.723208057513316     
 -0.736912432356691      -0.750616807200068      -0.764321182043443     
 -0.634870549163762      -0.648574924007139      -0.662279298850514     
 -0.675983673693890      -0.689688048537267      -0.703392423380643     
 -0.717096798224018      -0.730801173067395      -0.744505547910771     
 -0.758209922754147      -0.771914297597523      -0.637414963325552     
 -0.651119338168929      -0.664823713012304      -0.678528087855682     
 -0.692232462699057      -0.705936837542433      -0.719641212385810     
 -0.733345587229184      -0.747049962072561      -0.760754336915937     
 -0.774458711759314     
 -0.266389230169557      -0.253763647989978      -0.241138065810398     
 -0.228512483630819      -0.215886901451239      -0.203261319271660     
 -0.190635737092080      -0.178010154912501      -0.165384572732922     
 -0.152758990553342      -0.140133408373763      -0.269151051757979     
 -0.256525469578400      -0.243899887398821      -0.231274305219242     
 -0.218648723039662      -0.206023140860083      -0.193397558680503     
 -0.180771976500924      -0.168146394321344      -0.155520812141765     
 -0.142895229962185      -0.277392960946966      -0.264767378767387     
 -0.252141796587807      -0.239516214408228      -0.226890632228648     
 -0.214265050049069      -0.201639467869489      -0.189013885689910     
 -0.176388303510330      -0.163762721330751      -0.151137139151172     
 -0.290984977905128      -0.278359395725549      -0.265733813545969     
 -0.253108231366390      -0.240482649186810      -0.227857067007231     
 -0.215231484827651      -0.202605902648072      -0.189980320468492     
 -0.177354738288913      -0.164729156109333      -0.309712748405557     
 -0.297087166225978      -0.284461584046398      -0.271836001866819     
 -0.259210419687239      -0.246584837507660      -0.233959255328081     
 -0.221333673148501      -0.208708090968922      -0.196082508789343     
 -0.183456926609763      -0.333280924320035      -0.320655342140456     
 -0.308029759960876      -0.295404177781297      -0.282778595601718     
 -0.270153013422138      -0.257527431242559      -0.244901849062979     
 -0.232276266883400      -0.219650684703820      -0.207025102524241     
 -0.361317821435444      -0.348692239255864      -0.336066657076285     
 -0.323441074896706      -0.310815492717126      -0.298189910537547     
 -0.285564328357967      -0.272938746178388      -0.260313163998808     
 -0.247687581819229      -0.235061999639649      -0.393381281135844     
 -0.380755698956264      -0.368130116776685      -0.355504534597105     
 -0.342878952417526      -0.330253370237947      -0.317627788058367     
 -0.305002205878788      -0.292376623699208      -0.279751041519629     
 -0.267125459340050      -0.428965643507976      -0.416340061328396     
 -0.403714479148817      -0.391088896969238      -0.378463314789659     
 -0.365837732610079      -0.353212150430499      -0.340586568250920     
 -0.327960986071341      -0.315335403891761      -0.302709821712182     
 -0.467509721900165      -0.454884139720586      -0.442258557541006     
 -0.429632975361427      -0.417007393181847      -0.404381811002268     
 -0.391756228822688      -0.379130646643109      -0.366505064463529     
 -0.353879482283950      -0.341253900104371      -0.508405653171050     
 -0.495780070991470      -0.483154488811891      -0.470528906632312     
 -0.457903324452732      -0.445277742273153      -0.432652160093573     
 -0.420026577913993      -0.407400995734414      -0.394775413554835     
 -0.382149831375255      -0.551008484054442      -0.538382901874863     
 -0.525757319695284      -0.513131737515704      -0.500506155336125     
 -0.487880573156545      -0.475254990976966      -0.462629408797387     
 -0.450003826617807      -0.437378244438228      -0.424752662258648     
 -0.594646342457616      -0.582020760278036      -0.569395178098455     
 -0.556769595918877      -0.544144013739297      -0.531518431559718     
 -0.518892849380138      -0.506267267200559      -0.493641685020980     
 -0.481016102841401      -0.468390520661821      -0.638631033285557     
 -0.626005451105977      -0.613379868926398      -0.600754286746818     
 -0.588128704567239      -0.575503122387659      -0.562877540208081     
 -0.550251958028501      -0.537626375848922      -0.525000793669342     
 -0.512375211489762      -0.682268891688729      -0.669643309509150     
 -0.657017727329570      -0.644392145149991      -0.631766562970411     
 -0.619140980790832      -0.606515398611252      -0.593889816431673     
 -0.581264234252093      -0.568638652072514      -0.556013069892935     
 -0.724871722572123      -0.712246140392542      -0.699620558212963     
 -0.686994976033384      -0.674369393853805      -0.661743811674225     
 -0.649118229494645      -0.636492647315066      -0.623867065135487     
 -0.611241482955907      -0.598615900776328      -0.765767653843007     
 -0.753142071663427      -0.740516489483848      -0.727890907304269     
 -0.715265325124688      -0.702639742945109      -0.690014160765530     
 -0.677388578585951      -0.664762996406371      -0.652137414226793     
 -0.639511832047213      -0.804311732235196      -0.791686150055615     
 -0.779060567876037      -0.766434985696457      -0.753809403516877     
 -0.741183821337299      -0.728558239157719      -0.715932656978139     
 -0.703307074798560      -0.690681492618981      -0.678055910439401     
 -0.839896094607328      -0.827270512427748      -0.814644930248169     
 -0.802019348068589      -0.789393765889011      -0.776768183709431     
 -0.764142601529852      -0.751517019350272      -0.738891437170693     
 -0.726265854991113      -0.713640272811534      -0.871959554307728     
 -0.859333972128149      -0.846708389948568      -0.834082807768989     
 -0.821457225589410      -0.808831643409830      -0.796206061230251     
 -0.783580479050672      -0.770954896871092      -0.758329314691513     
 -0.745703732511932      -0.899996451423136      -0.887370869243557     
 -0.874745287063977      -0.862119704884398      -0.849494122704819     
 -0.836868540525239      -0.824242958345660      -0.811617376166080     
 -0.798991793986502      -0.786366211806921      -0.773740629627342     
 -0.923564627337615      -0.910939045158036      -0.898313462978454     
 -0.885687880798877      -0.873062298619298      -0.860436716439718     
 -0.847811134260138      -0.835185552080559      -0.822559969900979     
 -0.809934387721399      -0.797308805541819      -0.942292397838043     
 -0.929666815658464      -0.917041233478885      -0.904415651299305     
 -0.891790069119726      -0.879164486940146      -0.866538904760567     
 -0.853913322580989      -0.841287740401408      -0.828662158221829     
 -0.816036576042249      -0.955884414796206      -0.943258832616627     
 -0.930633250437046      -0.918007668257467      -0.905382086077888     
 -0.892756503898308      -0.880130921718729      -0.867505339539149     
 -0.854879757359570      -0.842254175179991      -0.829628593000411     
 -0.964126323985190      -0.951500741805613      -0.938875159626034     
 -0.926249577446452      -0.913623995266874      -0.900998413087295     
 -0.888372830907713      -0.875747248728135      -0.863121666548557     
 -0.850496084368977      -0.837870502189398      -0.966888145573613     
 -0.954262563394034      -0.941636981214456      -0.929011399034877     
 -0.916385816855296      -0.903760234675718      -0.891134652496138     
 -0.878509070316557      -0.865883488136979      -0.853257905957400     
 -0.840632323777821     
  3.960717710078315E-002  3.564645939070483E-002  3.168574168062652E-002
  2.772502397054821E-002  2.376430626046989E-002  1.980358855039158E-002
  1.584287084031326E-002  1.188215313023495E-002  7.921435420156629E-003
  3.960717710078312E-003  0.000000000000000E+000  3.960717710078315E-002
  3.564645939070483E-002  3.168574168062652E-002  2.772502397054821E-002
  2.376430626046989E-002  1.980358855039158E-002  1.584287084031326E-002
  1.188215313023495E-002  7.921435420156629E-003  3.960717710078312E-003
  0.000000000000000E+000  3.960717710078315E-002  3.564645939070483E-002
  3.168574168062652E-002  2.772502397054821E-002  2.376430626046989E-002
  1.980358855039158E-002  1.584287084031326E-002  1.188215313023495E-002
  7.921435420156629E-003  3.960717710078312E-003  0.000000000000000E+000
  3.960717710078315E-002  3.564645939070483E-002  3.168574168062652E-002
  2.772502397054821E-002  2.376430626046989E-002  1.980358855039158E-002
  1.584287084031326E-002  1.188215313023495E-002  7.921435420156629E-003
  3.960717710078312E-003  0.000000000000000E+000  3.960717710078315E-002
  3.564645939070483E-002  3.168574168062652E-002  2.772502397054821E-002
  2.376430626046989E-002  1.980358855039158E-002  1.584287084031326E-002
  1.188215313023495E-002  7.921435420156629E-003  3.960717710078312E-003
  0.000000000000000E+000  3.960717710078315E-002  3.564645939070483E-002
  3.168574168062652E-002  2.772502397054821E-002  2.376430626046989E-002
  1.980358855039158E-002  1.584287084031326E-002  1.188215313023495E-002
  7.921435420156629E-003  3.960717710078312E-003  0.000000000000000E+000
  3.960717710078315E-002  3.564645939070483E-002  3.168574168062652E-002
  2.772502397054821E-002  2.376430626046989E-002  1.980358855039158E-002
  1.584287084031326E-002  1.188215313023495E-002  7.921435420156629E-003
  3.960717710078312E-003  0.000000000000000E+000  3.960717710078315E-002
  3.564645939070483E-002  3.168574168062652E-002  2.772502397054821E-002
  2.376430626046989E-002  1.980358855039158E-002  1.584287084031326E-002
  1.188215313023495E-002  7.921435420156629E-003  3.960717710078312E-003
  0.000000000000000E+000  3.960717710078315E-002  3.564645939070483E-002
  3.168574168062652E-002  2.772502397054821E-002  2.376430626046989E-002
  1.980358855039158E-002  1.584287084031326E-002  1.188215313023495E-002
  7.921435420156629E-003  3.960717710078312E-003  0.000000000000000E+000
  3.960717710078315E-002  3.564645939070483E-002  3.168574168062652E-002
  2.772502397054821E-002  2.376430626046989E-002  1.980358855039158E-002
  1.584287084031326E-002  1.188215313023495E-002  7.921435420156629E-003
  3.960717710078312E-003  0.000000000000000E+000  3.960717710078315E-002
  3.564645939070483E-002  3.168574168062652E-002  2.772502397054821E-002
  2.376430626046989E-002  1.980358855039158E-002  1.584287084031326E-002
  1.188215313023495E-002  7.921435420156629E-003  3.960717710078312E-003
  0.000000000000000E+000  3.960717710078315E-002  3.564645939070483E-002
  3.168574168062652E-002  2.772502397054821E-002  2.376430626046989E-002
  1.980358855039158E-002  1.584287084031326E-002  1.188215313023495E-002
  7.921435420156629E-003  3.960717710078312E-003  0.000000000000000E+000
  3.960717710078315E-002  3.564645939070483E-002  3.168574168062652E-002
  2.772502397054821E-002  2.376430626046989E-002  1.980358855039158E-002
  1.584287084031326E-002  1.188215313023495E-002  7.921435420156629E-003
  3.960717710078312E-003  0.000000000000000E+000  3.960717710078315E-002
  3.564645939070483E-002  3.168574168062652E-002  2.772502397054821E-002
  2.376430626046989E-002  1.980358855039158E-002  1.584287084031326E-002
  1.188215313023495E-002  7.921435420156629E-003  3.960717710078312E-003
  0.000000000000000E+000  3.960717710078315E-002  3.564645939070483E-002
  3.168574168062652E-002  2.772502397054821E-002  2.376430626046989E-002
  1.980358855039158E-002  1.584287084031326E-002  1.188215313023495E-002
  7.921435420156629E-003  3.960717710078312E-003  0.000000000000000E+000
  3.960717710078315E-002  3.564645939070483E-002  3.168574168062652E-002
  2.772502397054821E-002  2.376430626046989E-002  1.980358855039158E-002
  1.584287084031326E-002  1.188215313023495E-002  7.921435420156629E-003
  3.960717710078312E-003  0.000000000000000E+000  3.960717710078315E-002
  3.564645939070483E-002  3.168574168062652E-002  2.772502397054821E-002
  2.376430626046989E-002  1.980358855039158E-002  1.584287084031326E-002
  1.188215313023495E-002  7.921435420156629E-003  3.960717710078312E-003
  0.000000000000000E+000  3.960717710078315E-002  3.564645939070483E-002
  3.168574168062652E-002  2.772502397054821E-002  2.376430626046989E-002
  1.980358855039158E-002  1.584287084031326E-002  1.188215313023495E-002
  7.921435420156629E-003  3.960717710078312E-003  0.000000000000000E+000
  3.960717710078315E-002  3.564645939070483E-002  3.168574168062652E-002
  2.772502397054821E-002  2.376430626046989E-002  1.980358855039158E-002
  1.584287084031326E-002  1.188215313023495E-002  7.921435420156629E-003
  3.960717710078312E-003  0.000000000000000E+000  3.960717710078315E-002
  3.564645939070483E-002  3.168574168062652E-002  2.772502397054821E-002
  2.376430626046989E-002  1.980358855039158E-002  1.584287084031326E-002
  1.188215313023495E-002  7.921435420156629E-003  3.960717710078312E-003
  0.000000000000000E+000  3.960717710078315E-002  3.564645939070483E-002
  3.168574168062652E-002  2.772502397054821E-002  2.376430626046989E-002
  1.980358855039158E-002  1.584287084031326E-002  1.188215313023495E-002
  7.921435420156629E-003  3.960717710078312E-003  0.000000000000000E+000
  3.960717710078315E-002  3.564645939070483E-002  3.168574168062652E-002
  2.772502397054821E-002  2.376430626046989E-002  1.980358855039158E-002
  1.584287084031326E-002  1.188215313023495E-002  7.921435420156629E-003
  3.960717710078312E-003  0.000000000000000E+000  3.960717710078315E-002
  3.564645939070483E-002  3.168574168062652E-002  2.772502397054821E-002
  2.376430626046989E-002  1.980358855039158E-002  1.584287084031326E-002
  1.188215313023495E-002  7.921435420156629E-003  3.960717710078312E-003
  0.000000000000000E+000  3.960717710078315E-002  3.564645939070483E-002
  3.168574168062652E-002  2.772502397054821E-002  2.376430626046989E-002
  1.980358855039158E-002  1.584287084031326E-002  1.188215313023495E-002
  7.921435420156629E-003  3.960717710078312E-003  0.000000000000000E+000
  3.960717710078315E-002  3.564645939070483E-002  3.168574168062652E-002
  2.772502397054821E-002  2.376430626046989E-002  1.980358855039158E-002
  1.584287084031326E-002  1.188215313023495E-002  7.921435420156629E-003
  3.960717710078312E-003  0.000000000000000E+000  3.960717710078315E-002
  3.564645939070483E-002  3.168574168062652E-002  2.772502397054821E-002
  2.376430626046989E-002  1.980358855039158E-002  1.584287084031326E-002
  1.188215313023495E-002  7.921435420156629E-003  3.960717710078312E-003
  0.000000000000000E+000
  3.271015662295530E-002  5.524548544501094E-002  7.816923159779554E-002
  0.101925416064192       0.126921237423706       0.153479111510623     
  0.181456839445305       0.210343081163639       0.239785259961511     
  0.268635144928776       4.799484510342202E-002  8.641293535394187E-002
  0.126170308517759       0.167593794281386       0.211106350200840     
  0.257165904019388       0.305606374362960       0.355763965269374     
  0.407237508832354       0.458654684148798       5.044766712348445E-002
  0.103614295728546       0.160800191022559       0.221047749630842     
  0.284368417549911       0.351168596968882       0.421403556659595     
  0.494544385524508       0.569856893509099       0.643556316624609     
  5.605163812966930E-002  0.121965674314553       0.194405481878976     
  0.271434742522673       0.352707022453864       0.438471730826901     
  0.528703556744812       0.622887753658254       0.720041572693731     
  0.814610267573720       8.915962916832472E-002  0.171577749046321     
  0.258190143611547       0.349226287432498       0.444794638782809     
  0.545151281389004       0.650480927725393       0.760579328155990     
  0.874143916891926       0.984381254346043       0.159441314792187     
  0.270210926744087       0.374774628950752       0.479038120342383     
  0.585222565249790       0.694640060344891       0.808204172900690     
  0.926415360380512        1.04862134995204        1.16839501607552     
  0.261831883771781       0.413560258852664       0.542150499509775     
  0.661497252879789       0.777124516841403       0.892292568101115     
   1.00934153025400        1.12987765744836        1.25433417354858     
   1.37769248884268       0.389593798971283       0.593920354989909     
  0.753884952327506       0.892867121407091        1.02018528881002     
   1.14129882005104        1.26015667127641        1.37984093624144     
   1.50228501259595        1.62405989744597       0.541297565911211     
  0.810979152512615        1.01195837139207        1.17824516559986     
   1.32321681868415        1.45446673247434        1.57736988341517     
   1.69621114153080        1.81417029474168        1.92927910460023     
  0.715943506252507        1.06378709918281        1.31649042808694     
   1.51989243855565        1.69156991080160        1.84093820671186     
   1.97430106674732        2.09648594798719        2.21094952764227     
   2.31620883223208       0.908530747706228        1.34426972785525     
   1.65670109230304        1.90463072243812        2.11030629139146     
   2.28502480426935        2.43562968735233        2.56677861676080     
   2.68142897083127        2.77780538566745        1.11242725700231     
   1.64130307506753        2.01704947567584        2.31228138509677     
   2.55443444663810        2.75720434382425        2.92842534492849     
   3.07278220657589        3.19247372445000        3.28454902038880     
   1.32313887104896        1.94772224347630        2.38800807831982     
   2.73095506851430        3.00946180426358        3.23990904388096     
   3.43151521698673        3.58948626436811        3.71574905745619     
   3.80637002948954        1.53871131342177        2.26044697077851     
   2.76566085021709        3.15610980368895        3.47037310438779     
   3.72767691404818        3.93881279426071        4.10981755643324     
   4.24289435643622        4.33395618611076        1.75976205833789     
   2.57985989088012        3.14989324152117        3.58703808375999     
   3.93587015465894        4.21871234823222        4.44818146745334     
   4.63143562438116        4.77131955242440        4.86400871894240     
   1.98973316333787        2.90969834570179        3.54380168505873     
   4.02581484537587        4.40691379899725        4.71290132136375     
   4.95849924086450        5.15221849305058        5.29776264192518     
   5.39180525061910        2.23053145482922        3.25091803233670     
   3.94670404250095        4.46999987595700        4.87943299966727     
   5.20477299575245        5.46313674440696        5.66456563372664     
   5.81375074765311        5.90801487447018        2.46509837509004     
   3.57822879662356        4.32760274600679        4.88435865271473     
   5.31496481108533        5.65336599386088        5.91916369820440     
   6.12396942576641        6.27352289386454        6.36598810323898     
   2.65157829247084        3.83092780242519        4.61334782129612     
   5.18685708750056        5.62502398004901        5.96551847122696     
   6.23007827458657        6.43162153086082        6.57676849522917     
   6.66458520149563        2.73995693068370        3.93672487612217     
   4.71716844998241        5.28054229958264        5.70540608197466     
   6.03201357680799        6.28345266565426        6.47331477803771     
   6.60861213356939        6.68913982842546        2.68681591142461     
   3.82975894738224        4.55724352025776        5.07187630661564     
   5.45378046047981        5.74356325214368        5.96401906008390     
   6.12815999880381        6.24254695775740        6.30789339736083     
   2.48747060808215        3.49810274784979        4.11913955541351     
   4.54852024347755        4.86261368682491        5.09861434861363     
   5.27659084123340        5.40748848360477        5.49638826318158     
   5.54385274367516        2.14262182656486        2.94435536221047     
   3.41813022714978        3.74091609321628        3.97578752428480     
   4.15189163467645        4.28453212237268        4.38198988296197     
   4.44830294991359        4.48460289778530        1.63603785969609     
   2.17667141384662        2.49179034330612        2.70695684796904     
   2.86407665973806        2.98223971071012        3.07150180691378     
   3.13753961336119        3.18402159185881        3.21652356504482     
  0.994171866671432        1.29685756849355        1.47492585964713     
   1.59718385403497        1.68676358900908        1.75428264616484     
   1.80536196048329        1.84316316222391        1.86946681921416     
   1.88474098363121     
  0.000000000000000E+000  0.000000000000000E+000  0.000000000000000E+000
  0.000000000000000E+000  0.000000000000000E+000  0.000000000000000E+000
  0.000000000000000E+000  0.000000000000000E+000  0.000000000000000E+000
  0.000000000000000E+000  0.000000000000000E+000  0.000000000000000E+000
  0.000000000000000E+000  0.000000000000000E+000  0.000000000000000E+000
  0.000000000000000E+000  0.000000000000000E+000  0.000000000000000E+000
  0.000000000000000E+000  0.000000000000000E+000  0.000000000000000E+000
  0.000000000000000E+000  0.000000000000000E+000  0.000000000000000E+000
  0.000000000000000E+000  0.000000000000000E+000  0.000000000000000E+000
  0.000000000000000E+000  0.000000000000000E+000  0.000000000000000E+000
  0.000000000000000E+000  0.000000000000000E+000  0.000000000000000E+000
  0.000000000000000E+000  0.000000000000000E+000  0.000000000000000E+000
  0.000000000000000E+000  0.000000000000000E+000  0.000000000000000E+000
  0.000000000000000E+000  0.000000000000000E+000  0.000000000000000E+000
  0.000000000000000E+000  0.000000000000000E+000  0.000000000000000E+000
  0.000000000000000E+000  0.000000000000000E+000  0.000000000000000E+000
  0.000000000000000E+000  0.000000000000000E+000  0.000000000000000E+000
  0.000000000000000E+000  0.000000000000000E+000  0.000000000000000E+000
  0.000000000000000E+000  0.000000000000000E+000  0.000000000000000E+000
  0.000000000000000E+000  0.000000000000000E+000  0.000000000000000E+000
  0.000000000000000E+000  0.000000000000000E+000  0.000000000000000E+000
  0.000000000000000E+000  0.000000000000000E+000  0.000000000000000E+000
  0.000000000000000E+000  0.000000000000000E+000  0.000000000000000E+000
  0.000000000000000E+000  0.000000000000000E+000  0.000000000000000E+000
  0.000000000000000E+000  0.000000000000000E+000  0.000000000000000E+000
  0.000000000000000E+000  0.000000000000000E+000  0.000000000000000E+000
  0.000000000000000E+000  0.000000000000000E+000  0.000000000000000E+000
  0.000000000000000E+000  0.000000000000000E+000  0.000000000000000E+000
  0.000000000000000E+000  0.000000000000000E+000  0.000000000000000E+000
  0.000000000000000E+000  0.000000000000000E+000  0.000000000000000E+000
  0.000000000000000E+000  0.000000000000000E+000  0.000000000000000E+000
  0.000000000000000E+000  0.000000000000000E+000  0.000000000000000E+000
  0.000000000000000E+000  0.000000000000000E+000  0.000000000000000E+000
  0.000000000000000E+000  0.000000000000000E+000  0.000000000000000E+000
  0.000000000000000E+000  0.000000000000000E+000  0.000000000000000E+000
  0.000000000000000E+000  0.000000000000000E+000  0.000000000000000E+000
  0.000000000000000E+000  0.000000000000000E+000  0.000000000000000E+000
  0.000000000000000E+000  0.000000000000000E+000  0.000000000000000E+000
  0.000000000000000E+000  0.000000000000000E+000  0.000000000000000E+000