 Title = "Wing and Wake"
 VARIABLES = "X" "Y" "Z" "GAM" "skew"
 Zone I=   11 J=   26 K=1  T="Blade"
 DATAPACKING=BLOCK
 VARLOCATION=([4]=CELLCENTERED,[5]=CELLCENTERED)
  0.109326366535084       9.183234213592743E-002  7.433831773677010E-002
  5.684429333761255E-002  3.935026893845504E-002  2.185624453929778E-002
  4.362220140140457E-003 -1.313180425901691E-002 -3.062582865817390E-002
 -4.811985305733150E-002 -6.561387745648882E-002  0.108033214349875     
  9.053918995071721E-002  7.304516555155968E-002  5.555114115240278E-002
  3.805711675324506E-002  2.056309235408785E-002  3.069067954930423E-003
 -1.442495644422663E-002 -3.191898084338422E-002 -4.941300524254131E-002
 -6.690702964169885E-002  0.104174151576697       8.668012717753999E-002
  6.918610277838233E-002  5.169207837922508E-002  3.419805398006784E-002
  1.670402958091048E-002 -7.899948182470743E-004 -1.828401921740410E-002
 -3.577804361656119E-002 -5.327206801571874E-002 -7.076609241487603E-002
  9.781003794077758E-002  8.031601354162010E-002  6.282198914246256E-002
  4.532796474330560E-002  2.783394034414818E-002  1.033991594499084E-002
 -7.154108454166193E-003 -2.464813285332374E-002 -4.214215725248122E-002
 -5.963618165163863E-002 -7.713020605079528E-002  8.904123931589152E-002
  7.154721491673473E-002  5.405319051757681E-002  3.655916611841966E-002
  1.906514171926229E-002  1.571117320104947E-003 -1.592290707905258E-002
 -3.341693147820955E-002 -5.091095587736702E-002 -6.840498027652413E-002
 -8.589900467568153E-002  7.800604489457996E-002  6.051202049542273E-002
  4.301799609626530E-002  2.552397169710798E-002  8.029947297950906E-003
 -9.464077101206952E-003 -2.695810150036413E-002 -4.445212589952121E-002
 -6.194615029867883E-002 -7.944017469783603E-002 -9.693419909699363E-002
  6.487848628497253E-002  4.738446188581517E-002  2.989043748665821E-002
  1.239641308750065E-002 -5.097611311656509E-003 -2.259163571081437E-002
 -4.008566010997131E-002 -5.757968450912847E-002 -7.507370890828545E-002
 -9.256773330744275E-002 -0.110061757706600       4.986559292836607E-002
  3.237156852920874E-002  1.487754413005116E-002 -2.616480269105806E-003
 -2.011050466826316E-002 -3.760452906742043E-002 -5.509855346657772E-002
 -7.259257786573489E-002 -9.008660226489255E-002 -0.107580626664049     
 -0.125074651063207       3.320412712126259E-002  1.571010272210422E-002
 -1.783921677052512E-003 -1.927794607620977E-002 -3.677197047536696E-002
 -5.426599487452436E-002 -7.176001927368179E-002 -8.925404367283919E-002
 -0.106748068071997      -0.124242092471154      -0.141736116870311     
  1.515685013251598E-002 -2.337174266641207E-003 -1.983119866579862E-002
 -3.732522306495631E-002 -5.481924746411344E-002 -7.231327186327026E-002
 -8.980729626242795E-002 -0.107301320661585      -0.124795345060742     
 -0.142289369459900      -0.159783393859057      -3.991621698839458E-003
 -2.148564609799687E-002 -3.897967049715386E-002 -5.647369489631081E-002
 -7.396771929546857E-002 -9.146174369462623E-002 -0.108955768093782     
 -0.126449792492941      -0.143943816892097      -0.161437841291255     
 -0.178931865690413      -2.393930553328093E-002 -4.143332993243748E-002
 -5.892735433159598E-002 -7.642137873075244E-002 -9.391540312990988E-002
 -0.111409427529067      -0.128903451928224      -0.146397476327382     
 -0.163891500726539      -0.181385525125696      -0.198879549524853     
 -4.437161448057016E-002 -6.186563887972749E-002 -7.935966327888509E-002
 -9.685368767804170E-002 -0.114347712077199      -0.131841736476356     
 -0.149335760875514      -0.166829785274672      -0.184323809673829     
 -0.201817834072986      -0.219311858472143      -6.496631882293885E-002
 -8.246034322209710E-002 -9.995436762125279E-002 -0.117448392020410     
 -0.134942416419568      -0.152436440818726      -0.169930465217884     
 -0.187424489617039      -0.204918514016198      -0.222412538415355     
 -0.239906562814512      -8.539862777022827E-002 -0.102892652169385     
 -0.120386676568543      -0.137880700967700      -0.155374725366858     
 -0.172868749766015      -0.190362774165172      -0.207856798564331     
 -0.225350822963486      -0.242844847362643      -0.260338871761802     
 -0.105346311604669      -0.122840336003827      -0.140334360402985     
 -0.157828384802140      -0.175322409201299      -0.192816433600456     
 -0.210310457999612      -0.227804482398770      -0.245298506797928     
 -0.262792531197084      -0.280286555596243      -0.124494783436025     
 -0.141988807835182      -0.159482832234339      -0.176976856633496     
 -0.194470881032654      -0.211964905431812      -0.229458929830969     
 -0.246952954230126      -0.264446978629283      -0.281941003028442     
 -0.299435027427598      -0.142542060424770      -0.160036084823928     
 -0.177530109223086      -0.195024133622243      -0.212518158021400     
 -0.230012182420558      -0.247506206819715      -0.265000231218873     
 -0.282494255618029      -0.299988280017186      -0.317482304416343     
 -0.159203526231876      -0.176697550631032      -0.194191575030190     
 -0.211685599429347      -0.229179623828504      -0.246673648227662     
 -0.264167672626818      -0.281661697025976      -0.299155721425133     
 -0.316649745824292      -0.334143770223447      -0.174216419588481     
 -0.191710443987639      -0.209204468386796      -0.226698492785954     
 -0.244192517185110      -0.261686541584269      -0.279180565983424     
 -0.296674590382583      -0.314168614781741      -0.331662639180898     
 -0.349156663580053      -0.187343978198090      -0.204838002597247     
 -0.222332026996403      -0.239826051395560      -0.257320075794718     
 -0.274814100193875      -0.292308124593034      -0.309802148992190     
 -0.327296173391346      -0.344790197790506      -0.362284222189661     
 -0.198379172619399      -0.215873197018556      -0.233367221417716     
 -0.250861245816873      -0.268355270216028      -0.285849294615188     
 -0.303343319014345      -0.320837343413501      -0.338331367812658     
 -0.355825392211817      -0.373319416610976      -0.207147971244287     
 -0.224641995643443      -0.242136020042601      -0.259630044441758     
 -0.277124068840916      -0.294618093240073      -0.312112117639230     
 -0.329606142038388      -0.347100166437545      -0.364594190836701     
 -0.382088215235859      -0.213512084880205      -0.231006109279362     
 -0.248500133678520      -0.265994158077677      -0.283488182476835     
 -0.300982206875993      -0.318476231275150      -0.335970255674308     
 -0.353464280073463      -0.370958304472623      -0.388452328871780     
 -0.217371147653383      -0.234865172052540      -0.252359196451696     
 -0.269853220850855      -0.287347245250012      -0.304841269649171     
 -0.322335294048328      -0.339829318447484      -0.357323342846642     
 -0.374817367245799      -0.392311391644956      -0.218664299838592     
 -0.236158324237751      -0.253652348636907      -0.271146373036066     
 -0.288640397435223      -0.306134421834380      -0.323628446233537     
 -0.341122470632694      -0.358616495031852      -0.376110519431009     
 -0.393604543830168     
 -0.243051506175033      -0.236634783838610      -0.230218061502187     
 -0.223801339165764      -0.217384616829340      -0.210967894492917     
 -0.204551172156493      -0.198134449820070      -0.191717727483647     
 -0.185301005147223      -0.178884282810800      -0.246577050010938     
 -0.240160327674515      -0.233743605338091      -0.227326883001668     
 -0.220910160665244      -0.214493438328821      -0.208076715992397     
 -0.201659993655974      -0.195243271319551      -0.188826548983128     
 -0.182409826646704      -0.257098081586301      -0.250681359249877     
 -0.244264636913453      -0.237847914577030      -0.231431192240607     
 -0.225014469904184      -0.218597747567760      -0.212181025231337     
 -0.205764302894914      -0.199347580558490      -0.192930858222067     
 -0.274448677948219      -0.268031955611795      -0.261615233275372     
 -0.255198510938949      -0.248781788602526      -0.242365066266102     
 -0.235948343929679      -0.229531621593255      -0.223114899256832     
 -0.216698176920409      -0.210281454583985      -0.298355209827321     
 -0.291938487490897      -0.285521765154474      -0.279105042818051     
 -0.272688320481627      -0.266271598145204      -0.259854875808781     
 -0.253438153472357      -0.247021431135934      -0.240604708799511     
 -0.234187986463087      -0.328440656934803      -0.322023934598381     
 -0.315607212261957      -0.309190489925533      -0.302773767589110     
 -0.296357045252688      -0.289940322916264      -0.283523600579840     
 -0.277106878243417      -0.270690155906993      -0.264273433570570     
 -0.364230553797607      -0.357813831461184      -0.351397109124761     
 -0.344980386788337      -0.338563664451913      -0.332146942115491     
 -0.325730219779068      -0.319313497442644      -0.312896775106220     
 -0.306480052769796      -0.300063330433373      -0.405160472362357     
 -0.398743750025933      -0.392327027689511      -0.385910305353088     
 -0.379493583016664      -0.373076860680240      -0.366660138343817     
 -0.360243416007394      -0.353826693670970      -0.347409971334547     
 -0.340993248998125      -0.450584923362939      -0.444168201026516     
 -0.437751478690093      -0.431334756353670      -0.424918034017247     
 -0.418501311680822      -0.412084589344399      -0.405667867007976     
 -0.399251144671553      -0.392834422335129      -0.386417699998706     
 -0.499787536071822      -0.493370813735399      -0.486954091398976     
 -0.480537369062552      -0.474120646726130      -0.467703924389705     
 -0.461287202053282      -0.454870479716860      -0.448453757380435     
 -0.442037035044011      -0.435620312707589      -0.551992355894373     
 -0.545575633557949      -0.539158911221525      -0.532742188885102     
 -0.526325466548678      -0.519908744212256      -0.513492021875830     
 -0.507075299539408      -0.500658577202984      -0.494241854866561     
 -0.487825132530137      -0.606376081636337      -0.599959359299913     
 -0.593542636963491      -0.587125914627065      -0.580709192290643     
 -0.574292469954221      -0.567875747617797      -0.561459025281373     
 -0.555042302944949      -0.548625580608526      -0.542208858272103     
 -0.662081049455505      -0.655664327119082      -0.649247604782657     
 -0.642830882446235      -0.636414160109812      -0.629997437773388     
 -0.623580715436965      -0.617163993100542      -0.610747270764118     
 -0.604330548427695      -0.597913826091271      -0.718228758732834     
 -0.711812036396409      -0.705395314059986      -0.698978591723561     
 -0.692561869387139      -0.686145147050716      -0.679728424714293     
 -0.673311702377869      -0.666894980041448      -0.660478257705022     
 -0.654061535368599      -0.773933726552000      -0.767517004215576     
 -0.761100281879154      -0.754683559542729      -0.748266837206306     
 -0.741850114869886      -0.735433392533460      -0.729016670197036     
 -0.722599947860612      -0.716183225524188      -0.709766503187768     
 -0.828317452293966      -0.821900729957541      -0.815484007621119     
 -0.809067285284696      -0.802650562948274      -0.796233840611850     
 -0.789817118275425      -0.783400395939003      -0.776983673602579     
 -0.770566951266154      -0.764150228929733      -0.880522272116515     
 -0.874105549780092      -0.867688827443667      -0.861272105107245     
 -0.854855382770821      -0.848438660434398      -0.842021938097974     
 -0.835605215761552      -0.829188493425128      -0.822771771088705     
 -0.816355048752282      -0.929724884825398      -0.923308162488974     
 -0.916891440152551      -0.910474717816128      -0.904057995479705     
 -0.897641273143282      -0.891224550806858      -0.884807828470434     
 -0.878391106134010      -0.871974383797587      -0.865557661461163     
 -0.975149335825979      -0.968732613489555      -0.962315891153132     
 -0.955899168816709      -0.949482446480286      -0.943065724143863     
 -0.936649001807438      -0.930232279471016      -0.923815557134594     
 -0.917398834798169      -0.910982112461745       -1.01607925439073     
  -1.00966253205431       -1.00324580971788      -0.996829087381460     
 -0.990412365045037      -0.983995642708611      -0.977578920372190     
 -0.971162198035768      -0.964745475699342      -0.958328753362920     
 -0.951912031026496       -1.05186915125353       -1.04545242891711     
  -1.03903570658068       -1.03261898424426       -1.02620226190784     
  -1.01978553957142       -1.01336881723499       -1.00695209489857     
  -1.00053537256215      -0.994118650225723      -0.987701927889298     
  -1.08195459836102       -1.07553787602459       -1.06912115368817     
  -1.06270443135175       -1.05628770901532       -1.04987098667890     
  -1.04345426434248       -1.03703754200605       -1.03062081966963     
  -1.02420409733321       -1.01778737499678       -1.10586113024012     
  -1.09944440790369       -1.09302768556727       -1.08661096323085     
  -1.08019424089443       -1.07377751855800       -1.06736079622158     
  -1.06094407388516       -1.05452735154873       -1.04811062921231     
  -1.04169390687588       -1.12321172660204       -1.11679500426561     
  -1.11037828192919       -1.10396155959277       -1.09754483725634     
  -1.09112811491992       -1.08471139258350       -1.07829467024707     
  -1.07187794791065       -1.06546122557423       -1.05904450323780     
  -1.13373275817740       -1.12731603584098       -1.12089931350455     
  -1.11448259116813       -1.10806586883170       -1.10164914649528     
  -1.09523242415886       -1.08881570182243       -1.08239897948601     
  -1.07598225714959       -1.06956553481316       -1.13725830201330     
  -1.13084157967688       -1.12442485734046       -1.11800813500403     
  -1.11159141266761       -1.10517469033119       -1.09875796799476     
  -1.09234124565834       -1.08592452332192       -1.07950780098549     
  -1.07309107864907     
  3.960717710078315E-002  3.564645939070483E-002  3.168574168062652E-002
  2.772502397054821E-002  2.376430626046989E-002  1.980358855039158E-002
  1.584287084031326E-002  1.188215313023495E-002  7.921435420156629E-003
  3.960717710078312E-003  0.000000000000000E+000  3.960717710078315E-002
  3.564645939070483E-002  3.168574168062652E-002  2.772502397054821E-002
  2.376430626046989E-002  1.980358855039158E-002  1.584287084031326E-002
  1.188215313023495E-002  7.921435420156629E-003  3.960717710078312E-003
  0.000000000000000E+000  3.960717710078315E-002  3.564645939070483E-002
  3.168574168062652E-002  2.772502397054821E-002  2.376430626046989E-002
  1.980358855039158E-002  1.584287084031326E-002  1.188215313023495E-002
  7.921435420156629E-003  3.960717710078312E-003  0.000000000000000E+000
  3.960717710078315E-002  3.564645939070483E-002  3.168574168062652E-002
  2.772502397054821E-002  2.376430626046989E-002  1.980358855039158E-002
  1.584287084031326E-002  1.188215313023495E-002  7.921435420156629E-003
  3.960717710078312E-003  0.000000000000000E+000  3.960717710078315E-002
  3.564645939070483E-002  3.168574168062652E-002  2.772502397054821E-002
  2.376430626046989E-002  1.980358855039158E-002  1.584287084031326E-002
  1.188215313023495E-002  7.921435420156629E-003  3.960717710078312E-003
  0.000000000000000E+000  3.960717710078315E-002  3.564645939070483E-002
  3.168574168062652E-002  2.772502397054821E-002  2.376430626046989E-002
  1.980358855039158E-002  1.584287084031326E-002  1.188215313023495E-002
  7.921435420156629E-003  3.960717710078312E-003  0.000000000000000E+000
  3.960717710078315E-002  3.564645939070483E-002  3.168574168062652E-002
  2.772502397054821E-002  2.376430626046989E-002  1.980358855039158E-002
  1.584287084031326E-002  1.188215313023495E-002  7.921435420156629E-003
  3.960717710078312E-003  0.000000000000000E+000  3.960717710078315E-002
  3.564645939070483E-002  3.168574168062652E-002  2.772502397054821E-002
  2.376430626046989E-002  1.980358855039158E-002  1.584287084031326E-002
  1.188215313023495E-002  7.921435420156629E-003  3.960717710078312E-003
  0.000000000000000E+000  3.960717710078315E-002  3.564645939070483E-002
  3.168574168062652E-002  2.772502397054821E-002  2.376430626046989E-002
  1.980358855039158E-002  1.584287084031326E-002  1.188215313023495E-002
  7.921435420156629E-003  3.960717710078312E-003  0.000000000000000E+000
  3.960717710078315E-002  3.564645939070483E-002  3.168574168062652E-002
  2.772502397054821E-002  2.376430626046989E-002  1.980358855039158E-002
  1.584287084031326E-002  1.188215313023495E-002  7.921435420156629E-003
  3.960717710078312E-003  0.000000000000000E+000  3.960717710078315E-002
  3.564645939070483E-002  3.168574168062652E-002  2.772502397054821E-002
  2.376430626046989E-002  1.980358855039158E-002  1.584287084031326E-002
  1.188215313023495E-002  7.921435420156629E-003  3.960717710078312E-003
  0.000000000000000E+000  3.960717710078315E-002  3.564645939070483E-002
  3.168574168062652E-002  2.772502397054821E-002  2.376430626046989E-002
  1.980358855039158E-002  1.584287084031326E-002  1.188215313023495E-002
  7.921435420156629E-003  3.960717710078312E-003  0.000000000000000E+000
  3.960717710078315E-002  3.564645939070483E-002  3.168574168062652E-002
  2.772502397054821E-002  2.376430626046989E-002  1.980358855039158E-002
  1.584287084031326E-002  1.188215313023495E-002  7.921435420156629E-003
  3.960717710078312E-003  0.000000000000000E+000  3.960717710078315E-002
  3.564645939070483E-002  3.168574168062652E-002  2.772502397054821E-002
  2.376430626046989E-002  1.980358855039158E-002  1.584287084031326E-002
  1.188215313023495E-002  7.921435420156629E-003  3.960717710078312E-003
  0.000000000000000E+000  3.960717710078315E-002  3.564645939070483E-002
  3.168574168062652E-002  2.772502397054821E-002  2.376430626046989E-002
  1.980358855039158E-002  1.584287084031326E-002  1.188215313023495E-002
  7.921435420156629E-003  3.960717710078312E-003  0.000000000000000E+000
  3.960717710078315E-002  3.564645939070483E-002  3.168574168062652E-002
  2.772502397054821E-002  2.376430626046989E-002  1.980358855039158E-002
  1.584287084031326E-002  1.188215313023495E-002  7.921435420156629E-003
  3.960717710078312E-003  0.000000000000000E+000  3.960717710078315E-002
  3.564645939070483E-002  3.168574168062652E-002  2.772502397054821E-002
  2.376430626046989E-002  1.980358855039158E-002  1.584287084031326E-002
  1.188215313023495E-002  7.921435420156629E-003  3.960717710078312E-003
  0.000000000000000E+000  3.960717710078315E-002  3.564645939070483E-002
  3.168574168062652E-002  2.772502397054821E-002  2.376430626046989E-002
  1.980358855039158E-002  1.584287084031326E-002  1.188215313023495E-002
  7.921435420156629E-003  3.960717710078312E-003  0.000000000000000E+000
  3.960717710078315E-002  3.564645939070483E-002  3.168574168062652E-002
  2.772502397054821E-002  2.376430626046989E-002  1.980358855039158E-002
  1.584287084031326E-002  1.188215313023495E-002  7.921435420156629E-003
  3.960717710078312E-003  0.000000000000000E+000  3.960717710078315E-002
  3.564645939070483E-002  3.168574168062652E-002  2.772502397054821E-002
  2.376430626046989E-002  1.980358855039158E-002  1.584287084031326E-002
  1.188215313023495E-002  7.921435420156629E-003  3.960717710078312E-003
  0.000000000000000E+000  3.960717710078315E-002  3.564645939070483E-002
  3.168574168062652E-002  2.772502397054821E-002  2.376430626046989E-002
  1.980358855039158E-002  1.584287084031326E-002  1.188215313023495E-002
  7.921435420156629E-003  3.960717710078312E-003  0.000000000000000E+000
  3.960717710078315E-002  3.564645939070483E-002  3.168574168062652E-002
  2.772502397054821E-002  2.376430626046989E-002  1.980358855039158E-002
  1.584287084031326E-002  1.188215313023495E-002  7.921435420156629E-003
  3.960717710078312E-003  0.000000000000000E+000  3.960717710078315E-002
  3.564645939070483E-002  3.168574168062652E-002  2.772502397054821E-002
  2.376430626046989E-002  1.980358855039158E-002  1.584287084031326E-002
  1.188215313023495E-002  7.921435420156629E-003  3.960717710078312E-003
  0.000000000000000E+000  3.960717710078315E-002  3.564645939070483E-002
  3.168574168062652E-002  2.772502397054821E-002  2.376430626046989E-002
  1.980358855039158E-002  1.584287084031326E-002  1.188215313023495E-002
  7.921435420156629E-003  3.960717710078312E-003  0.000000000000000E+000
  3.960717710078315E-002  3.564645939070483E-002  3.168574168062652E-002
  2.772502397054821E-002  2.376430626046989E-002  1.980358855039158E-002
  1.584287084031326E-002  1.188215313023495E-002  7.921435420156629E-003
  3.960717710078312E-003  0.000000000000000E+000  3.960717710078315E-002
  3.564645939070483E-002  3.168574168062652E-002  2.772502397054821E-002
  2.376430626046989E-002  1.980358855039158E-002  1.584287084031326E-002
  1.188215313023495E-002  7.921435420156629E-003  3.960717710078312E-003
  0.000000000000000E+000
  5.992468524817547E-002  9.651434813391538E-002  0.128194205335034     
  0.154234480155592       0.173605385896658       0.186864487470643     
  0.195070913061606       0.199406496181097       0.200898556515524     
  0.200213751853828       0.100828445194065       0.162574687307486     
  0.215678841370405       0.259950805221930       0.293782082422699     
  0.317728282385393       0.333174504353349       0.341908176202694     
  0.345710933742525       0.346241297126931       0.140948737525759     
  0.225141920176459       0.296018397978036       0.356392992492077     
  0.405138130047436       0.442294807245249       0.468555618530807     
  0.485452803860229       0.494964506109791       0.498310205105296     
  0.185000488489352       0.288685698566295       0.372125066465884     
  0.443150272186226       0.502928927169669       0.551728276509919     
  0.589698086556583       0.617222670678158       0.635202015544695     
  0.643718431238718       0.242077011342651       0.369860454906907     
  0.467901433899406       0.549106130985715       0.617537673912994     
  0.674722322690778       0.721316964658674       0.757718863202142     
  0.783984860904140       0.798774451606304       0.317771130376224     
  0.479177573309472       0.599406531580404       0.696788474547715     
  0.777786849192036       0.845426673523113       0.901229477192035     
  0.945813114890922       0.979010340424734       0.998950208663657     
  0.412957532917897       0.617699691854125       0.767551774699852     
  0.887463530938451       0.986463967734553        1.06881981424980     
   1.13680966828108        1.19151936279841        1.23277071243628     
   1.25815286417537       0.526826451403406       0.783861789086571     
  0.969795853785823        1.11736990130010        1.23860357990646     
   1.33922519198623        1.42222316454604        1.48899525857531     
   1.53946052964194        1.57089325309148       0.658710048641197     
  0.976427658875717        1.20424437825009        1.38386595128392     
   1.53069989939491        1.65214668024372        1.75211072239975     
   1.83243336895852        1.89313086157287        1.93116703498089     
  0.807847901566603        1.19411974251882        1.46908112073844     
   1.68455357033440        1.85979099044473        2.00411708666062     
   2.12251852900389        2.21744737067437        2.28915168978983     
   2.33430079599397       0.972782412379829        1.43470321465506     
   1.76147498601675        2.01612986431018        2.22221259979930     
   2.39120512077804        2.52932123086965        2.63973115080853     
   2.72301721677095        2.77562915398699        1.15144677441116     
   1.69509964806085        2.07764042549979        2.37427522236747     
   2.61322461148631        2.80833466824634        2.96718000892872     
   3.09374040309921        3.18900090685335        3.24924806438707     
   1.34148597546997        1.97175273493377        2.41311907750029     
   2.75378642004036        3.02698914502398        3.24912585715335     
   3.42924878428803        3.57223301390961        3.67953985587895     
   3.74736508617873        1.54083052120431        2.26137226536203     
   2.76358920777720        3.14940613743000        3.45737848916543     
   3.70664697848658        3.90788037173062        4.06695075933889     
   4.18588243219584        4.26089455721326        1.74916673004867     
   2.56290371895545        3.12705302803006        3.55809027969248     
   3.90027773506541        4.17574054204654        4.39694753762352     
   4.57092218934271        4.70039144327164        4.78177481375159     
   1.97017204718351        2.88038422498972        3.50692454493642     
   3.98220632454997        4.35686551202458        4.65641642096873     
   4.89540223714450        5.08220669376332        5.22044845849924     
   5.30698230335912        2.21086391766265        3.22168906153881     
   3.91039053308388        4.42780103930602        4.83208319807692     
   5.15276169414207        5.40678646760930        5.60408743336255     
   5.74931112473003        5.83990491378887        2.46175011228854     
   3.57221125983382        4.31912886548931        4.87378941542720     
   5.30280125302421        5.64013895556402        5.90536021945512     
   6.11004127550469        6.25993326361380        6.35320308987437     
   2.67747836141289        3.86575527430906        4.65292115255079     
   5.22976478443781        5.67085258718662        6.01412436830821     
   6.28142902192468        6.48584849443265        6.63423561460200     
   6.72581238698203        2.81007640432523        4.03320278775230     
   4.82930492880145        5.40430034769438        5.83905834469047     
   6.17450545320002        6.43402970830574        6.63153113915343     
   6.77435105682965        6.86237119457580        2.78086423487658     
   3.96116803057924        4.71168572399849        5.24297431493324     
   5.63819663301085        5.93930612025498        6.16978221514515     
   6.34306979515200        6.46603576347755        6.53938325524227     
   2.58058609060464        3.62809168798225        4.27163393886652     
   4.71693799527701        5.04336440863733        5.28951762992091     
   5.47621017087421        5.61481167804579        5.71063678712234     
   5.76419620815711        2.22307629101660        3.05491253479173     
   3.54663603980013        3.88201630500711        4.12658190793240     
   4.31061029577621        4.44999528324944        4.55334294023751     
   4.62486002031122        4.66564028381329        1.69695760417230     
   2.25807371076587        2.58535048775066        2.80910686187259     
   2.97287061609201        3.09647782606550        3.19037698291375     
   3.26046692949301        3.31056377566533        3.34641845500132     
   1.03101996870824        1.34521226267513        1.53019336193754     
   1.65737042116266        1.75077020262972        1.82142647774068     
   1.87518041535896        1.91531684957618        1.94368612882035     
   1.96074252993927     
  0.000000000000000E+000  0.000000000000000E+000  0.000000000000000E+000
  0.000000000000000E+000  0.000000000000000E+000  0.000000000000000E+000
  0.000000000000000E+000  0.000000000000000E+000  0.000000000000000E+000
  0.000000000000000E+000  0.000000000000000E+000  0.000000000000000E+000
  0.000000000000000E+000  0.000000000000000E+000  0.000000000000000E+000
  0.000000000000000E+000  0.000000000000000E+000  0.000000000000000E+000
  0.000000000000000E+000  0.000000000000000E+000  0.000000000000000E+000
  0.000000000000000E+000  0.000000000000000E+000  0.000000000000000E+000
  0.000000000000000E+000  0.000000000000000E+000  0.000000000000000E+000
  0.000000000000000E+000  0.000000000000000E+000  0.000000000000000E+000
  0.000000000000000E+000  0.000000000000000E+000  0.000000000000000E+000
  0.000000000000000E+000  0.000000000000000E+000  0.000000000000000E+000
  0.000000000000000E+000  0.000000000000000E+000  0.000000000000000E+000
  0.000000000000000E+000  0.000000000000000E+000  0.000000000000000E+000
  0.000000000000000E+000  0.000000000000000E+000  0.000000000000000E+000
  0.000000000000000E+000  0.000000000000000E+000  0.000000000000000E+000
  0.000000000000000E+000  0.000000000000000E+000  0.000000000000000E+000
  0.000000000000000E+000  0.000000000000000E+000  0.000000000000000E+000
  0.000000000000000E+000  0.000000000000000E+000  0.000000000000000E+000
  0.000000000000000E+000  0.000000000000000E+000  0.000000000000000E+000
  0.000000000000000E+000  0.000000000000000E+000  0.000000000000000E+000
  0.000000000000000E+000  0.000000000000000E+000  0.000000000000000E+000
  0.000000000000000E+000  0.000000000000000E+000  0.000000000000000E+000
  0.000000000000000E+000  0.000000000000000E+000  0.000000000000000E+000
  0.000000000000000E+000  0.000000000000000E+000  0.000000000000000E+000
  0.000000000000000E+000  0.000000000000000E+000  0.000000000000000E+000
  0.000000000000000E+000  0.000000000000000E+000  0.000000000000000E+000
  0.000000000000000E+000  0.000000000000000E+000  0.000000000000000E+000
  0.000000000000000E+000  0.000000000000000E+000  0.000000000000000E+000
  0.000000000000000E+000  0.000000000000000E+000  0.000000000000000E+000
  0.000000000000000E+000  0.000000000000000E+000  0.000000000000000E+000
  0.000000000000000E+000  0.000000000000000E+000  0.000000000000000E+000
  0.000000000000000E+000  0.000000000000000E+000  0.000000000000000E+000
  0.000000000000000E+000  0.000000000000000E+000  0.000000000000000E+000
  0.000000000000000E+000  0.000000000000000E+000  0.000000000000000E+000
  0.000000000000000E+000  0.000000000000000E+000  0.000000000000000E+000
  0.000000000000000E+000  0.000000000000000E+000  0.000000000000000E+000
  0.000000000000000E+000  0.000000000000000E+000  0.000000000000000E+000
  0.000000000000000E+000  0.000000000000000E+000  0.000000000000000E+000