 Title = "Wing and Wake"
 VARIABLES = "X" "Y" "Z" "GAM" "skew"
 Zone I=   11 J=   26 K=1  T="Blade"
 DATAPACKING=BLOCK
 VARLOCATION=([4]=CELLCENTERED,[5]=CELLCENTERED)
 -0.266388675277701      -0.253764049569482      -0.241139423861263     
 -0.228514798153044      -0.215890172444824      -0.203265546736605     
 -0.190640921028386      -0.178016295320166      -0.165391669611947     
 -0.152767043903727      -0.140142418195508      -0.269150674436344     
 -0.256526048728125      -0.243901423019906      -0.231276797311687     
 -0.218652171603467      -0.206027545895248      -0.193402920187029     
 -0.180778294478809      -0.168153668770590      -0.155529043062371     
 -0.142904417354151      -0.277393113535603      -0.264768487827384     
 -0.252143862119165      -0.239519236410945      -0.226894610702726     
 -0.214269984994507      -0.201645359286287      -0.189020733578068     
 -0.176396107869849      -0.163771482161629      -0.151146856453410     
 -0.290986004387089      -0.278361378678870      -0.265736752970650     
 -0.253112127262431      -0.240487501554211      -0.227862875845992     
 -0.215238250137773      -0.202613624429553      -0.189988998721334     
 -0.177364373013115      -0.164739747304895      -0.309714978982072     
 -0.297090353273853      -0.284465727565634      -0.271841101857414     
 -0.259216476149195      -0.246591850440976      -0.233967224732757     
 -0.221342599024537      -0.208717973316318      -0.196093347608099     
 -0.183468721899879      -0.333284670203045      -0.320660044494826     
 -0.308035418786606      -0.295410793078387      -0.282786167370168     
 -0.270161541661949      -0.257536915953729      -0.244912290245510     
 -0.232287664537291      -0.219663038829071      -0.207038413120852     
 -0.361323369939600      -0.348698744231381      -0.336074118523162     
 -0.323449492814943      -0.310824867106723      -0.298200241398505     
 -0.285575615690285      -0.272950989982066      -0.260326364273846     
 -0.247701738565627      -0.235077112857407      -0.393388891147387     
 -0.380764265439167      -0.368139639730948      -0.355515014022729     
 -0.342890388314510      -0.330265762606290      -0.317641136898071     
 -0.305016511189852      -0.292391885481632      -0.279767259773413     
 -0.267142634065194      -0.428975541401943      -0.416350915693723     
 -0.403726289985504      -0.391101664277285      -0.378477038569066     
 -0.365852412860846      -0.353227787152626      -0.340603161444407     
 -0.327978535736188      -0.315353910027969      -0.302729284319750     
 -0.467522097970318      -0.454897472262100      -0.442272846553880     
 -0.429648220845661      -0.417023595137442      -0.404398969429222     
 -0.391774343721003      -0.379149718012784      -0.366525092304564     
 -0.353900466596345      -0.341275840888125      -0.508420658628836     
 -0.495796032920617      -0.483171407212398      -0.470546781504178     
 -0.457922155795959      -0.445297530087740      -0.432672904379520     
 -0.420048278671300      -0.407423652963081      -0.394799027254862     
 -0.382174401546643      -0.551026228644292      -0.538401602936073     
 -0.525776977227855      -0.513152351519634      -0.500527725811415     
 -0.487903100103197      -0.475278474394977      -0.462653848686758     
 -0.450029222978538      -0.437404597270319      -0.424779971562100     
 -0.594666892726213      -0.582042267017993      -0.569417641309772     
 -0.556793015601554      -0.544168389893334      -0.531543764185115     
 -0.518919138476896      -0.506294512768677      -0.493669887060458     
 -0.481045261352238      -0.468420635644019      -0.638654411532354     
 -0.626029785824133      -0.613405160115914      -0.600780534407695     
 -0.588155908699476      -0.575531282991256      -0.562906657283037     
 -0.550282031574818      -0.537657405866599      -0.525032780158379     
 -0.512408154450160      -0.682295075614272      -0.669670449906053     
 -0.657045824197835      -0.644421198489614      -0.631796572781394     
 -0.619171947073177      -0.606547321364956      -0.593922695656736     
 -0.581298069948517      -0.568673444240297      -0.556048818532080     
 -0.724900645629729      -0.712276019921509      -0.699651394213291     
 -0.687026768505072      -0.674402142796853      -0.661777517088632     
 -0.649152891380413      -0.636528265672194      -0.623903639963975     
 -0.611279014255754      -0.598654388547536      -0.765799206288247     
 -0.753174580580027      -0.740549954871807      -0.727925329163589     
 -0.715300703455369      -0.702676077747150      -0.690051452038931     
 -0.677426826330711      -0.664802200622492      -0.652177574914273     
 -0.639552949206054      -0.804345762856623      -0.791721137148403     
 -0.779096511440183      -0.766471885731964      -0.753847260023745     
 -0.741222634315527      -0.728598008607306      -0.715973382899087     
 -0.703348757190867      -0.690724131482648      -0.678099505774429     
 -0.839932413111178      -0.827307787402957      -0.814683161694739     
 -0.802058535986520      -0.789433910278301      -0.776809284570082     
 -0.764184658861861      -0.751560033153643      -0.738935407445424     
 -0.726310781737203      -0.713686156028985      -0.871997934318964     
 -0.859373308610745      -0.846748682902524      -0.834124057194307     
 -0.821499431486087      -0.808874805777866      -0.796250180069648     
 -0.783625554361429      -0.771000928653209      -0.758376302944990     
 -0.745751677236770      -0.900036634055520      -0.887412008347301     
 -0.874787382639080      -0.862162756930861      -0.849538131222643     
 -0.836913505514423      -0.824288879806204      -0.811664254097984     
 -0.799039628389765      -0.786415002681545      -0.773790376973325     
 -0.923606325276492      -0.910981699568274      -0.898357073860053     
 -0.885732448151834      -0.873107822443616      -0.860483196735397     
 -0.847858571027176      -0.835233945318957      -0.822609319610738     
 -0.809984693902518      -0.797360068194299      -0.942335299871475     
 -0.929710674163256      -0.917086048455037      -0.904461422746818     
 -0.891836797038600      -0.879212171330380      -0.866587545622161     
 -0.853962919913941      -0.841338294205721      -0.828713668497503     
 -0.816089042789282      -0.955928190722962      -0.943303565014742     
 -0.930678939306522      -0.918054313598303      -0.905429687890085     
 -0.892805062181864      -0.880180436473646      -0.867555810765425     
 -0.854931185057206      -0.842306559348987      -0.829681933640767     
 -0.964170629822220      -0.951546004114001      -0.938921378405783     
 -0.926296752697561      -0.913672126989342      -0.901047501281123     
 -0.888422875572902      -0.875798249864683      -0.863173624156466     
 -0.850548998448246      -0.837924372740027      -0.966932628980862     
 -0.954308003272643      -0.941683377564425      -0.929058751856205     
 -0.916434126147986      -0.903809500439767      -0.891184874731548     
 -0.878560249023327      -0.865935623315109      -0.853310997606888     
 -0.840686371898671     
 -7.960072707442848E-003  5.745183253261914E-003  1.945043921396685E-002
  3.315569517467175E-002  4.686095113537691E-002  6.056620709608144E-002
  7.427146305678650E-002  8.797671901749125E-002  0.101681974978196     
  0.115387230938901       0.129092486899606      -5.415851301854954E-003
  8.289404658849916E-003  2.199466061955481E-002  3.569991658025967E-002
  4.940517254096451E-002  6.311042850166940E-002  7.681568446237422E-002
  9.052094042307900E-002  0.104226196383784       0.117931452344489     
  0.131636708305194       2.176689023497981E-003  1.588194498420279E-002
  2.958720094490780E-002  4.329245690561267E-002  5.699771286631730E-002
  7.070296882702233E-002  8.440822478772751E-002  9.811348074843208E-002
  0.111818736709137       0.125523992669842       0.139229248630546     
  1.469780937212179E-002  2.840306533282685E-002  4.210832129353180E-002
  5.581357725423652E-002  6.951883321494125E-002  8.322408917564621E-002
  9.692934513635108E-002  0.110634601097056       0.124339857057761     
  0.138045113018466       0.151750368979170       3.195004419636346E-002
  4.565530015706826E-002  5.936055611777336E-002  7.306581207847825E-002
  8.677106803918301E-002  0.100476323999888       0.114181579960593     
  0.127886835921298       0.141592091882002       0.155297347842707     
  0.169002603803412       5.366131544705947E-002  6.736657140776475E-002
  8.107182736846931E-002  9.477708332917457E-002  0.108482339289879     
  0.122187595250585       0.135892851211289       0.149598107171994     
  0.163303363132699       0.177008619093404       0.190713875054109     
  7.948922340690205E-002  9.319447936760676E-002  0.106899735328312     
  0.120604991289017       0.134310247249722       0.148015503210427     
  0.161720759171131       0.175426015131836       0.189131271092540     
  0.202836527053246       0.216541783013950       0.109026446538519     
  0.122731702499224       0.136436958459929       0.150142214420634     
  0.163847470381339       0.177552726342044       0.191257982302749     
  0.204963238263453       0.218668494224158       0.232373750184863     
  0.246079006145568       0.141807165188444       0.155512421149149     
  0.169217677109854       0.182922933070559       0.196628189031264     
  0.210333444991968       0.224038700952673       0.237743956913378     
  0.251449212874083       0.265154468834788       0.278859724795493     
  0.177314407841315       0.191019663802020       0.204724919762725     
  0.218430175723430       0.232135431684135       0.245840687644839     
  0.259545943605544       0.273251199566249       0.286956455526954     
  0.300661711487658       0.314366967448363       0.214988204069498     
  0.228693460030203       0.242398715990907       0.256103971951612     
  0.269809227912317       0.283514483873022       0.297219739833726     
  0.310924995794432       0.324630251755136       0.338335507715842     
  0.352040763676546       0.254234415601239       0.267939671561943     
  0.281644927522649       0.295350183483353       0.309055439444058     
  0.322760695404763       0.336465951365468       0.350171207326173     
  0.363876463286878       0.377581719247582       0.391286975208287     
  0.294434106236132       0.308139362196837       0.321844618157542     
  0.335549874118246       0.349255130078952       0.362960386039656     
  0.376665642000362       0.390370897961066       0.404076153921771     
  0.417781409882476       0.431486665843181       0.334953302838734     
  0.348658558799439       0.362363814760143       0.376069070720849     
  0.389774326681554       0.403479582642259       0.417184838602964     
  0.430890094563667       0.444595350524374       0.458300606485078     
  0.472005862445783       0.375152993473627       0.388858249434332     
  0.402563505395038       0.416268761355741       0.429974017316447     
  0.443679273277152       0.457384529237856       0.471089785198562     
  0.484795041159266       0.498500297119970       0.512205553080677     
  0.414399205005369       0.428104460966073       0.441809716926779     
  0.455514972887483       0.469220228848188       0.482925484808893     
  0.496630740769597       0.510335996730302       0.524041252691007     
  0.537746508651711       0.551451764612417       0.452073001233551     
  0.465778257194256       0.479483513154961       0.493188769115666     
  0.506894025076371       0.520599281037076       0.534304536997781     
  0.548009792958486       0.561715048919190       0.575420304879896     
  0.589125560840600       0.487580243886422       0.501285499847127     
  0.514990755807832       0.528696011768536       0.542401267729241     
  0.556106523689947       0.569811779650651       0.583517035611356     
  0.597222291572061       0.610927547532765       0.624632803493470     
  0.520360962536347       0.534066218497051       0.547771474457757     
  0.561476730418461       0.575181986379166       0.588887242339871     
  0.602592498300575       0.616297754261281       0.630003010221986     
  0.643708266182691       0.657413522143395       0.549898185667963     
  0.563603441628669       0.577308697589373       0.591013953550080     
  0.604719209510783       0.618424465471489       0.632129721432192     
  0.645834977392899       0.659540233353603       0.673245489314309     
  0.686950745275012       0.575726093627807       0.589431349588512     
  0.603136605549215       0.616841861509920       0.630547117470625     
  0.644252373431330       0.657957629392037       0.671662885352740     
  0.685368141313445       0.699073397274150       0.712778653234854     
  0.597437364878501       0.611142620839207       0.624847876799912     
  0.638553132760617       0.652258388721321       0.665963644682028     
  0.679668900642731       0.693374156603436       0.707079412564141     
  0.720784668524847       0.734489924485552       0.614689599702745     
  0.628394855663448       0.642100111624153       0.655805367584858     
  0.669510623545564       0.683215879506268       0.696921135466974     
  0.710626391427679       0.724331647388384       0.738036903349087     
  0.751742159309793       0.627210720051367       0.640915976012071     
  0.654621231972778       0.668326487933482       0.682031743894188     
  0.695736999854893       0.709442255815597       0.723147511776303     
  0.736852767737006       0.750558023697713       0.764263279658417     
  0.634803260376721       0.648508516337424       0.662213772298129     
  0.675919028258834       0.689624284219540       0.703329540180246     
  0.717034796140950       0.730740052101654       0.744445308062360     
  0.758150564023065       0.771855819983769       0.637347481782307     
  0.651052737743014       0.664757993703717       0.678463249664424     
  0.692168505625128       0.705873761585833       0.719579017546539     
  0.733284273507242       0.746989529467947       0.760694785428651     
  0.774400041389359     
  3.960717710078315E-002  3.564645939070483E-002  3.168574168062652E-002
  2.772502397054821E-002  2.376430626046989E-002  1.980358855039158E-002
  1.584287084031326E-002  1.188215313023495E-002  7.921435420156629E-003
  3.960717710078312E-003  0.000000000000000E+000  3.960717710078315E-002
  3.564645939070483E-002  3.168574168062652E-002  2.772502397054821E-002
  2.376430626046989E-002  1.980358855039158E-002  1.584287084031326E-002
  1.188215313023495E-002  7.921435420156629E-003  3.960717710078312E-003
  0.000000000000000E+000  3.960717710078315E-002  3.564645939070483E-002
  3.168574168062652E-002  2.772502397054821E-002  2.376430626046989E-002
  1.980358855039158E-002  1.584287084031326E-002  1.188215313023495E-002
  7.921435420156629E-003  3.960717710078312E-003  0.000000000000000E+000
  3.960717710078315E-002  3.564645939070483E-002  3.168574168062652E-002
  2.772502397054821E-002  2.376430626046989E-002  1.980358855039158E-002
  1.584287084031326E-002  1.188215313023495E-002  7.921435420156629E-003
  3.960717710078312E-003  0.000000000000000E+000  3.960717710078315E-002
  3.564645939070483E-002  3.168574168062652E-002  2.772502397054821E-002
  2.376430626046989E-002  1.980358855039158E-002  1.584287084031326E-002
  1.188215313023495E-002  7.921435420156629E-003  3.960717710078312E-003
  0.000000000000000E+000  3.960717710078315E-002  3.564645939070483E-002
  3.168574168062652E-002  2.772502397054821E-002  2.376430626046989E-002
  1.980358855039158E-002  1.584287084031326E-002  1.188215313023495E-002
  7.921435420156629E-003  3.960717710078312E-003  0.000000000000000E+000
  3.960717710078315E-002  3.564645939070483E-002  3.168574168062652E-002
  2.772502397054821E-002  2.376430626046989E-002  1.980358855039158E-002
  1.584287084031326E-002  1.188215313023495E-002  7.921435420156629E-003
  3.960717710078312E-003  0.000000000000000E+000  3.960717710078315E-002
  3.564645939070483E-002  3.168574168062652E-002  2.772502397054821E-002
  2.376430626046989E-002  1.980358855039158E-002  1.584287084031326E-002
  1.188215313023495E-002  7.921435420156629E-003  3.960717710078312E-003
  0.000000000000000E+000  3.960717710078315E-002  3.564645939070483E-002
  3.168574168062652E-002  2.772502397054821E-002  2.376430626046989E-002
  1.980358855039158E-002  1.584287084031326E-002  1.188215313023495E-002
  7.921435420156629E-003  3.960717710078312E-003  0.000000000000000E+000
  3.960717710078315E-002  3.564645939070483E-002  3.168574168062652E-002
  2.772502397054821E-002  2.376430626046989E-002  1.980358855039158E-002
  1.584287084031326E-002  1.188215313023495E-002  7.921435420156629E-003
  3.960717710078312E-003  0.000000000000000E+000  3.960717710078315E-002
  3.564645939070483E-002  3.168574168062652E-002  2.772502397054821E-002
  2.376430626046989E-002  1.980358855039158E-002  1.584287084031326E-002
  1.188215313023495E-002  7.921435420156629E-003  3.960717710078312E-003
  0.000000000000000E+000  3.960717710078315E-002  3.564645939070483E-002
  3.168574168062652E-002  2.772502397054821E-002  2.376430626046989E-002
  1.980358855039158E-002  1.584287084031326E-002  1.188215313023495E-002
  7.921435420156629E-003  3.960717710078312E-003  0.000000000000000E+000
  3.960717710078315E-002  3.564645939070483E-002  3.168574168062652E-002
  2.772502397054821E-002  2.376430626046989E-002  1.980358855039158E-002
  1.584287084031326E-002  1.188215313023495E-002  7.921435420156629E-003
  3.960717710078312E-003  0.000000000000000E+000  3.960717710078315E-002
  3.564645939070483E-002  3.168574168062652E-002  2.772502397054821E-002
  2.376430626046989E-002  1.980358855039158E-002  1.584287084031326E-002
  1.188215313023495E-002  7.921435420156629E-003  3.960717710078312E-003
  0.000000000000000E+000  3.960717710078315E-002  3.564645939070483E-002
  3.168574168062652E-002  2.772502397054821E-002  2.376430626046989E-002
  1.980358855039158E-002  1.584287084031326E-002  1.188215313023495E-002
  7.921435420156629E-003  3.960717710078312E-003  0.000000000000000E+000
  3.960717710078315E-002  3.564645939070483E-002  3.168574168062652E-002
  2.772502397054821E-002  2.376430626046989E-002  1.980358855039158E-002
  1.584287084031326E-002  1.188215313023495E-002  7.921435420156629E-003
  3.960717710078312E-003  0.000000000000000E+000  3.960717710078315E-002
  3.564645939070483E-002  3.168574168062652E-002  2.772502397054821E-002
  2.376430626046989E-002  1.980358855039158E-002  1.584287084031326E-002
  1.188215313023495E-002  7.921435420156629E-003  3.960717710078312E-003
  0.000000000000000E+000  3.960717710078315E-002  3.564645939070483E-002
  3.168574168062652E-002  2.772502397054821E-002  2.376430626046989E-002
  1.980358855039158E-002  1.584287084031326E-002  1.188215313023495E-002
  7.921435420156629E-003  3.960717710078312E-003  0.000000000000000E+000
  3.960717710078315E-002  3.564645939070483E-002  3.168574168062652E-002
  2.772502397054821E-002  2.376430626046989E-002  1.980358855039158E-002
  1.584287084031326E-002  1.188215313023495E-002  7.921435420156629E-003
  3.960717710078312E-003  0.000000000000000E+000  3.960717710078315E-002
  3.564645939070483E-002  3.168574168062652E-002  2.772502397054821E-002
  2.376430626046989E-002  1.980358855039158E-002  1.584287084031326E-002
  1.188215313023495E-002  7.921435420156629E-003  3.960717710078312E-003
  0.000000000000000E+000  3.960717710078315E-002  3.564645939070483E-002
  3.168574168062652E-002  2.772502397054821E-002  2.376430626046989E-002
  1.980358855039158E-002  1.584287084031326E-002  1.188215313023495E-002
  7.921435420156629E-003  3.960717710078312E-003  0.000000000000000E+000
  3.960717710078315E-002  3.564645939070483E-002  3.168574168062652E-002
  2.772502397054821E-002  2.376430626046989E-002  1.980358855039158E-002
  1.584287084031326E-002  1.188215313023495E-002  7.921435420156629E-003
  3.960717710078312E-003  0.000000000000000E+000  3.960717710078315E-002
  3.564645939070483E-002  3.168574168062652E-002  2.772502397054821E-002
  2.376430626046989E-002  1.980358855039158E-002  1.584287084031326E-002
  1.188215313023495E-002  7.921435420156629E-003  3.960717710078312E-003
  0.000000000000000E+000  3.960717710078315E-002  3.564645939070483E-002
  3.168574168062652E-002  2.772502397054821E-002  2.376430626046989E-002
  1.980358855039158E-002  1.584287084031326E-002  1.188215313023495E-002
  7.921435420156629E-003  3.960717710078312E-003  0.000000000000000E+000
  3.960717710078315E-002  3.564645939070483E-002  3.168574168062652E-002
  2.772502397054821E-002  2.376430626046989E-002  1.980358855039158E-002
  1.584287084031326E-002  1.188215313023495E-002  7.921435420156629E-003
  3.960717710078312E-003  0.000000000000000E+000  3.960717710078315E-002
  3.564645939070483E-002  3.168574168062652E-002  2.772502397054821E-002
  2.376430626046989E-002  1.980358855039158E-002  1.584287084031326E-002
  1.188215313023495E-002  7.921435420156629E-003  3.960717710078312E-003
  0.000000000000000E+000
  0.129434922220685       0.207890200976044       0.276626462650911     
  0.339790239860144       0.398868944260326       0.454257793903478     
  0.505468968325158       0.551464898729273       0.590923552169063     
  0.621603907777222       0.214390129718524       0.349750686254656     
  0.468407732555468       0.577269123928889       0.678813217453123     
  0.773805239904605       0.861437222453047       0.940005513015233     
   1.00761290875980        1.06215713594363       0.281291629226290     
  0.472671820488964       0.643525131490485       0.800442513589471     
  0.946011227524031        1.08148017953431        1.20579713851882     
   1.31658423261936        1.41079168829401        1.48265819353045     
  0.317636709567178       0.548798920597148       0.764977442556195     
  0.967676073385600        1.15554924913247        1.32877811674006     
   1.48611455135006        1.62414941591587        1.73810279642344     
   1.81977525940139       0.323442033696592       0.563984260511243     
  0.802908295346662        1.04018064093008        1.26611470697758     
   1.47357198993380        1.65971290399372        1.81963430451055     
   1.94701580777804        2.03237661358537       0.324269810707127     
  0.544842076200216       0.763336364262497       0.990498817625153     
   1.21855345153451        1.43932822051596        1.64393690967921     
   1.82129217221201        1.95663391197372        2.03886858954474     
  0.363015215129670       0.572292158038674       0.752830244936667     
  0.925423650780725        1.09693166865720        1.26907337361386     
   1.43893252366540        1.59525952072702        1.71851983066318     
   1.80212647808937       0.458152805591052       0.695769189817901     
  0.880348331328555        1.03926187844034        1.18230759631105     
   1.31352940651399        1.43353185293905        1.54023564254346     
   1.63004339170168        1.69776253009814       0.592807047906995     
  0.885256927041807        1.10087836204211        1.27664938986763     
   1.42604307337499        1.55516031922542        1.66668698234916     
   1.76146290608219        1.83900550647773        1.89553874333180     
  0.752565742491529        1.11558714382176        1.37701698856460     
   1.58490970525860        1.75703587242509        1.90187312313254     
   2.02380070844866        2.12482901860566        2.20493728603693     
   2.26035875341762       0.930203701186636        1.37353565566125     
   1.68873664171425        1.93597659471295        2.13771683114477     
   2.30490495275982        2.44345283515019        2.55633930181894     
   2.64402462165171        2.70272064583318        1.12030347817858     
   1.64997970716049        2.02345151770187        2.31389975254577     
   2.54881788737751        2.74171692478041        2.89999435114758     
   3.02752549643416        3.12523277567761        3.18924773948337     
   1.31984363930422        1.94023652713187        2.37508395072940     
   2.71120992313616        2.98135342113445        3.20168283586480     
   3.38113574093879        3.52452502905266        3.63327843178342     
   3.70349942598370        1.52723445481835        2.24147032011080     
   2.73946850729379        3.12231646917420        3.42827159957706     
   3.67633244460857        3.87709720466602        4.03641106991675     
   4.15629201162673        4.23290550196455        1.74197315465463     
   2.55222645912688        3.11397115657335        3.54328397698129     
   3.88429568153235        4.15907366344784        4.38005947554668     
   4.55426516458076        4.68441725352018        4.76690157972081     
   1.96659861602658        2.87489938866401        3.50003094737950     
   3.97425330178448        4.34815774193369        4.64724428686054     
   4.88605328802562        5.07297012951914        5.21161661453437     
   5.29882530895903        2.20540256956340        3.21362173587572     
   3.90048546369411        4.41646212182682        4.81957297944855     
   5.13929000452388        5.39255643153276        5.58931423063866     
   5.73422665923500        5.82475989030042        2.44698469873738     
   3.55093628527402        4.29344817689470        4.84465582767076     
   5.27071247919119        5.60541219977763        5.86826263759364     
   6.07083827638695        6.21891094695945        6.31074902912529     
   2.64845175371100        3.82460858946611        4.60384692703729     
   5.17449948710843        5.61030176218193        5.94894639032276     
   6.21217780332449        6.41298807377403        6.55817486981561     
   6.64707846232834        2.76132137382736        3.96451939440026     
   4.74776715719821        5.31281222823310        5.73917159282218     
   6.06738842260743        6.32065517261707        6.51269805979296     
   6.65073673446931        6.73473484003642        2.72591054076526     
   3.88316637621216        4.61882099396487        5.13911034096180     
   5.52558212270694        5.81947097624607        6.04387473743137     
   6.21199895826338        6.33055714295805        6.40024401092285     
   2.53055842856111        3.55727586456221        4.18763581296315     
   4.62341671321519        4.94247357249609        5.18269357951971     
   5.36449827800685        5.49902696543530        5.59145942301592     
   5.64228331280869        2.18167473596819        2.99722894535382     
   3.47886317406070        3.80701448861983        4.04600980089564     
   4.22556596432958        4.36127525989216        4.46156953695239     
   4.53055167695476        4.56928286029499        1.66627215780762     
   2.21647657699952        2.53702168882617        2.75592706366880     
   2.91593543237056        3.03651667460433        3.12792075953196     
   3.19592822601296        3.24426625671709        3.27855565084108     
   1.01259213567883        1.32066996341784        1.50183697687050     
   1.62624837659314        1.71749943617809        1.78642029461009     
   1.83874108969742        1.87768114529547        1.90504767444613     
   1.92128086407119     
  0.000000000000000E+000  0.000000000000000E+000  0.000000000000000E+000
  0.000000000000000E+000  0.000000000000000E+000  0.000000000000000E+000
  0.000000000000000E+000  0.000000000000000E+000  0.000000000000000E+000
  0.000000000000000E+000  0.000000000000000E+000  0.000000000000000E+000
  0.000000000000000E+000  0.000000000000000E+000  0.000000000000000E+000
  0.000000000000000E+000  0.000000000000000E+000  0.000000000000000E+000
  0.000000000000000E+000  0.000000000000000E+000  0.000000000000000E+000
  0.000000000000000E+000  0.000000000000000E+000  0.000000000000000E+000
  0.000000000000000E+000  0.000000000000000E+000  0.000000000000000E+000
  0.000000000000000E+000  0.000000000000000E+000  0.000000000000000E+000
  0.000000000000000E+000  0.000000000000000E+000  0.000000000000000E+000
  0.000000000000000E+000  0.000000000000000E+000  0.000000000000000E+000
  0.000000000000000E+000  0.000000000000000E+000  0.000000000000000E+000
  0.000000000000000E+000  0.000000000000000E+000  0.000000000000000E+000
  0.000000000000000E+000  0.000000000000000E+000  0.000000000000000E+000
  0.000000000000000E+000  0.000000000000000E+000  0.000000000000000E+000
  0.000000000000000E+000  0.000000000000000E+000  0.000000000000000E+000
  0.000000000000000E+000  0.000000000000000E+000  0.000000000000000E+000
  0.000000000000000E+000  0.000000000000000E+000  0.000000000000000E+000
  0.000000000000000E+000  0.000000000000000E+000  0.000000000000000E+000
  0.000000000000000E+000  0.000000000000000E+000  0.000000000000000E+000
  0.000000000000000E+000  0.000000000000000E+000  0.000000000000000E+000
  0.000000000000000E+000  0.000000000000000E+000  0.000000000000000E+000
  0.000000000000000E+000  0.000000000000000E+000  0.000000000000000E+000
  0.000000000000000E+000  0.000000000000000E+000  0.000000000000000E+000
  0.000000000000000E+000  0.000000000000000E+000  0.000000000000000E+000
  0.000000000000000E+000  0.000000000000000E+000  0.000000000000000E+000
  0.000000000000000E+000  0.000000000000000E+000  0.000000000000000E+000
  0.000000000000000E+000  0.000000000000000E+000  0.000000000000000E+000
  0.000000000000000E+000  0.000000000000000E+000  0.000000000000000E+000
  0.000000000000000E+000  0.000000000000000E+000  0.000000000000000E+000
  0.000000000000000E+000  0.000000000000000E+000  0.000000000000000E+000
  0.000000000000000E+000  0.000000000000000E+000  0.000000000000000E+000
  0.000000000000000E+000  0.000000000000000E+000  0.000000000000000E+000
  0.000000000000000E+000  0.000000000000000E+000  0.000000000000000E+000
  0.000000000000000E+000  0.000000000000000E+000  0.000000000000000E+000
  0.000000000000000E+000  0.000000000000000E+000  0.000000000000000E+000
  0.000000000000000E+000  0.000000000000000E+000  0.000000000000000E+000
  0.000000000000000E+000  0.000000000000000E+000  0.000000000000000E+000