 Title = "Wing and Wake"
 VARIABLES = "X" "Y" "Z" "GAM" "skew"
 Zone I=   11 J=   26 K=1  T="Blade"
 DATAPACKING=BLOCK
 VARLOCATION=([4]=CELLCENTERED,[5]=CELLCENTERED)
 -9.458403710566508E-002 -0.102415102489286      -0.110246167872906     
 -0.118077233256526      -0.125908298640147      -0.133739364023767     
 -0.141570429407388      -0.149401494791008      -0.157232560174628     
 -0.165063625558249      -0.172894690941870      -9.799153497150848E-002
 -0.105822600355129      -0.113653665738749      -0.121484731122370     
 -0.129315796505990      -0.137146861889611      -0.144977927273231     
 -0.152808992656851      -0.160640058040472      -0.168471123424092     
 -0.176302188807713      -0.108160290292153      -0.115991355675773     
 -0.123822421059394      -0.131653486443014      -0.139484551826634     
 -0.147315617210255      -0.155146682593875      -0.162977747977496     
 -0.170808813361116      -0.178639878744736      -0.186470944128357     
 -0.124929935721672      -0.132761001105293      -0.140592066488913     
 -0.148423131872534      -0.156254197256154      -0.164085262639774     
 -0.171916328023395      -0.179747393407015      -0.187578458790635     
 -0.195409524174256      -0.203240589557876      -0.148036003933942     
 -0.155867069317562      -0.163698134701183      -0.171529200084803     
 -0.179360265468424      -0.187191330852044      -0.195022396235665     
 -0.202853461619285      -0.210684527002905      -0.218515592386526     
 -0.226346657770146      -0.177114098430359      -0.184945163813980     
 -0.192776229197599      -0.200607294581220      -0.208438359964841     
 -0.216269425348462      -0.224100490732081      -0.231931556115702     
 -0.239762621499323      -0.247593686882943      -0.255424752266563     
 -0.211705640290302      -0.219536705673923      -0.227367771057544     
 -0.235198836441164      -0.243029901824784      -0.250860967208405     
 -0.258692032592025      -0.266523097975645      -0.274354163359266     
 -0.282185228742886      -0.290016294126506      -0.251265100234657     
 -0.259096165618277      -0.266927231001898      -0.274758296385518     
 -0.282589361769138      -0.290420427152759      -0.298251492536379     
 -0.306082557919999      -0.313913623303620      -0.321744688687240     
 -0.329575754070861      -0.295168601948422      -0.302999667332044     
 -0.310830732715663      -0.318661798099284      -0.326492863482904     
 -0.334323928866525      -0.342154994250144      -0.349986059633765     
 -0.357817125017386      -0.365648190401006      -0.373479255784627     
 -0.342723760982893      -0.350554826366513      -0.358385891750134     
 -0.366216957133754      -0.374048022517375      -0.381879087900995     
 -0.389710153284615      -0.397541218668236      -0.405372284051856     
 -0.413203349435476      -0.421034414819097      -0.393180604072021     
 -0.401011669455641      -0.408842734839261      -0.416673800222881     
 -0.424504865606502      -0.432335930990123      -0.440166996373742     
 -0.447998061757364      -0.455829127140983      -0.463660192524604     
 -0.471491257908224      -0.445743396658831      -0.453574462042451     
 -0.461405527426073      -0.469236592809691      -0.477067658193313     
 -0.484898723576934      -0.492729788960554      -0.500560854344174     
 -0.508391919727795      -0.516222985111414      -0.524054050495035     
 -0.499583192104742      -0.507414257488362      -0.515245322871982     
 -0.523076388255602      -0.530907453639223      -0.538738519022843     
 -0.546569584406464      -0.554400649790085      -0.562231715173705     
 -0.570062780557325      -0.577893845940946      -0.553850904673235     
 -0.561681970056855      -0.569513035440474      -0.577344100824095     
 -0.585175166207716      -0.593006231591337      -0.600837296974958     
 -0.608668362358576      -0.616499427742199      -0.624330493125818     
 -0.632161558509439      -0.607690700119145      -0.615521765502765     
 -0.623352830886387      -0.631183896270005      -0.639014961653626     
 -0.646846027037247      -0.654677092420866      -0.662508157804488     
 -0.670339223188107      -0.678170288571727      -0.686001353955349     
 -0.660253492705956      -0.668084558089575      -0.675915623473197     
 -0.683746688856817      -0.691577754240437      -0.699408819624058     
 -0.707239885007677      -0.715070950391298      -0.722902015774918     
 -0.730733081158538      -0.738564146542160      -0.710710335795083     
 -0.718541401178703      -0.726372466562323      -0.734203531945944     
 -0.742034597329564      -0.749865662713185      -0.757696728096806     
 -0.765527793480426      -0.773358858864046      -0.781189924247667     
 -0.789020989631287      -0.758265494829554      -0.766096560213174     
 -0.773927625596794      -0.781758690980414      -0.789589756364034     
 -0.797420821747656      -0.805251887131276      -0.813082952514896     
 -0.820914017898516      -0.828745083282136      -0.836576148665757     
 -0.802168996543319      -0.810000061926938      -0.817831127310560     
 -0.825662192694179      -0.833493258077800      -0.841324323461421     
 -0.849155388845040      -0.856986454228662      -0.864817519612283     
 -0.872648584995903      -0.880479650379522      -0.841728456487672     
 -0.849559521871294      -0.857390587254912      -0.865221652638535     
 -0.873052718022154      -0.880883783405775      -0.888714848789394     
 -0.896545914173017      -0.904376979556636      -0.912208044940258     
 -0.920039110323876      -0.876319998347618      -0.884151063731238     
 -0.891982129114856      -0.899813194498477      -0.907644259882098     
 -0.915475325265718      -0.923306390649340      -0.931137456032960     
 -0.938968521416580      -0.946799586800199      -0.954630652183819     
 -0.905398092844033      -0.913229158227654      -0.921060223611274     
 -0.928891288994894      -0.936722354378514      -0.944553419762136     
 -0.952384485145755      -0.960215550529376      -0.968046615912997     
 -0.975877681296618      -0.983708746680239      -0.928504161056304     
 -0.936335226439923      -0.944166291823543      -0.951997357207164     
 -0.959828422590785      -0.967659487974405      -0.975490553358026     
 -0.983321618741648      -0.991152684125267      -0.998983749508887     
  -1.00681481489251      -0.945273806485822      -0.953104871869441     
 -0.960935937253063      -0.968767002636684      -0.976598068020304     
 -0.984429133403925      -0.992260198787545       -1.00009126417117     
  -1.00792232955478       -1.01575339493841       -1.02358446032203     
 -0.955442561806466      -0.963273627190086      -0.971104692573707     
 -0.978935757957326      -0.986766823340948      -0.994597888724569     
  -1.00242895410819       -1.01026001949181       -1.01809108487543     
  -1.02592215025905       -1.03375321564267      -0.958850059672308     
 -0.966681125055930      -0.974512190439550      -0.982343255823172     
 -0.990174321206792      -0.998005386590413       -1.00583645197403     
  -1.01366751735765       -1.02149858274127       -1.02932964812489     
  -1.03716071350852     
 -0.249158883041545      -0.232250611983317      -0.215342340925088     
 -0.198434069866860      -0.181525798808631      -0.164617527750403     
 -0.147709256692174      -0.130800985633945      -0.113892714575717     
 -9.698444351748808E-002 -8.007617245925971E-002 -0.250737065606166     
 -0.233828794547937      -0.216920523489708      -0.200012252431480     
 -0.183103981373251      -0.166195710315023      -0.149287439256794     
 -0.132379168198565      -0.115470897140337      -9.856262608210843E-002
 -8.165435502387955E-002 -0.255446724418221      -0.238538453359992     
 -0.221630182301763      -0.204721911243535      -0.187813640185306     
 -0.170905369127078      -0.153997098068849      -0.137088827010621     
 -0.120180555952392      -0.103272284894163      -8.636401383593491E-002
 -0.263213585344832      -0.246305314286603      -0.229397043228374     
 -0.212488772170146      -0.195580501111917      -0.178672230053688     
 -0.161763958995460      -0.144855687937231      -0.127947416879003     
 -0.111039145820774      -9.413087476254554E-002 -0.273915160349486     
 -0.257006889291258      -0.240098618233029      -0.223190347174801     
 -0.206282076116572      -0.189373805058344      -0.172465534000115     
 -0.155557262941887      -0.138648991883658      -0.121740720825430     
 -0.104832449767201      -0.287382679201552      -0.270474408143324     
 -0.253566137085095      -0.236657866026867      -0.219749594968639     
 -0.202841323910410      -0.185933052852181      -0.169024781793953     
 -0.152116510735724      -0.135208239677495      -0.118299968619267     
 -0.303403751083625      -0.286495480025397      -0.269587208967169     
 -0.252678937908940      -0.235770666850712      -0.218862395792483     
 -0.201954124734255      -0.185045853676026      -0.168137582617798     
 -0.151229311559569      -0.134321040501340      -0.321725714121602     
 -0.304817443063373      -0.287909172005145      -0.271000900946917     
 -0.254092629888688      -0.237184358830459      -0.220276087772231     
 -0.203367816714003      -0.186459545655774      -0.169551274597545     
 -0.152643003539317      -0.342059620013362      -0.325151348955134     
 -0.308243077896905      -0.291334806838677      -0.274426535780449     
 -0.257518264722220      -0.240609993663990      -0.223701722605762     
 -0.206793451547534      -0.189885180489305      -0.172976909431077     
 -0.364084790916106      -0.347176519857878      -0.330268248799650     
 -0.313359977741421      -0.296451706683192      -0.279543435624964     
 -0.262635164566735      -0.245726893508507      -0.228818622450278     
 -0.211910351392049      -0.195002080333821      -0.387453876727499     
 -0.370545605669271      -0.353637334611042      -0.336729063552814     
 -0.319820792494585      -0.302912521436357      -0.286004250378128     
 -0.269095979319899      -0.252187708261671      -0.235279437203442     
 -0.218371166145213      -0.411798333004279      -0.394890061946051     
 -0.377981790887823      -0.361073519829593      -0.344165248771365     
 -0.327256977713137      -0.310348706654908      -0.293440435596679     
 -0.276532164538450      -0.259623893480222      -0.242715622421994     
 -0.436734233128290      -0.419825962070060      -0.402917691011831     
 -0.386009419953604      -0.369101148895374      -0.352192877837146     
 -0.335284606778917      -0.318376335720689      -0.301468064662460     
 -0.284559793604232      -0.267651522546003      -0.461868323058589     
 -0.444960052000359      -0.428051780942131      -0.411143509883902     
 -0.394235238825674      -0.377326967767445      -0.360418696709216     
 -0.343510425650988      -0.326602154592760      -0.309693883534531     
 -0.292785612476302      -0.486804223182597      -0.469895952124369     
 -0.452987681066141      -0.436079410007912      -0.419171138949682     
 -0.402262867891455      -0.385354596833226      -0.368446325774996     
 -0.351538054716768      -0.334629783658540      -0.317721512600312     
 -0.511148679459378      -0.494240408401148      -0.477332137342921     
 -0.460423866284693      -0.443515595226464      -0.426607324168235     
 -0.409699053110006      -0.392790782051778      -0.375882510993549     
 -0.358974239935320      -0.342065968877092      -0.534517765270770     
 -0.517609494212542      -0.500701223154313      -0.483792952096085     
 -0.466884681037856      -0.449976409979628      -0.433068138921399     
 -0.416159867863171      -0.399251596804941      -0.382343325746713     
 -0.365435054688485      -0.556542936173515      -0.539634665115285     
 -0.522726394057056      -0.505818122998829      -0.488909851940600     
 -0.472001580882372      -0.455093309824143      -0.438185038765914     
 -0.421276767707686      -0.404368496649457      -0.387460225591229     
 -0.576876842065274      -0.559968571007045      -0.543060299948816     
 -0.526152028890589      -0.509243757832360      -0.492335486774132     
 -0.475427215715903      -0.458518944657675      -0.441610673599446     
 -0.424702402541217      -0.407794131482989      -0.595198805103251     
 -0.578290534045023      -0.561382262986793      -0.544473991928565     
 -0.527565720870337      -0.510657449812107      -0.493749178753880     
 -0.476840907695651      -0.459932636637421      -0.443024365579193     
 -0.426116094520965      -0.611219876985324      -0.594311605927096     
 -0.577403334868866      -0.560495063810638      -0.543586792752410     
 -0.526678521694181      -0.509770250635952      -0.492861979577724     
 -0.475953708519496      -0.459045437461266      -0.442137166403038     
 -0.624687395837391      -0.607779124779163      -0.590870853720932     
 -0.573962582662704      -0.557054311604477      -0.540146040546248     
 -0.523237769488018      -0.506329498429790      -0.489421227371562     
 -0.472512956313332      -0.455604685255103      -0.635388970842045     
 -0.618480699783817      -0.601572428725588      -0.584664157667360     
 -0.567755886609131      -0.550847615550903      -0.533939344492674     
 -0.517031073434446      -0.500122802376217      -0.483214531317990     
 -0.466306260259759      -0.643155831768657      -0.626247560710428     
 -0.609339289652198      -0.592431018593970      -0.575522747535742     
 -0.558614476477512      -0.541706205419285      -0.524797934361054     
 -0.507889663302827      -0.490981392244597      -0.474073121186369     
 -0.647865490580711      -0.630957219522483      -0.614048948464256     
 -0.597140677406025      -0.580232406347796      -0.563324135289567     
 -0.546415864231338      -0.529507593173110      -0.512599322114883     
 -0.495691051056654      -0.478782779998425      -0.649443673145331     
 -0.632535402087101      -0.615627131028875      -0.598718859970645     
 -0.581810588912417      -0.564902317854189      -0.547994046795960     
 -0.531085775737730      -0.514177504679503      -0.497269233621273     
 -0.480360962563045     
  3.960717710078315E-002  3.564645939070483E-002  3.168574168062652E-002
  2.772502397054821E-002  2.376430626046989E-002  1.980358855039158E-002
  1.584287084031326E-002  1.188215313023495E-002  7.921435420156629E-003
  3.960717710078312E-003  0.000000000000000E+000  3.960717710078315E-002
  3.564645939070483E-002  3.168574168062652E-002  2.772502397054821E-002
  2.376430626046989E-002  1.980358855039158E-002  1.584287084031326E-002
  1.188215313023495E-002  7.921435420156629E-003  3.960717710078312E-003
  0.000000000000000E+000  3.960717710078315E-002  3.564645939070483E-002
  3.168574168062652E-002  2.772502397054821E-002  2.376430626046989E-002
  1.980358855039158E-002  1.584287084031326E-002  1.188215313023495E-002
  7.921435420156629E-003  3.960717710078312E-003  0.000000000000000E+000
  3.960717710078315E-002  3.564645939070483E-002  3.168574168062652E-002
  2.772502397054821E-002  2.376430626046989E-002  1.980358855039158E-002
  1.584287084031326E-002  1.188215313023495E-002  7.921435420156629E-003
  3.960717710078312E-003  0.000000000000000E+000  3.960717710078315E-002
  3.564645939070483E-002  3.168574168062652E-002  2.772502397054821E-002
  2.376430626046989E-002  1.980358855039158E-002  1.584287084031326E-002
  1.188215313023495E-002  7.921435420156629E-003  3.960717710078312E-003
  0.000000000000000E+000  3.960717710078315E-002  3.564645939070483E-002
  3.168574168062652E-002  2.772502397054821E-002  2.376430626046989E-002
  1.980358855039158E-002  1.584287084031326E-002  1.188215313023495E-002
  7.921435420156629E-003  3.960717710078312E-003  0.000000000000000E+000
  3.960717710078315E-002  3.564645939070483E-002  3.168574168062652E-002
  2.772502397054821E-002  2.376430626046989E-002  1.980358855039158E-002
  1.584287084031326E-002  1.188215313023495E-002  7.921435420156629E-003
  3.960717710078312E-003  0.000000000000000E+000  3.960717710078315E-002
  3.564645939070483E-002  3.168574168062652E-002  2.772502397054821E-002
  2.376430626046989E-002  1.980358855039158E-002  1.584287084031326E-002
  1.188215313023495E-002  7.921435420156629E-003  3.960717710078312E-003
  0.000000000000000E+000  3.960717710078315E-002  3.564645939070483E-002
  3.168574168062652E-002  2.772502397054821E-002  2.376430626046989E-002
  1.980358855039158E-002  1.584287084031326E-002  1.188215313023495E-002
  7.921435420156629E-003  3.960717710078312E-003  0.000000000000000E+000
  3.960717710078315E-002  3.564645939070483E-002  3.168574168062652E-002
  2.772502397054821E-002  2.376430626046989E-002  1.980358855039158E-002
  1.584287084031326E-002  1.188215313023495E-002  7.921435420156629E-003
  3.960717710078312E-003  0.000000000000000E+000  3.960717710078315E-002
  3.564645939070483E-002  3.168574168062652E-002  2.772502397054821E-002
  2.376430626046989E-002  1.980358855039158E-002  1.584287084031326E-002
  1.188215313023495E-002  7.921435420156629E-003  3.960717710078312E-003
  0.000000000000000E+000  3.960717710078315E-002  3.564645939070483E-002
  3.168574168062652E-002  2.772502397054821E-002  2.376430626046989E-002
  1.980358855039158E-002  1.584287084031326E-002  1.188215313023495E-002
  7.921435420156629E-003  3.960717710078312E-003  0.000000000000000E+000
  3.960717710078315E-002  3.564645939070483E-002  3.168574168062652E-002
  2.772502397054821E-002  2.376430626046989E-002  1.980358855039158E-002
  1.584287084031326E-002  1.188215313023495E-002  7.921435420156629E-003
  3.960717710078312E-003  0.000000000000000E+000  3.960717710078315E-002
  3.564645939070483E-002  3.168574168062652E-002  2.772502397054821E-002
  2.376430626046989E-002  1.980358855039158E-002  1.584287084031326E-002
  1.188215313023495E-002  7.921435420156629E-003  3.960717710078312E-003
  0.000000000000000E+000  3.960717710078315E-002  3.564645939070483E-002
  3.168574168062652E-002  2.772502397054821E-002  2.376430626046989E-002
  1.980358855039158E-002  1.584287084031326E-002  1.188215313023495E-002
  7.921435420156629E-003  3.960717710078312E-003  0.000000000000000E+000
  3.960717710078315E-002  3.564645939070483E-002  3.168574168062652E-002
  2.772502397054821E-002  2.376430626046989E-002  1.980358855039158E-002
  1.584287084031326E-002  1.188215313023495E-002  7.921435420156629E-003
  3.960717710078312E-003  0.000000000000000E+000  3.960717710078315E-002
  3.564645939070483E-002  3.168574168062652E-002  2.772502397054821E-002
  2.376430626046989E-002  1.980358855039158E-002  1.584287084031326E-002
  1.188215313023495E-002  7.921435420156629E-003  3.960717710078312E-003
  0.000000000000000E+000  3.960717710078315E-002  3.564645939070483E-002
  3.168574168062652E-002  2.772502397054821E-002  2.376430626046989E-002
  1.980358855039158E-002  1.584287084031326E-002  1.188215313023495E-002
  7.921435420156629E-003  3.960717710078312E-003  0.000000000000000E+000
  3.960717710078315E-002  3.564645939070483E-002  3.168574168062652E-002
  2.772502397054821E-002  2.376430626046989E-002  1.980358855039158E-002
  1.584287084031326E-002  1.188215313023495E-002  7.921435420156629E-003
  3.960717710078312E-003  0.000000000000000E+000  3.960717710078315E-002
  3.564645939070483E-002  3.168574168062652E-002  2.772502397054821E-002
  2.376430626046989E-002  1.980358855039158E-002  1.584287084031326E-002
  1.188215313023495E-002  7.921435420156629E-003  3.960717710078312E-003
  0.000000000000000E+000  3.960717710078315E-002  3.564645939070483E-002
  3.168574168062652E-002  2.772502397054821E-002  2.376430626046989E-002
  1.980358855039158E-002  1.584287084031326E-002  1.188215313023495E-002
  7.921435420156629E-003  3.960717710078312E-003  0.000000000000000E+000
  3.960717710078315E-002  3.564645939070483E-002  3.168574168062652E-002
  2.772502397054821E-002  2.376430626046989E-002  1.980358855039158E-002
  1.584287084031326E-002  1.188215313023495E-002  7.921435420156629E-003
  3.960717710078312E-003  0.000000000000000E+000  3.960717710078315E-002
  3.564645939070483E-002  3.168574168062652E-002  2.772502397054821E-002
  2.376430626046989E-002  1.980358855039158E-002  1.584287084031326E-002
  1.188215313023495E-002  7.921435420156629E-003  3.960717710078312E-003
  0.000000000000000E+000  3.960717710078315E-002  3.564645939070483E-002
  3.168574168062652E-002  2.772502397054821E-002  2.376430626046989E-002
  1.980358855039158E-002  1.584287084031326E-002  1.188215313023495E-002
  7.921435420156629E-003  3.960717710078312E-003  0.000000000000000E+000
  3.960717710078315E-002  3.564645939070483E-002  3.168574168062652E-002
  2.772502397054821E-002  2.376430626046989E-002  1.980358855039158E-002
  1.584287084031326E-002  1.188215313023495E-002  7.921435420156629E-003
  3.960717710078312E-003  0.000000000000000E+000  3.960717710078315E-002
  3.564645939070483E-002  3.168574168062652E-002  2.772502397054821E-002
  2.376430626046989E-002  1.980358855039158E-002  1.584287084031326E-002
  1.188215313023495E-002  7.921435420156629E-003  3.960717710078312E-003
  0.000000000000000E+000
  5.030384263389160E-002  0.103375172481366       0.159796648408717     
  0.214057977857906       0.263192695901842       0.306706580525607     
  0.345440091487205       0.380449133066254       0.412703774493639     
  0.441785047862020       8.419861427783153E-002  0.172252001988239     
  0.266806015893160       0.359019222312578       0.443213461011333     
  0.518013573395601       0.584619987283440       0.644839539376120     
  0.700553301780677       0.752277718502465       0.115243545372534     
  0.230213719475099       0.355926349974872       0.482844366478990     
  0.601656088575886       0.708745135348352       0.804403679678793     
  0.890768275596975       0.970106627835157        1.04096525018671     
  0.146070464571072       0.275416820320200       0.416156172421270     
  0.563777192947067       0.709044024257533       0.844639654055428     
  0.967336794349171        1.07748732074288        1.17660165404087     
   1.26167291594827       0.187660730168244       0.325471273606335     
  0.464658828838685       0.610832639259853       0.761831346464456     
  0.911077836747835        1.05165655486268        1.17969792288646     
   1.29341984475864        1.38736832153404       0.248671534518517     
  0.401274587806457       0.537251971376006       0.669501096752522     
  0.802627782397123       0.935877200802611        1.06570783693804     
   1.18786461599666        1.29717619765200        1.38440438556264     
  0.333985438285323       0.516356137757547       0.663666310150637     
  0.794209928901379       0.914292700795530        1.02615414217734     
   1.12959605737610        1.22279993074805        1.30265654059750     
   1.36380680429630       0.449501988310059       0.679004788412332     
  0.853453389028591       0.999454782554524        1.12634220809403     
   1.23813102211229        1.33645841672960        1.42159320071616     
   1.49259926040928        1.54553863263515       0.592025296882339     
  0.883425774780223        1.09744703521734        1.27090041335516     
   1.41718313966592        1.54252805746017        1.65001373649689     
   1.74089547249569        1.81482388263793        1.86812838620740     
  0.755065160939766        1.11930631576282        1.38155317303868     
   1.58994303112905        1.76228529126148        1.90714633999193     
   2.02905861132001        2.13021870730716        2.21077433112216     
   2.26705071930626       0.933028245611098        1.37771881661563     
   1.69396095845117        1.94214742389738        2.14483716974719     
   2.31302983650266        2.45267721692042        2.56680961384648     
   2.65597548278626        2.71643935393503        1.12229153409240     
   1.65301837931781        2.02739912300502        2.31875447890405     
   2.55462522898766        2.74854370952080        2.90792917941927     
   3.03670194792580        3.13585813795274        3.20158810657881     
   1.32061234321394        1.94146263379377        2.37674956096767     
   2.71335896981502        2.98406288280990        3.20506333230728     
   3.38532949122349        3.52971511562740        3.63970354220124     
   3.71142929115566        1.52633375136476        2.24023082639729     
   2.73808469298151        3.12093866937071        3.42704999716290     
   3.67543460150757        3.87671642659315        4.03676687487461     
   4.15763867779732        4.23551417145030        1.73944914935833     
   2.54863999907417        3.10975298766062        3.53869888175210     
   3.87955894066376        4.15439018328687        4.37564376142932     
   4.55035681485407        4.68129083619036        4.76484414044753     
   1.96333202862194        2.87026717081409        3.49457094101449     
   3.96827659121946        4.34190375867737        4.64093003457883     
   4.87989653806954        5.06720624935039        5.20651170550487     
   5.29465740387442        2.20367028221461        3.21115218996149     
   3.89758357954982        4.41333633667606        4.81641110711727     
   5.13627705520788        5.38988039440510        5.58717281019285     
   5.73283481639624        5.82432799892281        2.45018165204310     
   3.55546890108041        4.29889246843843        4.85089373982518     
   5.27776371646681        5.61335677500781        5.87720186415197     
   6.08088316653125        6.23017981967085        6.32331788383939     
   2.65871667847311        3.83904482832919        4.62096929009924     
   5.19373880740184        5.63141261408485        5.97178702881396     
   6.23665179235690        6.43903964301427        6.58578095461286     
   6.67617362774841        2.78092521728382        3.99201837259122     
   4.78030495233566        5.34924645239890        5.77893258772544     
   6.11007849503040        6.36596033966868        6.56037648213560     
   6.70059526938323        6.78652452320450        2.74933906835467     
   3.91632118263255        4.65821845173793        5.18314107192992     
   5.57334251393541        5.87037376546994        6.09749877626778     
   6.26802496522057        6.38872589768038        6.46027087512343     
   2.55252504345911        3.58828658291198        4.22435829116136     
   4.66427588229753        4.98656755759381        5.22944204647279     
   5.41349480200062        5.54996569277325        5.64408842132415     
   5.69633930411428        2.20013606080831        3.02287753065116     
   3.50894545813082        3.84028090069879        4.08175415566321     
   4.26333571179822        4.40075384812689        4.50251816868030     
   4.57277423647248        4.61258297924908        1.68006485789832     
   2.23511510191368        2.55863664052725        2.77969288266207     
   2.94138337944122        3.06334433451612        3.15591591983395     
   3.22493219058860        3.27415805741094        3.30926415312155     
   1.02089822809080        1.33169546925130        1.51455202402649     
   1.64019237051314        1.73240822179196        1.80212232329635     
   1.85511541827652        1.89463662405633        1.92251125615456     
   1.93918079467435     
  0.000000000000000E+000  0.000000000000000E+000  0.000000000000000E+000
  0.000000000000000E+000  0.000000000000000E+000  0.000000000000000E+000
  0.000000000000000E+000  0.000000000000000E+000  0.000000000000000E+000
  0.000000000000000E+000  0.000000000000000E+000  0.000000000000000E+000
  0.000000000000000E+000  0.000000000000000E+000  0.000000000000000E+000
  0.000000000000000E+000  0.000000000000000E+000  0.000000000000000E+000
  0.000000000000000E+000  0.000000000000000E+000  0.000000000000000E+000
  0.000000000000000E+000  0.000000000000000E+000  0.000000000000000E+000
  0.000000000000000E+000  0.000000000000000E+000  0.000000000000000E+000
  0.000000000000000E+000  0.000000000000000E+000  0.000000000000000E+000
  0.000000000000000E+000  0.000000000000000E+000  0.000000000000000E+000
  0.000000000000000E+000  0.000000000000000E+000  0.000000000000000E+000
  0.000000000000000E+000  0.000000000000000E+000  0.000000000000000E+000
  0.000000000000000E+000  0.000000000000000E+000  0.000000000000000E+000
  0.000000000000000E+000  0.000000000000000E+000  0.000000000000000E+000
  0.000000000000000E+000  0.000000000000000E+000  0.000000000000000E+000
  0.000000000000000E+000  0.000000000000000E+000  0.000000000000000E+000
  0.000000000000000E+000  0.000000000000000E+000  0.000000000000000E+000
  0.000000000000000E+000  0.000000000000000E+000  0.000000000000000E+000
  0.000000000000000E+000  0.000000000000000E+000  0.000000000000000E+000
  0.000000000000000E+000  0.000000000000000E+000  0.000000000000000E+000
  0.000000000000000E+000  0.000000000000000E+000  0.000000000000000E+000
  0.000000000000000E+000  0.000000000000000E+000  0.000000000000000E+000
  0.000000000000000E+000  0.000000000000000E+000  0.000000000000000E+000
  0.000000000000000E+000  0.000000000000000E+000  0.000000000000000E+000
  0.000000000000000E+000  0.000000000000000E+000  0.000000000000000E+000
  0.000000000000000E+000  0.000000000000000E+000  0.000000000000000E+000
  0.000000000000000E+000  0.000000000000000E+000  0.000000000000000E+000
  0.000000000000000E+000  0.000000000000000E+000  0.000000000000000E+000
  0.000000000000000E+000  0.000000000000000E+000  0.000000000000000E+000
  0.000000000000000E+000  0.000000000000000E+000  0.000000000000000E+000
  0.000000000000000E+000  0.000000000000000E+000  0.000000000000000E+000
  0.000000000000000E+000  0.000000000000000E+000  0.000000000000000E+000
  0.000000000000000E+000  0.000000000000000E+000  0.000000000000000E+000
  0.000000000000000E+000  0.000000000000000E+000  0.000000000000000E+000
  0.000000000000000E+000  0.000000000000000E+000  0.000000000000000E+000
  0.000000000000000E+000  0.000000000000000E+000  0.000000000000000E+000
  0.000000000000000E+000  0.000000000000000E+000  0.000000000000000E+000
  0.000000000000000E+000  0.000000000000000E+000  0.000000000000000E+000