 Title = "Wing and Wake"
 VARIABLES = "X" "Y" "Z" "GAM" "skew"
 Zone I=   11 J=   26 K=1  T="Blade"
 DATAPACKING=BLOCK
 VARLOCATION=([4]=CELLCENTERED,[5]=CELLCENTERED)
 -0.265149462721449      -0.250844294782766      -0.236539126844083     
 -0.222233958905400      -0.207928790966717      -0.193623623028034     
 -0.179318455089351      -0.165013287150668      -0.150708119211985     
 -0.136402951273302      -0.122097783334619      -0.267555828896549     
 -0.253250660957867      -0.238945493019183      -0.224640325080501     
 -0.210335157141817      -0.196029989203134      -0.181724821264451     
 -0.167419653325768      -0.153114485387085      -0.138809317448402     
 -0.124504149509719      -0.274736977589775      -0.260431809651092     
 -0.246126641712408      -0.231821473773725      -0.217516305835042     
 -0.203211137896359      -0.188905969957676      -0.174600802018993     
 -0.160295634080310      -0.145990466141627      -0.131685298202944     
 -0.286579657796423      -0.272274489857740      -0.257969321919057     
 -0.243664153980374      -0.229358986041691      -0.215053818103007     
 -0.200748650164325      -0.186443482225642      -0.172138314286958     
 -0.157833146348275      -0.143527978409592      -0.302897103375160     
 -0.288591935436478      -0.274286767497794      -0.259981599559111     
 -0.245676431620428      -0.231371263681746      -0.217066095743062     
 -0.202760927804379      -0.188455759865696      -0.174150591927013     
 -0.159845423988330      -0.323431978461642      -0.309126810522959     
 -0.294821642584276      -0.280516474645593      -0.266211306706910     
 -0.251906138768227      -0.237600970829544      -0.223295802890861     
 -0.208990634952178      -0.194685467013494      -0.180380299074811     
 -0.347860435808813      -0.333555267870130      -0.319250099931447     
 -0.304944931992764      -0.290639764054081      -0.276334596115398     
 -0.262029428176715      -0.247724260238032      -0.233419092299349     
 -0.219113924360666      -0.204808756421982      -0.375797224051456     
 -0.361492056112773      -0.347186888174090      -0.332881720235408     
 -0.318576552296724      -0.304271384358041      -0.289966216419358     
 -0.275661048480675      -0.261355880541992      -0.247050712603309     
 -0.232745544664626      -0.406801763350357      -0.392496595411674     
 -0.378191427472991      -0.363886259534308      -0.349581091595626     
 -0.335275923656942      -0.320970755718258      -0.306665587779575     
 -0.292360419840893      -0.278055251902210      -0.263750083963527     
 -0.440385093599557      -0.426079925660874      -0.411774757722191     
 -0.397469589783508      -0.383164421844825      -0.368859253906142     
 -0.354554085967458      -0.340248918028776      -0.325943750090092     
 -0.311638582151409      -0.297333414212726      -0.476017585619318     
 -0.461712417680635      -0.447407249741951      -0.433102081803268     
 -0.418796913864585      -0.404491745925903      -0.390186577987219     
 -0.375881410048536      -0.361576242109853      -0.347271074171170     
 -0.332965906232487      -0.513137293724667      -0.498832125785984     
 -0.484526957847302      -0.470221789908618      -0.455916621969935     
 -0.441611454031253      -0.427306286092570      -0.413001118153886     
 -0.398695950215203      -0.384390782276520      -0.370085614337837     
 -0.551158817944548      -0.536853650005865      -0.522548482067180     
 -0.508243314128499      -0.493938146189815      -0.479632978251132     
 -0.465327810312449      -0.451022642373766      -0.436717474435083     
 -0.422412306496400      -0.408107138557717      -0.589482536129054     
 -0.575177368190369      -0.560872200251686      -0.546567032313003     
 -0.532261864374320      -0.517956696435637      -0.503651528496954     
 -0.489346360558271      -0.475041192619589      -0.460736024680905     
 -0.446430856742222      -0.627504060348932      -0.613198892410249     
 -0.598893724471567      -0.584588556532882      -0.570283388594199     
 -0.555978220655518      -0.541673052716834      -0.527367884778150     
 -0.513062716839467      -0.498757548900783      -0.484452380962102     
 -0.664623768454282      -0.650318600515599      -0.636013432576916     
 -0.621708264638234      -0.607403096699551      -0.593097928760867     
 -0.578792760822184      -0.564487592883501      -0.550182424944818     
 -0.535877257006134      -0.521572089067452      -0.700256260474043     
 -0.685951092535360      -0.671645924596676      -0.657340756657994     
 -0.643035588719310      -0.628730420780628      -0.614425252841945     
 -0.600120084903262      -0.585814916964578      -0.571509749025896     
 -0.557204581087213      -0.733839590723243      -0.719534422784559     
 -0.705229254845876      -0.690924086907193      -0.676618918968510     
 -0.662313751029828      -0.648008583091144      -0.633703415152461     
 -0.619398247213778      -0.605093079275095      -0.590787911336412     
 -0.764844130022142      -0.750538962083459      -0.736233794144776     
 -0.721928626206094      -0.707623458267411      -0.693318290328728     
 -0.679013122390044      -0.664707954451362      -0.650402786512679     
 -0.636097618573995      -0.621792450635312      -0.792780918264786     
 -0.778475750326104      -0.764170582387419      -0.749865414448737     
 -0.735560246510055      -0.721255078571370      -0.706949910632689     
 -0.692644742694005      -0.678339574755321      -0.664034406816639     
 -0.649729238877955      -0.817209375611958      -0.802904207673275     
 -0.788599039734590      -0.774293871795908      -0.759988703857226     
 -0.745683535918542      -0.731378367979859      -0.717073200041176     
 -0.702768032102493      -0.688462864163809      -0.674157696225126     
 -0.837744250698439      -0.823439082759757      -0.809133914821071     
 -0.794828746882389      -0.780523578943707      -0.766218411005024     
 -0.751913243066340      -0.737608075127658      -0.723302907188975     
 -0.708997739250291      -0.694692571311608      -0.854061696277176     
 -0.839756528338494      -0.825451360399810      -0.811146192461127     
 -0.796841024522445      -0.782535856583762      -0.768230688645079     
 -0.753925520706396      -0.739620352767712      -0.725315184829031     
 -0.711010016890345      -0.865904376483825      -0.851599208545142     
 -0.837294040606458      -0.822988872667776      -0.808683704729093     
 -0.794378536790409      -0.780073368851727      -0.765768200913042     
 -0.751463032974360      -0.737157865035676      -0.722852697096993     
 -0.873085525177049      -0.858780357238367      -0.844475189299685     
 -0.830170021360999      -0.815864853422317      -0.801559685483633     
 -0.787254517544950      -0.772949349606268      -0.758644181667586     
 -0.744339013728902      -0.730033845790219      -0.875491891352149     
 -0.861186723413465      -0.846881555474785      -0.832576387536101     
 -0.818271219597418      -0.803966051658736      -0.789660883720052     
 -0.775355715781368      -0.761050547842686      -0.746745379904001     
 -0.732440211965320     
  2.687101583943425E-002  3.881159310634828E-002  5.075217037326221E-002
  6.269274764017616E-002  7.463332490709042E-002  8.657390217400404E-002
  9.851447944091821E-002  0.110455056707832       0.122395633974746     
  0.134336211241660       0.146276788508574       2.975391433649088E-002
  4.169449160340494E-002  5.363506887031881E-002  6.557564613723281E-002
  7.751622340414666E-002  8.945680067106074E-002  0.101397377937975     
  0.113337955204888       0.125278532471803       0.137219109738717     
  0.149159687005631       3.835714479620139E-002  5.029772206311518E-002
  6.223829933002936E-002  7.417887659694336E-002  8.611945386385705E-002
  9.806003113077126E-002  0.110000608397685       0.121941185664599     
  0.133881762931513       0.145822340198427       0.157762917465341     
  5.254502913489591E-002  6.448560640181011E-002  7.642618366872418E-002
  8.836676093563792E-002  0.100307338202552       0.112247915469466     
  0.124188492736380       0.136129070003294       0.148069647270208     
  0.160010224537122       0.171950801804035       7.209381594112135E-002
  8.403439320803527E-002  9.597497047494953E-002  0.107915547741863     
  0.119856125008777       0.131796702275692       0.143737279542606     
  0.155677856809519       0.167618434076433       0.179559011343347     
  0.191499588610261       9.669520916906503E-002  0.108635786435979     
  0.120576363702893       0.132516940969807       0.144457518236721     
  0.156398095503636       0.168338672770549       0.180279250037463     
  0.192219827304377       0.204160404571291       0.216100981838205     
  0.125961230151362       0.137901807418276       0.149842384685190     
  0.161782961952104       0.173723539219018       0.185664116485932     
  0.197604693752846       0.209545271019759       0.221485848286673     
  0.233426425553587       0.245367002820501       0.159430336254448     
  0.171370913521362       0.183311490788276       0.195252068055190     
  0.207192645322104       0.219133222589018       0.231073799855932     
  0.243014377122845       0.254954954389759       0.266895531656673     
  0.278836108923588       0.196574699681602       0.208515276948517     
  0.220455854215430       0.232396431482344       0.244337008749258     
  0.256277586016172       0.268218163283086       0.280158740550000     
  0.292099317816915       0.304039895083828       0.315980472350742     
  0.236808531632612       0.248749108899525       0.260689686166440     
  0.272630263433354       0.284570840700268       0.296511417967181     
  0.308451995234095       0.320392572501010       0.332333149767923     
  0.344273727034837       0.356214304301751       0.279497320543083     
  0.291437897809997       0.303378475076910       0.315319052343824     
  0.327259629610738       0.339200206877653       0.351140784144565     
  0.363081361411481       0.375021938678394       0.386962515945308     
  0.398903093212222       0.323967838710850       0.335908415977763     
  0.347848993244679       0.359789570511592       0.371730147778506     
  0.383670725045420       0.395611302312334       0.407551879579248     
  0.419492456846162       0.431433034113075       0.443373611379989     
  0.369518759499009       0.381459336765923       0.393399914032837     
  0.405340491299751       0.417281068566665       0.429221645833578     
  0.441162223100494       0.453102800367407       0.465043377634321     
  0.476983954901235       0.488924532168149       0.415431717675929     
  0.427372294942843       0.439312872209756       0.451253449476670     
  0.463194026743585       0.475134604010499       0.487075181277414     
  0.499015758544326       0.510956335811242       0.522896913078155     
  0.534837490345069       0.460982638464088       0.472923215731001     
  0.484863792997917       0.496804370264829       0.508744947531743     
  0.520685524798658       0.532626102065571       0.544566679332486     
  0.556507256599398       0.568447833866312       0.580388411133228     
  0.505453156631855       0.517393733898769       0.529334311165684     
  0.541274888432597       0.553215465699511       0.565156042966426     
  0.577096620233338       0.589037197500253       0.600977774767167     
  0.612918352034080       0.624858929300995       0.548141945542326     
  0.560082522809240       0.572023100076154       0.583963677343068     
  0.595904254609982       0.607844831876896       0.619785409143810     
  0.631725986410724       0.643666563677638       0.655607140944553     
  0.667547718211466       0.588375777493336       0.600316354760249     
  0.612256932027163       0.624197509294077       0.636138086560991     
  0.648078663827906       0.660019241094819       0.671959818361733     
  0.683900395628647       0.695840972895561       0.707781550162474     
  0.625520140920490       0.637460718187403       0.649401295454318     
  0.661341872721231       0.673282449988145       0.685223027255060     
  0.697163604521973       0.709104181788887       0.721044759055802     
  0.732985336322716       0.744925913589628       0.658989247023575     
  0.670929824290490       0.682870401557403       0.694810978824319     
  0.706751556091231       0.718692133358145       0.730632710625058     
  0.742573287891974       0.754513865158888       0.766454442425802     
  0.778395019692714       0.688255268005873       0.700195845272787     
  0.712136422539699       0.724076999806614       0.736017577073528     
  0.747958154340442       0.759898731607357       0.771839308874270     
  0.783779886141184       0.795720463408097       0.807661040675011     
  0.712856661233815       0.724797238500729       0.736737815767644     
  0.748678393034558       0.760618970301470       0.772559547568387     
  0.784500124835299       0.796440702102214       0.808381279369128     
  0.820321856636043       0.832262433902957       0.732405448040042     
  0.744346025306955       0.756286602573869       0.768227179840783     
  0.780167757107698       0.792108334374611       0.804048911641525     
  0.815989488908441       0.827930066175354       0.839870643442267     
  0.851811220709181       0.746593332378736       0.758533909645648     
  0.770474486912563       0.782415064179478       0.794355641446392     
  0.806296218713307       0.818236795980221       0.830177373247134     
  0.842117950514046       0.854058527780963       0.865999105047875     
  0.755196562838446       0.767137140105359       0.779077717372273     
  0.791018294639187       0.802958871906102       0.814899449173017     
  0.826840026439930       0.838780603706844       0.850721180973759     
  0.862661758240672       0.874602335507585       0.758079461335502     
  0.770020038602417       0.781960615869330       0.793901193136245     
  0.805841770403159       0.817782347670074       0.829722924936987     
  0.841663502203900       0.853604079470815       0.865544656737728     
  0.877485234004645     
  3.960717710078315E-002  3.564645939070483E-002  3.168574168062652E-002
  2.772502397054821E-002  2.376430626046989E-002  1.980358855039158E-002
  1.584287084031326E-002  1.188215313023495E-002  7.921435420156629E-003
  3.960717710078312E-003  0.000000000000000E+000  3.960717710078315E-002
  3.564645939070483E-002  3.168574168062652E-002  2.772502397054821E-002
  2.376430626046989E-002  1.980358855039158E-002  1.584287084031326E-002
  1.188215313023495E-002  7.921435420156629E-003  3.960717710078312E-003
  0.000000000000000E+000  3.960717710078315E-002  3.564645939070483E-002
  3.168574168062652E-002  2.772502397054821E-002  2.376430626046989E-002
  1.980358855039158E-002  1.584287084031326E-002  1.188215313023495E-002
  7.921435420156629E-003  3.960717710078312E-003  0.000000000000000E+000
  3.960717710078315E-002  3.564645939070483E-002  3.168574168062652E-002
  2.772502397054821E-002  2.376430626046989E-002  1.980358855039158E-002
  1.584287084031326E-002  1.188215313023495E-002  7.921435420156629E-003
  3.960717710078312E-003  0.000000000000000E+000  3.960717710078315E-002
  3.564645939070483E-002  3.168574168062652E-002  2.772502397054821E-002
  2.376430626046989E-002  1.980358855039158E-002  1.584287084031326E-002
  1.188215313023495E-002  7.921435420156629E-003  3.960717710078312E-003
  0.000000000000000E+000  3.960717710078315E-002  3.564645939070483E-002
  3.168574168062652E-002  2.772502397054821E-002  2.376430626046989E-002
  1.980358855039158E-002  1.584287084031326E-002  1.188215313023495E-002
  7.921435420156629E-003  3.960717710078312E-003  0.000000000000000E+000
  3.960717710078315E-002  3.564645939070483E-002  3.168574168062652E-002
  2.772502397054821E-002  2.376430626046989E-002  1.980358855039158E-002
  1.584287084031326E-002  1.188215313023495E-002  7.921435420156629E-003
  3.960717710078312E-003  0.000000000000000E+000  3.960717710078315E-002
  3.564645939070483E-002  3.168574168062652E-002  2.772502397054821E-002
  2.376430626046989E-002  1.980358855039158E-002  1.584287084031326E-002
  1.188215313023495E-002  7.921435420156629E-003  3.960717710078312E-003
  0.000000000000000E+000  3.960717710078315E-002  3.564645939070483E-002
  3.168574168062652E-002  2.772502397054821E-002  2.376430626046989E-002
  1.980358855039158E-002  1.584287084031326E-002  1.188215313023495E-002
  7.921435420156629E-003  3.960717710078312E-003  0.000000000000000E+000
  3.960717710078315E-002  3.564645939070483E-002  3.168574168062652E-002
  2.772502397054821E-002  2.376430626046989E-002  1.980358855039158E-002
  1.584287084031326E-002  1.188215313023495E-002  7.921435420156629E-003
  3.960717710078312E-003  0.000000000000000E+000  3.960717710078315E-002
  3.564645939070483E-002  3.168574168062652E-002  2.772502397054821E-002
  2.376430626046989E-002  1.980358855039158E-002  1.584287084031326E-002
  1.188215313023495E-002  7.921435420156629E-003  3.960717710078312E-003
  0.000000000000000E+000  3.960717710078315E-002  3.564645939070483E-002
  3.168574168062652E-002  2.772502397054821E-002  2.376430626046989E-002
  1.980358855039158E-002  1.584287084031326E-002  1.188215313023495E-002
  7.921435420156629E-003  3.960717710078312E-003  0.000000000000000E+000
  3.960717710078315E-002  3.564645939070483E-002  3.168574168062652E-002
  2.772502397054821E-002  2.376430626046989E-002  1.980358855039158E-002
  1.584287084031326E-002  1.188215313023495E-002  7.921435420156629E-003
  3.960717710078312E-003  0.000000000000000E+000  3.960717710078315E-002
  3.564645939070483E-002  3.168574168062652E-002  2.772502397054821E-002
  2.376430626046989E-002  1.980358855039158E-002  1.584287084031326E-002
  1.188215313023495E-002  7.921435420156629E-003  3.960717710078312E-003
  0.000000000000000E+000  3.960717710078315E-002  3.564645939070483E-002
  3.168574168062652E-002  2.772502397054821E-002  2.376430626046989E-002
  1.980358855039158E-002  1.584287084031326E-002  1.188215313023495E-002
  7.921435420156629E-003  3.960717710078312E-003  0.000000000000000E+000
  3.960717710078315E-002  3.564645939070483E-002  3.168574168062652E-002
  2.772502397054821E-002  2.376430626046989E-002  1.980358855039158E-002
  1.584287084031326E-002  1.188215313023495E-002  7.921435420156629E-003
  3.960717710078312E-003  0.000000000000000E+000  3.960717710078315E-002
  3.564645939070483E-002  3.168574168062652E-002  2.772502397054821E-002
  2.376430626046989E-002  1.980358855039158E-002  1.584287084031326E-002
  1.188215313023495E-002  7.921435420156629E-003  3.960717710078312E-003
  0.000000000000000E+000  3.960717710078315E-002  3.564645939070483E-002
  3.168574168062652E-002  2.772502397054821E-002  2.376430626046989E-002
  1.980358855039158E-002  1.584287084031326E-002  1.188215313023495E-002
  7.921435420156629E-003  3.960717710078312E-003  0.000000000000000E+000
  3.960717710078315E-002  3.564645939070483E-002  3.168574168062652E-002
  2.772502397054821E-002  2.376430626046989E-002  1.980358855039158E-002
  1.584287084031326E-002  1.188215313023495E-002  7.921435420156629E-003
  3.960717710078312E-003  0.000000000000000E+000  3.960717710078315E-002
  3.564645939070483E-002  3.168574168062652E-002  2.772502397054821E-002
  2.376430626046989E-002  1.980358855039158E-002  1.584287084031326E-002
  1.188215313023495E-002  7.921435420156629E-003  3.960717710078312E-003
  0.000000000000000E+000  3.960717710078315E-002  3.564645939070483E-002
  3.168574168062652E-002  2.772502397054821E-002  2.376430626046989E-002
  1.980358855039158E-002  1.584287084031326E-002  1.188215313023495E-002
  7.921435420156629E-003  3.960717710078312E-003  0.000000000000000E+000
  3.960717710078315E-002  3.564645939070483E-002  3.168574168062652E-002
  2.772502397054821E-002  2.376430626046989E-002  1.980358855039158E-002
  1.584287084031326E-002  1.188215313023495E-002  7.921435420156629E-003
  3.960717710078312E-003  0.000000000000000E+000  3.960717710078315E-002
  3.564645939070483E-002  3.168574168062652E-002  2.772502397054821E-002
  2.376430626046989E-002  1.980358855039158E-002  1.584287084031326E-002
  1.188215313023495E-002  7.921435420156629E-003  3.960717710078312E-003
  0.000000000000000E+000  3.960717710078315E-002  3.564645939070483E-002
  3.168574168062652E-002  2.772502397054821E-002  2.376430626046989E-002
  1.980358855039158E-002  1.584287084031326E-002  1.188215313023495E-002
  7.921435420156629E-003  3.960717710078312E-003  0.000000000000000E+000
  3.960717710078315E-002  3.564645939070483E-002  3.168574168062652E-002
  2.772502397054821E-002  2.376430626046989E-002  1.980358855039158E-002
  1.584287084031326E-002  1.188215313023495E-002  7.921435420156629E-003
  3.960717710078312E-003  0.000000000000000E+000  3.960717710078315E-002
  3.564645939070483E-002  3.168574168062652E-002  2.772502397054821E-002
  2.376430626046989E-002  1.980358855039158E-002  1.584287084031326E-002
  1.188215313023495E-002  7.921435420156629E-003  3.960717710078312E-003
  0.000000000000000E+000
  0.104853161798581       0.182672882876114       0.250072087122423     
  0.299480429757042       0.333914089044456       0.358330942548532     
  0.375587275849158       0.387411940032950       0.394456477555683     
  0.397377176020843       0.170441720478805       0.300708949764796     
  0.415178482187882       0.501120307341169       0.562252463157449     
  0.605646410573433       0.635929466838666       0.656155283282362     
  0.667698221383721       0.673230404855283       0.214336574438229     
  0.385306147105005       0.541398818001112       0.666583709248261     
  0.761062974452350       0.828625575498995       0.874702643169979     
  0.903485998210549       0.916929360274554       0.918741329220182     
  0.233265765895910       0.417339520317446       0.592237619271883     
  0.751859990057536       0.882963067564596       0.978963536162476     
   1.04411515618853        1.08138948121072        1.09321370439228     
   1.08358625292374       0.240665144666911       0.411910984771056     
  0.577534933911341       0.742734415522324       0.894105329315751     
   1.01547186208728        1.10220361279428        1.14976628876462     
   1.15990898571355        1.13966298638358       0.269907108337190     
  0.430241589077508       0.570521636500124       0.704064786664128     
  0.829097070561385       0.943151061673594        1.03511419030208     
   1.09058031219051        1.10999262063308        1.10048090400914     
  0.337808221505629       0.514917813277117       0.650396557713146     
  0.765013987842999       0.867293147633539       0.958406659577045     
   1.03405488019254        1.08900729614628        1.12348368119483     
   1.13817004726066       0.438522235273911       0.656833556540593     
  0.817608056900848       0.948121067057300        1.05845686683594     
   1.15267052070234        1.23177587293719        1.29521987551942     
   1.34237608758497        1.37133248809534       0.573524667347205     
  0.852566539534374        1.05476444345259        1.21636688335094     
   1.35073023566014        1.46397233083816        1.55889718054266     
   1.63655590567943        1.69657661022973        1.73593519391791     
  0.735053246427567        1.08822543656737        1.34133696107897     
   1.54150072132634        1.70618668279821        1.84373793809615     
   1.95840824883029        2.05205514920912        2.12463627095130     
   2.17278896184715       0.915590326753824        1.35158152086364     
   1.66127063401571        1.90395961124818        2.10178820566364     
   2.26550789965048        2.40088606226399        2.51079265956315     
   2.59563724152070        2.65176305098014        1.10870814691921     
   1.63298764134299        2.00273668186660        2.29036713390326     
   2.52307396506873        2.71419357182867        2.87101333932456     
   2.99735738045679        3.09416872706616        3.15770306025417     
   1.31033997547579        1.92644758282723        2.35843313409864     
   2.69246845549971        2.96104890350617        3.18022867368214     
   3.35888436179456        3.50181956084863        3.61050883128792     
   3.68115387699911        1.51846643069760        2.22879232356659     
   2.72420569620444        3.10519007207672        3.40978630088107     
   3.65690620143526        3.85711360999431        4.01625378990499     
   4.13638829756897        4.21375439928741        1.73333510715178     
   2.53976769884688        3.09900926329901        3.52653562037019     
   3.86625647431503        4.14014964120114        4.36062714933950     
   4.53470751134133        4.66515924002903        4.74842420056974     
   1.95882095820995        2.86370705870765        3.48660912576418     
   3.95924371780340        4.33200472224861        4.63030663422593     
   4.86866050860798        5.05545711382227        5.19435272548690     
   5.28222319590136        2.20111257217220        3.20737639243133     
   3.89293569971191        4.40799408967522        4.81048671248396     
   5.12984619120382        5.38299647019159        5.57987806385273     
   5.72516795561847        5.81633816041656        2.44979554640304     
   3.55481318457160        4.29799354386051        4.84976945070687     
   5.27642662827667        5.61181086300596        5.87544054776234     
   6.07889010482593        6.22792636763583        6.32076371671046     
   2.66010521132342        3.84094190703361        4.62315230474788     
   5.19611649234198        5.63393440141936        5.97440756868428     
   6.23932329786551        6.44171015802836        6.58838761375938     
   6.67862788992050        2.78351864024406        3.99571028033131     
   4.78472566132604        5.35423786482065        5.78440780082934     
   6.11596829462697        6.37220088597941        6.56690705886211     
   6.70735254468169        6.79342537149622        2.75180986393942     
   3.91992521296180        4.66261090145939        5.18815042701153     
   5.57886039967702        5.87631880302112        6.10380471600215     
   6.27463769002842        6.39560323072840        6.46738229252306     
   2.55444397327981        3.59111082807291        4.22782076009363     
   4.66824029362299        4.99094563624595        5.23416745810222     
   5.41851511303765        5.55524085893073        5.64959350473954     
   5.70207037957341        2.20154915989840        3.02494829699940     
   3.51148129525396        3.84318545427839        4.08496490823178     
   4.26680565596828        4.40444605958492        4.50640493864207     
   4.57684083140282        4.61683497786347        1.68103738570200     
   2.23651632324531        2.56034384425775        2.78164528057684     
   2.94354081934483        3.06567628363773        3.15839830062276     
   3.22754705754953        3.27689756491374        3.31214058631025     
   1.02146582647642        1.33250294750599        1.51553279244850     
   1.64131287352072        1.73364596312306        1.80346004634677     
   1.85653941325379        1.89613652287382        1.92408211872792     
   1.94082625819465     
  0.000000000000000E+000  0.000000000000000E+000  0.000000000000000E+000
  0.000000000000000E+000  0.000000000000000E+000  0.000000000000000E+000
  0.000000000000000E+000  0.000000000000000E+000  0.000000000000000E+000
  0.000000000000000E+000  0.000000000000000E+000  0.000000000000000E+000
  0.000000000000000E+000  0.000000000000000E+000  0.000000000000000E+000
  0.000000000000000E+000  0.000000000000000E+000  0.000000000000000E+000
  0.000000000000000E+000  0.000000000000000E+000  0.000000000000000E+000
  0.000000000000000E+000  0.000000000000000E+000  0.000000000000000E+000
  0.000000000000000E+000  0.000000000000000E+000  0.000000000000000E+000
  0.000000000000000E+000  0.000000000000000E+000  0.000000000000000E+000
  0.000000000000000E+000  0.000000000000000E+000  0.000000000000000E+000
  0.000000000000000E+000  0.000000000000000E+000  0.000000000000000E+000
  0.000000000000000E+000  0.000000000000000E+000  0.000000000000000E+000
  0.000000000000000E+000  0.000000000000000E+000  0.000000000000000E+000
  0.000000000000000E+000  0.000000000000000E+000  0.000000000000000E+000
  0.000000000000000E+000  0.000000000000000E+000  0.000000000000000E+000
  0.000000000000000E+000  0.000000000000000E+000  0.000000000000000E+000
  0.000000000000000E+000  0.000000000000000E+000  0.000000000000000E+000
  0.000000000000000E+000  0.000000000000000E+000  0.000000000000000E+000
  0.000000000000000E+000  0.000000000000000E+000  0.000000000000000E+000
  0.000000000000000E+000  0.000000000000000E+000  0.000000000000000E+000
  0.000000000000000E+000  0.000000000000000E+000  0.000000000000000E+000
  0.000000000000000E+000  0.000000000000000E+000  0.000000000000000E+000
  0.000000000000000E+000  0.000000000000000E+000  0.000000000000000E+000
  0.000000000000000E+000  0.000000000000000E+000  0.000000000000000E+000
  0.000000000000000E+000  0.000000000000000E+000  0.000000000000000E+000
  0.000000000000000E+000  0.000000000000000E+000  0.000000000000000E+000
  0.000000000000000E+000  0.000000000000000E+000  0.000000000000000E+000
  0.000000000000000E+000  0.000000000000000E+000  0.000000000000000E+000
  0.000000000000000E+000  0.000000000000000E+000  0.000000000000000E+000
  0.000000000000000E+000  0.000000000000000E+000  0.000000000000000E+000
  0.000000000000000E+000  0.000000000000000E+000  0.000000000000000E+000
  0.000000000000000E+000  0.000000000000000E+000  0.000000000000000E+000
  0.000000000000000E+000  0.000000000000000E+000  0.000000000000000E+000
  0.000000000000000E+000  0.000000000000000E+000  0.000000000000000E+000
  0.000000000000000E+000  0.000000000000000E+000  0.000000000000000E+000
  0.000000000000000E+000  0.000000000000000E+000  0.000000000000000E+000
  0.000000000000000E+000  0.000000000000000E+000  0.000000000000000E+000
  0.000000000000000E+000  0.000000000000000E+000  0.000000000000000E+000