 Title = "Wing and Wake"
 VARIABLES = "X" "Y" "Z" "GAM" "skew"
 Zone I=   11 J=   26 K=1  T="Blade"
 DATAPACKING=BLOCK
 VARLOCATION=([4]=CELLCENTERED,[5]=CELLCENTERED)
  0.243059135568286       0.236641192323837       0.230223249079387     
  0.223805305834938       0.217387362590489       0.210969419346039     
  0.204551476101589       0.198133532857140       0.191715589612690     
  0.185297646368240       0.178879703123791       0.246584589145354     
  0.240166645900905       0.233748702656455       0.227330759412006     
  0.220912816167556       0.214494872923106       0.208076929678656     
  0.201658986434207       0.195241043189758       0.188823099945308     
  0.182405156700858       0.257105351367642       0.250687408123192     
  0.244269464878742       0.237851521634293       0.231433578389843     
  0.225015635145394       0.218597691900944       0.212179748656495     
  0.205761805412045       0.199343862167595       0.192925918923146     
  0.274455503530106       0.268037560285656       0.261619617041207     
  0.255201673796758       0.248783730552308       0.242365787307858     
  0.235947844063409       0.229529900818959       0.223111957574509     
  0.216694014330060       0.210276071085610       0.298361423368665     
  0.291943480124216       0.285525536879766       0.279107593635317     
  0.272689650390867       0.266271707146418       0.259853763901969     
  0.253435820657519       0.247017877413069       0.240599934168620     
  0.234181990924170       0.328446100246762       0.322028157002314     
  0.315610213757863       0.309192270513414       0.302774327268965     
  0.296356384024515       0.289938440780065       0.283520497535616     
  0.277102554291166       0.270684611046716       0.264266667802267     
  0.364235080838314       0.357817137593865       0.351399194349416     
  0.344981251104966       0.338563307860516       0.332145364616068     
  0.325727421371617       0.319309478127168       0.312891534882718     
  0.306473591638268       0.300055648393818       0.405163951540092     
  0.398746008295642       0.392328065051193       0.385910121806744     
  0.379492178562294       0.373074235317844       0.366656292073395     
  0.360238348828945       0.353820405584495       0.347402462340046     
  0.340984519095597       0.450587239611405       0.444169296366957     
  0.437751353122506       0.431333409878057       0.424915466633608     
  0.418497523389158       0.412079580144707       0.405661636900258     
  0.399243693655809       0.392825750411360       0.386407807166910     
  0.499788592664813       0.493370649420364       0.486952706175915     
  0.480534762931465       0.474116819687015       0.467698876442566     
  0.461280933198116       0.454862989953667       0.448445046709217     
  0.442027103464767       0.435609160220317       0.551992075971201     
  0.545574132726751       0.539156189482301       0.532738246237852     
  0.526320302993402       0.519902359748953       0.513484416504502     
  0.507066473260053       0.500648530015603       0.494230586771154     
  0.487812643526704       0.606374409413974       0.599956466169525     
  0.593538522925076       0.587120579680624       0.580702636436175     
  0.574284693191727       0.567866749947277       0.561448806702827     
  0.555030863458378       0.548612920213928       0.542194976969478     
  0.662077951108313       0.655660007863863       0.649242064619412     
  0.642824121374964       0.636406178130514       0.629988234886064     
  0.623570291641615       0.617152348397165       0.610734405152716     
  0.604316461908266       0.597898518663816       0.718224222926013     
  0.711806279681561       0.705388336437111       0.698970393192662     
  0.692552449948213       0.686134506703763       0.679716563459314     
  0.673298620214863       0.666880676970416       0.660462733725965     
  0.654044790481515       0.773927764620348       0.767509821375899     
  0.761091878131450       0.754673934886999       0.748255991642550     
  0.741838048398102       0.735420105153651       0.729002161909201     
  0.722584218664751       0.716166275420301       0.709748332175854     
  0.828310098063123       0.821892154818673       0.815474211574224     
  0.809056268329774       0.802638325085325       0.796220381840875     
  0.789802438596425       0.783384495351976       0.776966552107526     
  0.770548608863075       0.764130665618628       0.880513581369510     
  0.874095638125060       0.867677694880610       0.861259751636161     
  0.854841808391711       0.848423865147261       0.842005921902812     
  0.835587978658363       0.829170035413913       0.822752092169464     
  0.816334148925015       0.929714934422918       0.923296991178467     
  0.916879047934017       0.910461104689569       0.904043161445119     
  0.897625218200671       0.891207274956220       0.884789331711770     
  0.878371388467320       0.871953445222870       0.865535501978421     
  0.975138222494230       0.968720279249780       0.962302336005331     
  0.955884392760882       0.949466449516432       0.943048506271983     
  0.936630563027532       0.930212619783084       0.923794676538635     
  0.917376733294185       0.910958790049734        1.01606709319601     
   1.00964914995156        1.00323120670711       0.996813263462661     
  0.990395320218210       0.983977376973759       0.977559433729310     
  0.971141490484862       0.964723547240411       0.958305603995962     
  0.951887660751512        1.05185607378756        1.04543813054311     
   1.03902018729866        1.03260224405421        1.02618430080976     
   1.01976635756531        1.01334841432086        1.00693047107641     
   1.00051252783196       0.994094584587513       0.987676641343063     
   1.08194075066566        1.07552280742121        1.06910486417676     
   1.06268692093231        1.05626897768786        1.04985103444341     
   1.04343309119896        1.03701514795451        1.03059720471006     
   1.02417926146561        1.01776131822116        1.10584667050422     
   1.09942872725977        1.09301078401532        1.08659284077087     
   1.08017489752642        1.07375695428197        1.06733901103752     
   1.06092106779307        1.05450312454862        1.04808518130417     
   1.04166723805972        1.12319682266668        1.11677887942223     
   1.11036093617778        1.10394299293333        1.09752504968888     
   1.09110710644443        1.08468916319998        1.07827121995553     
   1.07185327671108        1.06543533346663        1.05901739022218     
   1.13371758488897        1.12729964164452        1.12088169840007     
   1.11446375515562        1.10804581191117        1.10162786866672     
   1.09520992542227        1.08879198217782        1.08237403893337     
   1.07595609568892        1.06953815244447        1.13724303846603     
   1.13082509522159        1.12440715197714        1.11798920873269     
   1.11157126548824        1.10515332224379        1.09873537899934     
   1.09231743575489        1.08589949251044        1.07948154926599     
   1.07306360602154     
  0.109309403486221       9.181582695847598E-002  7.432225043073031E-002
  5.682867390298468E-002  3.933509737523886E-002  2.184152084749339E-002
  4.347944319747681E-003 -1.314563220799780E-002 -3.063920873574318E-002
 -4.813278526348905E-002 -6.562636179123467E-002  0.108016005253294     
  9.052242872554875E-002  7.302885219780295E-002  5.553527567005774E-002
  3.804169914231195E-002  2.054812261456634E-002  3.054546086820726E-003
 -1.443903044092468E-002 -3.193260696867048E-002 -4.942618349641605E-002
 -6.691976002416185E-002  0.104156208217285       8.666263168953973E-002
  6.916905516179379E-002  5.167547863404819E-002  3.418190210630272E-002
  1.668832557855708E-002 -8.052509491888006E-004 -1.829882747693394E-002
 -3.579240400467936E-002 -5.328598053242525E-002 -7.077955706017063E-002
  9.779088368318271E-002  8.029730715543670E-002  6.280373062769100E-002
  4.531015409994585E-002  2.781657757220022E-002  1.032300104445444E-002
 -7.170575483290915E-003 -2.466415201103653E-002 -4.215772853878230E-002
 -5.965130506652812E-002 -7.714488159427300E-002  8.902041662135021E-002
  7.152684009360484E-002  5.403326356585876E-002  3.653968703811329E-002
  1.904611051036773E-002  1.552533982622036E-003 -1.594104254512370E-002
 -3.343461907286897E-002 -5.092819560061470E-002 -6.842177212836001E-002
 -8.591534865610573E-002  7.798312253657576E-002  6.048954600883021E-002
  4.299596948108475E-002  2.550239295333886E-002  8.008816425593574E-003
 -9.484760102152514E-003 -2.697833662989774E-002 -4.447191315764327E-002
 -6.196548968538908E-002 -7.945906621313464E-002 -9.695264274088042E-002
  6.485306614993633E-002  4.735948962219100E-002  2.986591309444555E-002
  1.237233656669994E-002 -5.121239961045713E-003 -2.261481648879160E-002
 -4.010839301653684E-002 -5.760196954428209E-002 -7.509554607202769E-002
 -9.258912259977327E-002 -0.110082699127519       4.983731629416497E-002
  3.234373976641938E-002  1.485016323867356E-002 -2.643413289071556E-003
 -2.013698981681728E-002 -3.763056634456280E-002 -5.512414287230849E-002
 -7.261771940005372E-002 -9.011129592779948E-002 -0.107604872455545     
 -0.125098448983291       3.317268031446153E-002  1.567910378671498E-002
 -1.814472741030299E-003 -1.930804926877548E-002 -3.680162579652101E-002
 -5.429520232426661E-002 -7.178877885201229E-002 -8.928235537975783E-002
 -0.106775931907504      -0.124269508435249      -0.141763084962994     
  1.512196947519553E-002 -2.371607052549610E-003 -1.986518358029563E-002
 -3.735876010804120E-002 -5.485233663578674E-002 -7.234591316353195E-002
 -8.983948969127768E-002 -0.107333066219024      -0.124826642746769     
 -0.142320219274514      -0.159813795802260      -4.030145730724360E-003
 -2.152372225847005E-002 -3.901729878621520E-002 -5.651087531396058E-002
 -7.400445184170648E-002 -9.149802836945230E-002 -0.108991604897197     
 -0.126485181424944      -0.143978757952689      -0.161472334480434     
 -0.178965911008180      -2.398162500558271E-002 -4.147520153332734E-002
 -5.896877806107385E-002 -7.646235458881888E-002 -9.395593111656475E-002
 -0.111449507644310      -0.128943084172056      -0.146436660699801     
 -0.163930237227547      -0.181423813755292      -0.198917390283038     
 -4.441782160277765E-002 -6.191139813052326E-002 -7.940497465826925E-002
 -9.689855118601406E-002 -0.114392127713760      -0.131885704241505     
 -0.149379280769252      -0.166872857296997      -0.184366433824742     
 -0.201860010352488      -0.219353586880233      -6.501644449398039E-002
 -8.251002102172651E-002 -0.100003597549471      -0.117497174077217     
 -0.134990750604963      -0.152484327132709      -0.169977903660455     
 -0.187471480188198      -0.204965056715946      -0.222458633243691     
 -0.239952209771436      -8.545264109117599E-002 -0.102946217618921     
 -0.120439794146667      -0.137933370674412      -0.155426947202158     
 -0.172920523729904      -0.190414100257649      -0.207907676785396     
 -0.225401253313140      -0.242894829840886      -0.260388406368632     
 -0.105404120366034      -0.122897696893780      -0.140391273421525     
 -0.157884849949269      -0.175378426477016      -0.192872003004762     
 -0.210365579532506      -0.227859156060253      -0.245352732587998     
 -0.262846309115744      -0.280339885643490      -0.124556235571954     
 -0.142049812099699      -0.159543388627445      -0.177036965155190     
 -0.194530541682936      -0.212024118210682      -0.229517694738428     
 -0.247011271266173      -0.264504847793919      -0.281998424321665     
 -0.299492000849410      -0.142606946411219      -0.160100522938965     
 -0.177594099466711      -0.195087675994456      -0.212581252522202     
 -0.230074829049948      -0.247568405577693      -0.265061982105438     
 -0.282555558633184      -0.300049135160929      -0.317542711688674     
 -0.159271582390924      -0.176765158918669      -0.194258735446415     
 -0.211752311974159      -0.229245888501905      -0.246739465029651     
 -0.264233041557396      -0.281726618085142      -0.299220194612888     
 -0.316713771140634      -0.334207347668379      -0.174287332246695     
 -0.191780908774441      -0.209274485302185      -0.226768061829933     
 -0.244261638357676      -0.261755214885423      -0.279248791413167     
 -0.296742367940914      -0.314235944468660      -0.331729520996405     
 -0.349223097524149      -0.187417388633335      -0.204910965161080     
 -0.222404541688825      -0.239898118216570      -0.257391694744316     
 -0.274885271272062      -0.292378847799808      -0.309872424327553     
 -0.327366000855298      -0.344859577383044      -0.362353153910789     
 -0.198454682718108      -0.215948259245853      -0.233441835773600     
 -0.250935412301345      -0.268428988829089      -0.285922565356837     
 -0.303416141884582      -0.320909718412327      -0.338403294940072     
 -0.355896871467820      -0.373390447995566      -0.207225149779941     
 -0.224718726307686      -0.242212302835431      -0.259705879363177     
 -0.277199455890923      -0.294693032418668      -0.312186608946414     
 -0.329680185474161      -0.347173762001905      -0.364667338529650     
 -0.382160915057397      -0.213590474314043      -0.231084050841787     
 -0.248577627369534      -0.266071203897280      -0.283564780425026     
 -0.301058356952772      -0.318551933480517      -0.336045510008263     
 -0.353539086536007      -0.371032663063755      -0.388526239591500     
 -0.217450271350052      -0.234943847877797      -0.252437424405542     
 -0.269931000933288      -0.287424577461034      -0.304918153988781     
 -0.322411730516526      -0.339905307044272      -0.357398883572018     
 -0.374892460099763      -0.392386036627507      -0.218743669582978     
 -0.236237246110726      -0.253730822638469      -0.271224399166217     
 -0.288717975693962      -0.306211552221708      -0.323705128749453     
 -0.341198705277198      -0.358692281804944      -0.376185858332689     
 -0.393679434860437     
  3.960717710078315E-002  3.564645939070483E-002  3.168574168062652E-002
  2.772502397054821E-002  2.376430626046989E-002  1.980358855039158E-002
  1.584287084031326E-002  1.188215313023495E-002  7.921435420156629E-003
  3.960717710078312E-003  0.000000000000000E+000  3.960717710078315E-002
  3.564645939070483E-002  3.168574168062652E-002  2.772502397054821E-002
  2.376430626046989E-002  1.980358855039158E-002  1.584287084031326E-002
  1.188215313023495E-002  7.921435420156629E-003  3.960717710078312E-003
  0.000000000000000E+000  3.960717710078315E-002  3.564645939070483E-002
  3.168574168062652E-002  2.772502397054821E-002  2.376430626046989E-002
  1.980358855039158E-002  1.584287084031326E-002  1.188215313023495E-002
  7.921435420156629E-003  3.960717710078312E-003  0.000000000000000E+000
  3.960717710078315E-002  3.564645939070483E-002  3.168574168062652E-002
  2.772502397054821E-002  2.376430626046989E-002  1.980358855039158E-002
  1.584287084031326E-002  1.188215313023495E-002  7.921435420156629E-003
  3.960717710078312E-003  0.000000000000000E+000  3.960717710078315E-002
  3.564645939070483E-002  3.168574168062652E-002  2.772502397054821E-002
  2.376430626046989E-002  1.980358855039158E-002  1.584287084031326E-002
  1.188215313023495E-002  7.921435420156629E-003  3.960717710078312E-003
  0.000000000000000E+000  3.960717710078315E-002  3.564645939070483E-002
  3.168574168062652E-002  2.772502397054821E-002  2.376430626046989E-002
  1.980358855039158E-002  1.584287084031326E-002  1.188215313023495E-002
  7.921435420156629E-003  3.960717710078312E-003  0.000000000000000E+000
  3.960717710078315E-002  3.564645939070483E-002  3.168574168062652E-002
  2.772502397054821E-002  2.376430626046989E-002  1.980358855039158E-002
  1.584287084031326E-002  1.188215313023495E-002  7.921435420156629E-003
  3.960717710078312E-003  0.000000000000000E+000  3.960717710078315E-002
  3.564645939070483E-002  3.168574168062652E-002  2.772502397054821E-002
  2.376430626046989E-002  1.980358855039158E-002  1.584287084031326E-002
  1.188215313023495E-002  7.921435420156629E-003  3.960717710078312E-003
  0.000000000000000E+000  3.960717710078315E-002  3.564645939070483E-002
  3.168574168062652E-002  2.772502397054821E-002  2.376430626046989E-002
  1.980358855039158E-002  1.584287084031326E-002  1.188215313023495E-002
  7.921435420156629E-003  3.960717710078312E-003  0.000000000000000E+000
  3.960717710078315E-002  3.564645939070483E-002  3.168574168062652E-002
  2.772502397054821E-002  2.376430626046989E-002  1.980358855039158E-002
  1.584287084031326E-002  1.188215313023495E-002  7.921435420156629E-003
  3.960717710078312E-003  0.000000000000000E+000  3.960717710078315E-002
  3.564645939070483E-002  3.168574168062652E-002  2.772502397054821E-002
  2.376430626046989E-002  1.980358855039158E-002  1.584287084031326E-002
  1.188215313023495E-002  7.921435420156629E-003  3.960717710078312E-003
  0.000000000000000E+000  3.960717710078315E-002  3.564645939070483E-002
  3.168574168062652E-002  2.772502397054821E-002  2.376430626046989E-002
  1.980358855039158E-002  1.584287084031326E-002  1.188215313023495E-002
  7.921435420156629E-003  3.960717710078312E-003  0.000000000000000E+000
  3.960717710078315E-002  3.564645939070483E-002  3.168574168062652E-002
  2.772502397054821E-002  2.376430626046989E-002  1.980358855039158E-002
  1.584287084031326E-002  1.188215313023495E-002  7.921435420156629E-003
  3.960717710078312E-003  0.000000000000000E+000  3.960717710078315E-002
  3.564645939070483E-002  3.168574168062652E-002  2.772502397054821E-002
  2.376430626046989E-002  1.980358855039158E-002  1.584287084031326E-002
  1.188215313023495E-002  7.921435420156629E-003  3.960717710078312E-003
  0.000000000000000E+000  3.960717710078315E-002  3.564645939070483E-002
  3.168574168062652E-002  2.772502397054821E-002  2.376430626046989E-002
  1.980358855039158E-002  1.584287084031326E-002  1.188215313023495E-002
  7.921435420156629E-003  3.960717710078312E-003  0.000000000000000E+000
  3.960717710078315E-002  3.564645939070483E-002  3.168574168062652E-002
  2.772502397054821E-002  2.376430626046989E-002  1.980358855039158E-002
  1.584287084031326E-002  1.188215313023495E-002  7.921435420156629E-003
  3.960717710078312E-003  0.000000000000000E+000  3.960717710078315E-002
  3.564645939070483E-002  3.168574168062652E-002  2.772502397054821E-002
  2.376430626046989E-002  1.980358855039158E-002  1.584287084031326E-002
  1.188215313023495E-002  7.921435420156629E-003  3.960717710078312E-003
  0.000000000000000E+000  3.960717710078315E-002  3.564645939070483E-002
  3.168574168062652E-002  2.772502397054821E-002  2.376430626046989E-002
  1.980358855039158E-002  1.584287084031326E-002  1.188215313023495E-002
  7.921435420156629E-003  3.960717710078312E-003  0.000000000000000E+000
  3.960717710078315E-002  3.564645939070483E-002  3.168574168062652E-002
  2.772502397054821E-002  2.376430626046989E-002  1.980358855039158E-002
  1.584287084031326E-002  1.188215313023495E-002  7.921435420156629E-003
  3.960717710078312E-003  0.000000000000000E+000  3.960717710078315E-002
  3.564645939070483E-002  3.168574168062652E-002  2.772502397054821E-002
  2.376430626046989E-002  1.980358855039158E-002  1.584287084031326E-002
  1.188215313023495E-002  7.921435420156629E-003  3.960717710078312E-003
  0.000000000000000E+000  3.960717710078315E-002  3.564645939070483E-002
  3.168574168062652E-002  2.772502397054821E-002  2.376430626046989E-002
  1.980358855039158E-002  1.584287084031326E-002  1.188215313023495E-002
  7.921435420156629E-003  3.960717710078312E-003  0.000000000000000E+000
  3.960717710078315E-002  3.564645939070483E-002  3.168574168062652E-002
  2.772502397054821E-002  2.376430626046989E-002  1.980358855039158E-002
  1.584287084031326E-002  1.188215313023495E-002  7.921435420156629E-003
  3.960717710078312E-003  0.000000000000000E+000  3.960717710078315E-002
  3.564645939070483E-002  3.168574168062652E-002  2.772502397054821E-002
  2.376430626046989E-002  1.980358855039158E-002  1.584287084031326E-002
  1.188215313023495E-002  7.921435420156629E-003  3.960717710078312E-003
  0.000000000000000E+000  3.960717710078315E-002  3.564645939070483E-002
  3.168574168062652E-002  2.772502397054821E-002  2.376430626046989E-002
  1.980358855039158E-002  1.584287084031326E-002  1.188215313023495E-002
  7.921435420156629E-003  3.960717710078312E-003  0.000000000000000E+000
  3.960717710078315E-002  3.564645939070483E-002  3.168574168062652E-002
  2.772502397054821E-002  2.376430626046989E-002  1.980358855039158E-002
  1.584287084031326E-002  1.188215313023495E-002  7.921435420156629E-003
  3.960717710078312E-003  0.000000000000000E+000  3.960717710078315E-002
  3.564645939070483E-002  3.168574168062652E-002  2.772502397054821E-002
  2.376430626046989E-002  1.980358855039158E-002  1.584287084031326E-002
  1.188215313023495E-002  7.921435420156629E-003  3.960717710078312E-003
  0.000000000000000E+000
  2.590555190805813E-002  5.246342786029158E-002  8.041598281876242E-002
  0.109546118677964       0.140104796355190       0.172196405233601     
  0.206166745415384       0.241613944431696       0.277213986132878     
  0.310075754098253       4.621257315517398E-002  9.193836258857867E-002
  0.139955182122709       0.189397341460225       0.240865527084389     
  0.294780539936081       0.351801501821754       0.411422448749113     
  0.471658520768763       0.528428574754613       7.377649890737634E-002
  0.139799858877473       0.207475271904723       0.275710125986767     
  0.345395210978209       0.417985351337581       0.494526655939623     
  0.574712320784930       0.656071710406858       0.731500796499393     
  0.113342586594440       0.199990582391792       0.283764265559047     
  0.365730481757641       0.447288991622074       0.530762754520144     
  0.617679365103216       0.708197987230255       0.799816267232193     
  0.884005447434324       0.170480529843033       0.280878145351883     
  0.379053817752569       0.470636711715904       0.557925786210875     
  0.643193650182537       0.729014273005918       0.816082672054323     
  0.902920816479437       0.982347909672741       0.249427211833773     
  0.391595087847929       0.508244281662414       0.611102690748335     
  0.704265787118707       0.790350925498575       0.871611296839615     
  0.949368943377230        1.02318694257471        1.08826655116440     
  0.351055808120643       0.535746801453511       0.678746387784279     
  0.799559063893017       0.905172189798581       0.999201416928730     
   1.08393506021061        1.16061548588494        1.22887694030157     
   1.28445131356402       0.473576213008268       0.711723149649597     
  0.889597405759925        1.03563768395962        1.16019418638071     
   1.26831451787942        1.36279284887587        1.44499148659822     
   1.51465665400913        1.56793417172414       0.614779645849128     
  0.916042489968906        1.13600395036207        1.31302051564302     
   1.46121240595234        1.58740027308851        1.69523861407104     
   1.78649676670544        1.86118036401908        1.91570330619911     
  0.772667682716727        1.14527022683088        1.41322794214252     
   1.62579605231225        1.80126670396810        1.94851425239912     
   2.07230935886328        2.17504953933067        2.25705769488872     
   2.31475797251320       0.945093766578787        1.39597172299591     
   1.71680567738818        1.96866055895094        2.17435921318697     
   2.34505812633248        2.48683007832257        2.60282189227816     
   2.69370516377399        2.75581870179787        1.12989299194665     
   1.66476788963398        2.04241382647213        2.33653401231788     
   2.57480374889322        2.77083372447095        2.93211186815177     
   3.06262898617581        3.16346430338068        3.23087341003066     
   1.32502159799962        1.94845999039846        2.38590278920987     
   2.72442672745016        2.99686197515756        3.21944259199172     
   3.40116994258232        3.54694919619269        3.65834336925421     
   3.73155299073396        1.52882018910743        2.24428553152745     
   2.74350390211756        3.12760564446910        3.43486923689717     
   3.68432267785993        3.88661228691585        4.04765004826775     
   4.16955156044111        4.24855498680185        1.74123773295205     
   2.55152796006694        3.11357756680036        3.54336411199200     
   3.88498703208706        4.16051520110283        4.38241414880090     
   4.55774611821553        4.68931204892636        4.77354748252326     
   1.96569033430487        2.87384031037735        3.49905816907232     
   3.97351012290088        4.34776241217845        4.64731451045191     
   4.88672262167714        5.07440484083049        5.21403106659099     
   5.30245838766480        2.20759116255370        3.21688416828731     
   3.90457026605299        4.42128281099193        4.82511687401462     
   5.14558585213042        5.39966009728190        5.59730470964941     
   5.74320271462272        5.83479996751086        2.45526004151975     
   3.56290042889845        4.30796756487048        4.86123456576130     
   5.28910555112459        5.62548833446125        5.88994707628683     
   6.09409084350994        6.24370824957485        6.33700848886048     
   2.66393093514855        3.84674477517263        4.63046993736850     
   5.20468849359880        5.64356960804848        5.98496337171188     
   6.25070375834941        6.45386325465141        6.60129705061859     
   6.69228273175196        2.78457172763163        3.99770280633465     
   4.78763689663486        5.35799403163318        5.78892920720569     
   6.12121341036284        6.37817534860230        6.57366253370179     
   6.71499012168537        6.80208469291880        2.75052105554322     
   3.91848801835484        4.66132723339485        5.18713935884060     
   5.57817271080083        5.87599118401143        6.10389050485225     
   6.27522493877126        6.39683524317061        6.46947062490551     
   2.55232831744577        3.58840473047553        4.22492968901546     
   4.66535228389183        4.98816537082984        5.23156907584048     
   5.41617319343726        5.55325163886597        5.64809805613174     
   5.70127033881049        2.19942125826782        3.02220478249540     
   3.50849872690097        3.84013384762715        4.08194005810322     
   4.26387608821941        4.40167788442010        4.50387901920155     
   4.57467149739237        4.61518391529465        1.67931780270926     
   2.23434769905594        2.55799357436184        2.77923130068044     
   2.94113015759998        3.06331743505817        3.15613769426409     
   3.22544082743581        3.27502447328845        3.31061311446862     
   1.02040337270490        1.33118575837357        1.51411011825294     
   1.63985149197739        1.73218421367270        1.80202586854558     
   1.85515951647337        1.89484306017501        1.92291991221837     
   1.93985875303971     
  0.000000000000000E+000  0.000000000000000E+000  0.000000000000000E+000
  0.000000000000000E+000  0.000000000000000E+000  0.000000000000000E+000
  0.000000000000000E+000  0.000000000000000E+000  0.000000000000000E+000
  0.000000000000000E+000  0.000000000000000E+000  0.000000000000000E+000
  0.000000000000000E+000  0.000000000000000E+000  0.000000000000000E+000
  0.000000000000000E+000  0.000000000000000E+000  0.000000000000000E+000
  0.000000000000000E+000  0.000000000000000E+000  0.000000000000000E+000
  0.000000000000000E+000  0.000000000000000E+000  0.000000000000000E+000
  0.000000000000000E+000  0.000000000000000E+000  0.000000000000000E+000
  0.000000000000000E+000  0.000000000000000E+000  0.000000000000000E+000
  0.000000000000000E+000  0.000000000000000E+000  0.000000000000000E+000
  0.000000000000000E+000  0.000000000000000E+000  0.000000000000000E+000
  0.000000000000000E+000  0.000000000000000E+000  0.000000000000000E+000
  0.000000000000000E+000  0.000000000000000E+000  0.000000000000000E+000
  0.000000000000000E+000  0.000000000000000E+000  0.000000000000000E+000
  0.000000000000000E+000  0.000000000000000E+000  0.000000000000000E+000
  0.000000000000000E+000  0.000000000000000E+000  0.000000000000000E+000
  0.000000000000000E+000  0.000000000000000E+000  0.000000000000000E+000
  0.000000000000000E+000  0.000000000000000E+000  0.000000000000000E+000
  0.000000000000000E+000  0.000000000000000E+000  0.000000000000000E+000
  0.000000000000000E+000  0.000000000000000E+000  0.000000000000000E+000
  0.000000000000000E+000  0.000000000000000E+000  0.000000000000000E+000
  0.000000000000000E+000  0.000000000000000E+000  0.000000000000000E+000
  0.000000000000000E+000  0.000000000000000E+000  0.000000000000000E+000
  0.000000000000000E+000  0.000000000000000E+000  0.000000000000000E+000
  0.000000000000000E+000  0.000000000000000E+000  0.000000000000000E+000
  0.000000000000000E+000  0.000000000000000E+000  0.000000000000000E+000
  0.000000000000000E+000  0.000000000000000E+000  0.000000000000000E+000
  0.000000000000000E+000  0.000000000000000E+000  0.000000000000000E+000
  0.000000000000000E+000  0.000000000000000E+000  0.000000000000000E+000
  0.000000000000000E+000  0.000000000000000E+000  0.000000000000000E+000
  0.000000000000000E+000  0.000000000000000E+000  0.000000000000000E+000
  0.000000000000000E+000  0.000000000000000E+000  0.000000000000000E+000
  0.000000000000000E+000  0.000000000000000E+000  0.000000000000000E+000
  0.000000000000000E+000  0.000000000000000E+000  0.000000000000000E+000
  0.000000000000000E+000  0.000000000000000E+000  0.000000000000000E+000
  0.000000000000000E+000  0.000000000000000E+000  0.000000000000000E+000
  0.000000000000000E+000  0.000000000000000E+000  0.000000000000000E+000
  0.000000000000000E+000  0.000000000000000E+000  0.000000000000000E+000