 Title = "Wing and Wake"
 VARIABLES = "X" "Y" "Z" "GAM" "skew"
 Zone I=   11 J=   26 K=1  T="Blade"
 DATAPACKING=BLOCK
 VARLOCATION=([4]=CELLCENTERED,[5]=CELLCENTERED)
  2.685251075517400E-002  3.879408636350896E-002  5.073566197184383E-002
  6.267723758017903E-002  7.461881318851417E-002  8.656038879684884E-002
  9.850196440518386E-002  0.110443540013519       0.122385115621854     
  0.134326691230189       0.146268266838524       2.973524130275600E-002
  4.167681691109109E-002  5.361839251942586E-002  6.555996812776096E-002
  7.750154373609570E-002  8.944311934443072E-002  0.101384694952766     
  0.113326270561100       0.125267846169436       0.137209421777771     
  0.149150997386106       3.833797056270621E-002  5.027954617104103E-002
  6.222112177937606E-002  7.416269738771107E-002  8.610427299604584E-002
  9.804584860438095E-002  0.109987424212716       0.121928999821051     
  0.133870575429386       0.145812151037720       0.157753726646056     
  5.252502835557436E-002  6.446660396390942E-002  7.640817957224463E-002
  8.834975518057929E-002  0.100291330788914       0.112232906397249     
  0.124174482005584       0.136116057613919       0.148057633222254     
  0.159999208830589       0.171940784438923       7.207267630502871E-002
  8.401425191336334E-002  9.595582752169862E-002  0.107897403130034     
  0.119838978738368       0.131780554346704       0.143722129955039     
  0.155663705563374       0.167605281171708       0.179546856780043     
  0.191488432388378       9.667263632570816E-002  0.108614211934044     
  0.120555787542378       0.132497363150713       0.144438938759048     
  0.156380514367384       0.168322089975718       0.180263665584053     
  0.192205241192388       0.204146816800723       0.216088392409058     
  0.125936952352783       0.137878527961118       0.149820103569453     
  0.161761679177788       0.173703254786122       0.185644830394458     
  0.197586406002793       0.209527981611127       0.221469557219462     
  0.233411132827796       0.245352708436131       0.159404108640850     
  0.171345684249185       0.183287259857521       0.195228835465855     
  0.207170411074190       0.219111986682525       0.231053562290860     
  0.242995137899195       0.254936713507530       0.266878289115864     
  0.278819864724200       0.196546308142937       0.208487883751273     
  0.220429459359608       0.232371034967943       0.244312610576278     
  0.256254186184612       0.268195761792947       0.280137337401282     
  0.292078913009618       0.304020488617953       0.315962064226287     
  0.236777796185222       0.248719371793557       0.260660947401893     
  0.272602523010228       0.284544098618563       0.296485674226897     
  0.308427249835232       0.320368825443567       0.332310401051902     
  0.344251976660237       0.356193552268572       0.279464098168153     
  0.291405673776488       0.303347249384822       0.315288824993157     
  0.327230400601492       0.339171976209828       0.351113551818161     
  0.363055127426498       0.374996703034831       0.386938278643167     
  0.398879854251502       0.323932025609896       0.335873601218230     
  0.347815176826566       0.359756752434899       0.371698328043235     
  0.383639903651570       0.395581479259905       0.407523054868240     
  0.419464630476575       0.431406206084909       0.443347781693244     
  0.369480292730844       0.381421868339178       0.393363443947513     
  0.405305019555848       0.417246595164183       0.429188170772517     
  0.441129746380853       0.453071321989188       0.465012897597523     
  0.476954473205857       0.488896048814192       0.415390576149283     
  0.427332151757617       0.439273727365951       0.451215302974286     
  0.463156878582621       0.475098454190957       0.487040029799292     
  0.498981605407625       0.510923181015963       0.522864756624297     
  0.534806332232631       0.460938843270229       0.472880418878563     
  0.484821994486900       0.496763570095233       0.508705145703569     
  0.520646721311905       0.532588296920239       0.544529872528575     
  0.556471448136908       0.568413023745242       0.580354599353580     
  0.505406770711972       0.517348346320307       0.529289921928643     
  0.541231497536976       0.553173073145313       0.565114648753647     
  0.577056224361981       0.588997799970317       0.600939375578651     
  0.612880951186985       0.624822526795322       0.548093072694902     
  0.560034648303237       0.571976223911571       0.583917799519907     
  0.595859375128241       0.607800950736577       0.619742526344912     
  0.631684101953248       0.643625677561582       0.655567253169918     
  0.667508828778252       0.588324560737187       0.600266136345522     
  0.612207711953857       0.624149287562192       0.636090863170527     
  0.648032438778863       0.659974014387197       0.671915589995532     
  0.683857165603866       0.695798741212201       0.707740316820535     
  0.625466760239274       0.637408335847609       0.649349911455945     
  0.661291487064279       0.673233062672614       0.685174638280950     
  0.697116213889283       0.709057789497619       0.720999365105955     
  0.732940940714289       0.744882516322623       0.658933916527342     
  0.670875492135677       0.682817067744011       0.694758643352348     
  0.706700218960681       0.718641794569016       0.730583370177351     
  0.742524945785688       0.754466521394022       0.766408097002357     
  0.778349672610690       0.688198232554417       0.700139808162752     
  0.712081383771085       0.724022959379419       0.735964534987756     
  0.747906110596091       0.759847686204427       0.771789261812761     
  0.783730837421095       0.795672413029431       0.807613988637765     
  0.712798192575094       0.724739768183430       0.736681343791766     
  0.748622919400100       0.760564495008435       0.772506070616772     
  0.784447646225105       0.796389221833440       0.808330797441775     
  0.820272373050111       0.832213948658447       0.732345840524551     
  0.744287416132885       0.756228991741219       0.768170567349555     
  0.780112142957891       0.792053718566225       0.803995294174560     
  0.815936869782896       0.827878445391230       0.839820020999565     
  0.851761596607899       0.746532898317418       0.758474473925753     
  0.770416049534087       0.782357625142423       0.794299200750759     
  0.806240776359094       0.818182351967429       0.830123927575764     
  0.842065503184096       0.854007078792433       0.865948654400768     
  0.755135627577367       0.767077203185702       0.779018778794037     
  0.790960354402372       0.802901930010708       0.814843505619044     
  0.826785081227379       0.838726656835713       0.850668232444049     
  0.862609808052383       0.874551383660716       0.758018358124949     
  0.769959933733286       0.781901509341620       0.793843084949955     
  0.805784660558291       0.817726236166626       0.829667811774961     
  0.841609387383294       0.853550962991631       0.865492538599965     
  0.877434114208302     
  0.265151337428004       0.250847002867757       0.236542668307510     
  0.222238333747262       0.207933999187015       0.193629664626767     
  0.179325330066520       0.165020995506273       0.150716660946026     
  0.136412326385778       0.122107991825531       0.267557904797316     
  0.253253570237069       0.238949235676821       0.224644901116574     
  0.210340566556326       0.196036231996079       0.181731897435831     
  0.167427562875584       0.153123228315337       0.138818893755090     
  0.124514559194842       0.274739653900222       0.260435319339975     
  0.246130984779727       0.231826650219480       0.217522315659233     
  0.203217981098985       0.188913646538738       0.174609311978491     
  0.160304977418244       0.146000642857996       0.131696308297749     
  0.286583324263202       0.272278989702955       0.257974655142707     
  0.243670320582461       0.229365986022213       0.215061651461965     
  0.200757316901718       0.186452982341471       0.172148647781224     
  0.157844313220976       0.143539978660729       0.302902134129565     
  0.288597799569318       0.274293465009070       0.259989130448823     
  0.245684795888576       0.231380461328329       0.217076126768082     
  0.202771792207834       0.188467457647587       0.174163123087340     
  0.159858788527092       0.323438726119335       0.309134391559088     
  0.294830056998840       0.280525722438593       0.266221387878346     
  0.251917053318098       0.237612718757851       0.223308384197604     
  0.209004049637356       0.194699715077109       0.180395380516861     
  0.347869225908866       0.333564891348619       0.319260556788373     
  0.304956222228125       0.290651887667877       0.276347553107631     
  0.262043218547383       0.247738883987135       0.233434549426888     
  0.219130214866640       0.204825880306393       0.375808349922407     
  0.361504015362159       0.347199680801913       0.332895346241665     
  0.318591011681418       0.304286677121170       0.289982342560923     
  0.275678008000676       0.261373673440428       0.247069338880181     
  0.232765004319934       0.406815481484238       0.392511146923991     
  0.378206812363743       0.363902477803496       0.349598143243250     
  0.335293808683001       0.320989474122754       0.306685139562507     
  0.292380805002260       0.278076470442012       0.263772135881765     
  0.440401619606868       0.426097285046621       0.411792950486373     
  0.397488615926125       0.383184281365879       0.368879946805631     
  0.354575612245384       0.340271277685137       0.325966943124889     
  0.311662608564641       0.297358274004394       0.476037090828716     
  0.461732756268469       0.447428421708221       0.433124087147974     
  0.418819752587726       0.404515418027480       0.390211083467231     
  0.375906748906984       0.361602414346737       0.347298079786489     
  0.332993745226242       0.513159902481014       0.498855567920767     
  0.484551233360520       0.470246898800270       0.455942564240024     
  0.441638229679778       0.427333895119530       0.413029560559282     
  0.398725225999035       0.384420891438788       0.370116556878541     
  0.551184605647914       0.536880271087667       0.522575936527418     
  0.508271601967172       0.493967267406925       0.479662932846677     
  0.465358598286429       0.451054263726182       0.436749929165936     
  0.422445594605688       0.408141260045440       0.589511528045617     
  0.575207193485369       0.560902858925122       0.546598524364874     
  0.532294189804627       0.517989855244380       0.503685520684132     
  0.489381186123885       0.475076851563639       0.460772517003390     
  0.446468182443143       0.627536231212515       0.613231896652269     
  0.598927562092022       0.584623227531773       0.570318892971526     
  0.556014558411281       0.541710223851032       0.527405889290784     
  0.513101554730536       0.498797220170288       0.484492885610043     
  0.664659042864815       0.650354708304566       0.636050373744320     
  0.621746039184073       0.607441704623826       0.593137370063578     
  0.578833035503330       0.564528700943083       0.550224366382836     
  0.535920031822587       0.521615697262342       0.700294514086662     
  0.685990179526415       0.671685844966167       0.657381510405921     
  0.643077175845672       0.628772841285426       0.614468506725178     
  0.600164172164932       0.585859837604684       0.571555503044436     
  0.557251168484190       0.733880652209292       0.719576317649043     
  0.705271983088797       0.690967648528550       0.676663313968302     
  0.662358979408055       0.648054644847807       0.633750310287559     
  0.619445975727312       0.605141641167065       0.590837306606818     
  0.764887783771121       0.750583449210874       0.736279114650628     
  0.721974780090381       0.707670445530134       0.693366110969886     
  0.679061776409638       0.664757441849391       0.650453107289145     
  0.636148772728896       0.621844438168649       0.792826907784663     
  0.778522573224414       0.764218238664167       0.749913904103920     
  0.735609569543674       0.721305234983424       0.707000900423180     
  0.692696565862932       0.678392231302683       0.664087896742437     
  0.649783562182190       0.817257407574194       0.802953073013949     
  0.788648738453699       0.774344403893451       0.760040069333205     
  0.745735734772958       0.731431400212711       0.717127065652463     
  0.702822731092217       0.688518396531968       0.674214061971721     
  0.837793999563963       0.823489665003718       0.809185330443468     
  0.794880995883222       0.780576661322976       0.766272326762729     
  0.751967992202479       0.737663657642233       0.723359323081987     
  0.709054988521738       0.694750653961491       0.854112809430328     
  0.839808474870080       0.825504140309832       0.811199805749586     
  0.796895471189339       0.782591136629091       0.768286802068844     
  0.753982467508597       0.739678132948349       0.725373798388102     
  0.711069463827853       0.865956479793308       0.851652145233062     
  0.837347810672812       0.823043476112565       0.808739141552319     
  0.794434806992070       0.780130472431825       0.765826137871576     
  0.751521803311328       0.737217468751080       0.722913134190833     
  0.873138228896213       0.858833894335966       0.844529559775721     
  0.830225225215471       0.815920890655224       0.801616556094976     
  0.787312221534729       0.773007886974482       0.758703552414236     
  0.744399217853988       0.730094883293740       0.875544796265525     
  0.861240461705277       0.846936127145032       0.832631792584783     
  0.818327458024536       0.804023123464289       0.789718788904043     
  0.775414454343793       0.761110119783547       0.746805785223299     
  0.732501450663053     
  3.960717710078315E-002  3.564645939070483E-002  3.168574168062652E-002
  2.772502397054821E-002  2.376430626046989E-002  1.980358855039158E-002
  1.584287084031326E-002  1.188215313023495E-002  7.921435420156629E-003
  3.960717710078312E-003  0.000000000000000E+000  3.960717710078315E-002
  3.564645939070483E-002  3.168574168062652E-002  2.772502397054821E-002
  2.376430626046989E-002  1.980358855039158E-002  1.584287084031326E-002
  1.188215313023495E-002  7.921435420156629E-003  3.960717710078312E-003
  0.000000000000000E+000  3.960717710078315E-002  3.564645939070483E-002
  3.168574168062652E-002  2.772502397054821E-002  2.376430626046989E-002
  1.980358855039158E-002  1.584287084031326E-002  1.188215313023495E-002
  7.921435420156629E-003  3.960717710078312E-003  0.000000000000000E+000
  3.960717710078315E-002  3.564645939070483E-002  3.168574168062652E-002
  2.772502397054821E-002  2.376430626046989E-002  1.980358855039158E-002
  1.584287084031326E-002  1.188215313023495E-002  7.921435420156629E-003
  3.960717710078312E-003  0.000000000000000E+000  3.960717710078315E-002
  3.564645939070483E-002  3.168574168062652E-002  2.772502397054821E-002
  2.376430626046989E-002  1.980358855039158E-002  1.584287084031326E-002
  1.188215313023495E-002  7.921435420156629E-003  3.960717710078312E-003
  0.000000000000000E+000  3.960717710078315E-002  3.564645939070483E-002
  3.168574168062652E-002  2.772502397054821E-002  2.376430626046989E-002
  1.980358855039158E-002  1.584287084031326E-002  1.188215313023495E-002
  7.921435420156629E-003  3.960717710078312E-003  0.000000000000000E+000
  3.960717710078315E-002  3.564645939070483E-002  3.168574168062652E-002
  2.772502397054821E-002  2.376430626046989E-002  1.980358855039158E-002
  1.584287084031326E-002  1.188215313023495E-002  7.921435420156629E-003
  3.960717710078312E-003  0.000000000000000E+000  3.960717710078315E-002
  3.564645939070483E-002  3.168574168062652E-002  2.772502397054821E-002
  2.376430626046989E-002  1.980358855039158E-002  1.584287084031326E-002
  1.188215313023495E-002  7.921435420156629E-003  3.960717710078312E-003
  0.000000000000000E+000  3.960717710078315E-002  3.564645939070483E-002
  3.168574168062652E-002  2.772502397054821E-002  2.376430626046989E-002
  1.980358855039158E-002  1.584287084031326E-002  1.188215313023495E-002
  7.921435420156629E-003  3.960717710078312E-003  0.000000000000000E+000
  3.960717710078315E-002  3.564645939070483E-002  3.168574168062652E-002
  2.772502397054821E-002  2.376430626046989E-002  1.980358855039158E-002
  1.584287084031326E-002  1.188215313023495E-002  7.921435420156629E-003
  3.960717710078312E-003  0.000000000000000E+000  3.960717710078315E-002
  3.564645939070483E-002  3.168574168062652E-002  2.772502397054821E-002
  2.376430626046989E-002  1.980358855039158E-002  1.584287084031326E-002
  1.188215313023495E-002  7.921435420156629E-003  3.960717710078312E-003
  0.000000000000000E+000  3.960717710078315E-002  3.564645939070483E-002
  3.168574168062652E-002  2.772502397054821E-002  2.376430626046989E-002
  1.980358855039158E-002  1.584287084031326E-002  1.188215313023495E-002
  7.921435420156629E-003  3.960717710078312E-003  0.000000000000000E+000
  3.960717710078315E-002  3.564645939070483E-002  3.168574168062652E-002
  2.772502397054821E-002  2.376430626046989E-002  1.980358855039158E-002
  1.584287084031326E-002  1.188215313023495E-002  7.921435420156629E-003
  3.960717710078312E-003  0.000000000000000E+000  3.960717710078315E-002
  3.564645939070483E-002  3.168574168062652E-002  2.772502397054821E-002
  2.376430626046989E-002  1.980358855039158E-002  1.584287084031326E-002
  1.188215313023495E-002  7.921435420156629E-003  3.960717710078312E-003
  0.000000000000000E+000  3.960717710078315E-002  3.564645939070483E-002
  3.168574168062652E-002  2.772502397054821E-002  2.376430626046989E-002
  1.980358855039158E-002  1.584287084031326E-002  1.188215313023495E-002
  7.921435420156629E-003  3.960717710078312E-003  0.000000000000000E+000
  3.960717710078315E-002  3.564645939070483E-002  3.168574168062652E-002
  2.772502397054821E-002  2.376430626046989E-002  1.980358855039158E-002
  1.584287084031326E-002  1.188215313023495E-002  7.921435420156629E-003
  3.960717710078312E-003  0.000000000000000E+000  3.960717710078315E-002
  3.564645939070483E-002  3.168574168062652E-002  2.772502397054821E-002
  2.376430626046989E-002  1.980358855039158E-002  1.584287084031326E-002
  1.188215313023495E-002  7.921435420156629E-003  3.960717710078312E-003
  0.000000000000000E+000  3.960717710078315E-002  3.564645939070483E-002
  3.168574168062652E-002  2.772502397054821E-002  2.376430626046989E-002
  1.980358855039158E-002  1.584287084031326E-002  1.188215313023495E-002
  7.921435420156629E-003  3.960717710078312E-003  0.000000000000000E+000
  3.960717710078315E-002  3.564645939070483E-002  3.168574168062652E-002
  2.772502397054821E-002  2.376430626046989E-002  1.980358855039158E-002
  1.584287084031326E-002  1.188215313023495E-002  7.921435420156629E-003
  3.960717710078312E-003  0.000000000000000E+000  3.960717710078315E-002
  3.564645939070483E-002  3.168574168062652E-002  2.772502397054821E-002
  2.376430626046989E-002  1.980358855039158E-002  1.584287084031326E-002
  1.188215313023495E-002  7.921435420156629E-003  3.960717710078312E-003
  0.000000000000000E+000  3.960717710078315E-002  3.564645939070483E-002
  3.168574168062652E-002  2.772502397054821E-002  2.376430626046989E-002
  1.980358855039158E-002  1.584287084031326E-002  1.188215313023495E-002
  7.921435420156629E-003  3.960717710078312E-003  0.000000000000000E+000
  3.960717710078315E-002  3.564645939070483E-002  3.168574168062652E-002
  2.772502397054821E-002  2.376430626046989E-002  1.980358855039158E-002
  1.584287084031326E-002  1.188215313023495E-002  7.921435420156629E-003
  3.960717710078312E-003  0.000000000000000E+000  3.960717710078315E-002
  3.564645939070483E-002  3.168574168062652E-002  2.772502397054821E-002
  2.376430626046989E-002  1.980358855039158E-002  1.584287084031326E-002
  1.188215313023495E-002  7.921435420156629E-003  3.960717710078312E-003
  0.000000000000000E+000  3.960717710078315E-002  3.564645939070483E-002
  3.168574168062652E-002  2.772502397054821E-002  2.376430626046989E-002
  1.980358855039158E-002  1.584287084031326E-002  1.188215313023495E-002
  7.921435420156629E-003  3.960717710078312E-003  0.000000000000000E+000
  3.960717710078315E-002  3.564645939070483E-002  3.168574168062652E-002
  2.772502397054821E-002  2.376430626046989E-002  1.980358855039158E-002
  1.584287084031326E-002  1.188215313023495E-002  7.921435420156629E-003
  3.960717710078312E-003  0.000000000000000E+000  3.960717710078315E-002
  3.564645939070483E-002  3.168574168062652E-002  2.772502397054821E-002
  2.376430626046989E-002  1.980358855039158E-002  1.584287084031326E-002
  1.188215313023495E-002  7.921435420156629E-003  3.960717710078312E-003
  0.000000000000000E+000
  6.567963386494144E-002  0.111240857496379       0.154615742832973     
  0.194945063809175       0.230458134085718       0.260305205739773     
  0.284657564314927       0.303373305116399       0.316481460223586     
  0.323677580644585       0.111209102407325       0.188270703097319     
  0.261279717575599       0.329662148221688       0.390331052290592     
  0.441511560415529       0.483193701242016       0.515153638228841     
  0.537664536403544       0.551169192257348       0.155645236532831     
  0.260437859440563       0.358392011664382       0.451522805938497     
  0.536071534374987       0.608479113853871       0.667502934284311     
  0.712676683948713       0.744250497978726       0.761664724041155     
  0.200153687989912       0.324917655263563       0.436791255651971     
  0.543020376206115       0.641913362013398       0.729011538635340     
  0.801337318432433       0.857590038817102       0.896517660729317     
  0.916087557200673       0.253864416653655       0.397653034417646     
  0.516797945090693       0.623925858491530       0.721505531353045     
  0.808183945070931       0.882349968649986       0.942620055772242     
  0.986086251374058        1.00881997450302       0.325591035743619     
  0.497158426749780       0.629776551747927       0.741181874601054     
  0.837056932755123       0.919502728881510       0.989283520063164     
   1.04624277566473        1.08896140657076        1.11397745769651     
  0.418762104973469       0.630272493799574       0.787839931104389     
  0.915912066955257        1.02307563044888        1.11323012311860     
   1.18831967302164        1.24917159246335        1.29527817906673     
   1.32350268468689       0.532899245291099       0.795451371816962     
  0.987181253232924        1.14064392553626        1.26761784377435     
   1.37367128038349        1.46165457143252        1.53274429370609     
   1.58656945623534        1.62003280904718       0.665989468790166     
  0.988873244531983        1.22157270309564        1.40591699750937     
   1.55724819207118        1.68289391018319        1.78671314513947     
   1.87047941781055        1.93406272000149        1.97412476262400     
  0.815883292518465        1.20710279766148        1.48636790474326     
   1.70581015887959        1.88475025452836        2.03251571518825     
   2.15408058896294        2.25187279897223        2.32607376843571     
   2.37315475837173       0.980841943196487        1.44736610844704     
   1.77795663217279        2.03603705098060        2.24526726886404     
   2.41716441741234        2.55794409814261        2.67075259061840     
   2.75612842222132        2.81039845086224        1.15896286944693     
   1.70676244608936        2.09265265568419        2.39223070430920     
   2.63384598310321        2.83139258637005        2.99245263454279     
   3.12099089717205        3.21795449324740        3.27954112775183     
   1.34815598395110        1.98202601778266        2.42625556330323     
   2.76940800178539        3.04483386287008        3.26897775345518     
   3.45090625900259        3.59548602365934        3.70415558462954     
   3.77304995231170        1.54656390726812        2.27016471790970     
   2.77478463104807        3.16266256999115        3.47246043774321     
   3.72335950872347        3.92604483934835        4.08639358887097     
   4.20642141009331        4.28230462187639        1.75402499672756     
   2.57032209508914        3.13645989047857        3.56918472807861     
   3.91285112812640        4.18962550984792        4.41199663318033     
   4.58699497025507        4.71734494784535        4.79943673994132     
   1.97423461365692        2.88655814466754        3.51471523261307     
   3.99135013430840        4.36718262508001        4.66776446350257     
   4.90765479957381        5.09524295709031        5.23414629741723     
   5.32120044119052        2.21421345702577        3.22672998200481     
   3.91668872587320        4.43512131672605        4.84026328261154     
   5.16167037053985        5.41630247073520        5.61408912002502     
   5.75966976660181        5.85047771251640        2.46461346002017     
   3.57641667448976        4.32425386968970        4.87959941230732     
   5.30913583491757        5.64686916610188        5.91235988488107     
   6.11716835630800        6.26701830574201        6.36005230155996     
   2.67988549446985        3.86917500940105        4.65693014615754     
   5.23411680569895        5.67538422502445        6.01870479655897     
   6.28591592534697        6.49005931538965        6.63793392430722     
   6.72872783915771        2.81220933985003        4.03605454348659     
   4.83242334515142        5.40742138274454        5.84200086449006     
   6.17711572686513        6.43613578096983        6.63291332556267     
   6.77472183664634        6.86138953099607        2.78292810665961     
   3.96389667833280        4.71463829797280        5.24588346625726     
   5.64086905647113        5.94158021314689        6.17148812806080     
   6.34399892973402        6.46591528214386        6.53788253337823     
   2.58243939424877        3.63054567217992        4.27430135916473     
   4.71958543944125        5.04582061321001        5.29163705428470     
   5.47784354062024        5.61578257918139        5.71071915992010     
   5.76311744678184        2.22461337847822        3.05692197063479     
   3.54880932599595        3.88417591325424        4.12859828659295     
   4.31237096900556        4.45138505994164        4.55422820588915     
   4.62507166085449        4.66497338291031        1.69810083267570     
   2.25952915900143        2.58691020409635        2.81065381578693     
   2.97431890958224        3.09775150454173        3.19139814746763     
   3.26114578800202        3.31078622232717        3.34603984409517     
   1.03170789588484        1.34607264438430        1.53111086421632     
   1.65827928704010        1.75162175989151        1.82217731075778     
   1.87578603212461        1.91572623069282        1.94383493934587     
   1.96055133592312     
  0.000000000000000E+000  0.000000000000000E+000  0.000000000000000E+000
  0.000000000000000E+000  0.000000000000000E+000  0.000000000000000E+000
  0.000000000000000E+000  0.000000000000000E+000  0.000000000000000E+000
  0.000000000000000E+000  0.000000000000000E+000  0.000000000000000E+000
  0.000000000000000E+000  0.000000000000000E+000  0.000000000000000E+000
  0.000000000000000E+000  0.000000000000000E+000  0.000000000000000E+000
  0.000000000000000E+000  0.000000000000000E+000  0.000000000000000E+000
  0.000000000000000E+000  0.000000000000000E+000  0.000000000000000E+000
  0.000000000000000E+000  0.000000000000000E+000  0.000000000000000E+000
  0.000000000000000E+000  0.000000000000000E+000  0.000000000000000E+000
  0.000000000000000E+000  0.000000000000000E+000  0.000000000000000E+000
  0.000000000000000E+000  0.000000000000000E+000  0.000000000000000E+000
  0.000000000000000E+000  0.000000000000000E+000  0.000000000000000E+000
  0.000000000000000E+000  0.000000000000000E+000  0.000000000000000E+000
  0.000000000000000E+000  0.000000000000000E+000  0.000000000000000E+000
  0.000000000000000E+000  0.000000000000000E+000  0.000000000000000E+000
  0.000000000000000E+000  0.000000000000000E+000  0.000000000000000E+000
  0.000000000000000E+000  0.000000000000000E+000  0.000000000000000E+000
  0.000000000000000E+000  0.000000000000000E+000  0.000000000000000E+000
  0.000000000000000E+000  0.000000000000000E+000  0.000000000000000E+000
  0.000000000000000E+000  0.000000000000000E+000  0.000000000000000E+000
  0.000000000000000E+000  0.000000000000000E+000  0.000000000000000E+000
  0.000000000000000E+000  0.000000000000000E+000  0.000000000000000E+000
  0.000000000000000E+000  0.000000000000000E+000  0.000000000000000E+000
  0.000000000000000E+000  0.000000000000000E+000  0.000000000000000E+000
  0.000000000000000E+000  0.000000000000000E+000  0.000000000000000E+000
  0.000000000000000E+000  0.000000000000000E+000  0.000000000000000E+000
  0.000000000000000E+000  0.000000000000000E+000  0.000000000000000E+000
  0.000000000000000E+000  0.000000000000000E+000  0.000000000000000E+000
  0.000000000000000E+000  0.000000000000000E+000  0.000000000000000E+000
  0.000000000000000E+000  0.000000000000000E+000  0.000000000000000E+000
  0.000000000000000E+000  0.000000000000000E+000  0.000000000000000E+000
  0.000000000000000E+000  0.000000000000000E+000  0.000000000000000E+000
  0.000000000000000E+000  0.000000000000000E+000  0.000000000000000E+000
  0.000000000000000E+000  0.000000000000000E+000  0.000000000000000E+000
  0.000000000000000E+000  0.000000000000000E+000  0.000000000000000E+000
  0.000000000000000E+000  0.000000000000000E+000  0.000000000000000E+000
  0.000000000000000E+000  0.000000000000000E+000  0.000000000000000E+000
  0.000000000000000E+000  0.000000000000000E+000  0.000000000000000E+000