 Title = "Wing and Wake"
 VARIABLES = "X" "Y" "Z" "GAM" "skew"
 Zone I=   11 J=   26 K=1  T="Blade"
 DATAPACKING=BLOCK
 VARLOCATION=([4]=CELLCENTERED,[5]=CELLCENTERED)
 -2.688952079281200E-002 -3.882909966014519E-002 -5.076867852747834E-002
 -6.270825739481151E-002 -7.464783626214495E-002 -8.658741512947786E-002
 -9.852699399681117E-002 -0.110466572864144      -0.122406151731477     
 -0.134345730598811      -0.146285309466144      -2.977258722530114E-002
 -4.171216609263444E-002 -5.365174495996757E-002 -6.559132382730083E-002
 -7.753090269463389E-002 -8.947048156196717E-002 -0.101410060429300     
 -0.113349639296633      -0.125289218163967      -0.137228797031300     
 -0.149168375898633      -3.837631884286774E-002 -5.031589771020097E-002
 -6.225547657753425E-002 -7.419505544486743E-002 -8.613463431220046E-002
 -9.807421317953369E-002 -0.110013792046867      -0.121953370914200     
 -0.133892949781533      -0.145832528648866      -0.157772107516199     
 -5.256502965828288E-002 -6.450460852561622E-002 -7.644418739294945E-002
 -8.838376626028248E-002 -0.100323345127615      -0.112262923994949     
 -0.124202502862282      -0.136142081729615      -0.148081660596948     
 -0.160021239464282      -0.171960818331614      -7.211495522606179E-002
 -8.405453409339513E-002 -9.599411296072830E-002 -0.107933691828062     
 -0.119873270695395      -0.131812849562728      -0.143752428430061     
 -0.155692007297394      -0.167631586164727      -0.179571165032061     
 -0.191510743899394      -9.671778154144188E-002 -0.108657360408775     
 -0.120596939276108      -0.132536518143442      -0.144476097010775     
 -0.156415675878108      -0.168355254745441      -0.180294833612774     
 -0.192234412480108      -0.204173991347441      -0.216113570214774     
 -0.125985507336413      -0.137925086203746      -0.149864665071080     
 -0.161804243938413      -0.173743822805746      -0.185683401673080     
 -0.197622980540412      -0.209562559407745      -0.221502138275078     
 -0.233441717142412      -0.245381296009745      -0.159456563091498     
 -0.171396141958830      -0.183335720826164      -0.195275299693497     
 -0.207214878560830      -0.219154457428163      -0.231094036295497     
 -0.243033615162830      -0.254973194030163      -0.266912772897496     
 -0.278852351764830      -0.196603090262797      -0.208542669130131     
 -0.220482247997464      -0.232421826864796      -0.244361405732130     
 -0.256300984599463      -0.268240563466796      -0.280180142334129     
 -0.292119721201463      -0.304059300068796      -0.315998878936129     
 -0.236839265926561      -0.248778844793894      -0.260718423661227     
 -0.272658002528561      -0.284597581395894      -0.296537160263226     
 -0.308476739130559      -0.320416317997893      -0.332355896865226     
 -0.344295475732559      -0.356235054599892      -0.279530541556646     
 -0.291470120423979      -0.303409699291312      -0.315349278158645     
 -0.327288857025978      -0.339228435893312      -0.351168014760644     
 -0.363107593627978      -0.375047172495310      -0.386986751362644     
 -0.398926330229977      -0.324003650233832      -0.335943229101165     
 -0.347882807968499      -0.359822386835831      -0.371761965703165     
 -0.383701544570498      -0.395641123437831      -0.407580702305164     
 -0.419520281172497      -0.431459860039830      -0.443399438907164     
 -0.369557224467335      -0.381496803334668      -0.393436382202000     
 -0.405375961069334      -0.417315539936667      -0.429255118804000     
 -0.441194697671334      -0.453134276538667      -0.465073855405999     
 -0.477013434273333      -0.488953013140667      -0.415472857179104     
 -0.427412436046437      -0.439352014913769      -0.451291593781103     
 -0.463231172648436      -0.475170751515770      -0.487110330383104     
 -0.499049909250435      -0.510989488117770      -0.522929066985103     
 -0.534868645852436      -0.461026431412606      -0.472966010279939     
 -0.484905589147273      -0.496845168014605      -0.508784746881938     
 -0.520724325749272      -0.532663904616604      -0.544603483483938     
 -0.556543062351271      -0.568482641218604      -0.580422220085938     
 -0.505499540089793      -0.517439118957126      -0.529378697824459     
 -0.541318276691792      -0.553257855559125      -0.565197434426459     
 -0.577137013293791      -0.589076592161125      -0.601016171028458     
 -0.612955749895790      -0.624895328763125      -0.548190815719877     
 -0.560130394587210      -0.572069973454543      -0.584009552321877     
 -0.595949131189210      -0.607888710056542      -0.619828288923876     
 -0.631767867791210      -0.643707446658543      -0.655647025525877     
 -0.667586604393209      -0.588426991383642      -0.600366570250974     
 -0.612306149118308      -0.624245727985640      -0.636185306852973     
 -0.648124885720307      -0.660064464587640      -0.672004043454973     
 -0.683943622322306      -0.695883201189639      -0.707822780056972     
 -0.625573518554941      -0.637513097422273      -0.649452676289607     
 -0.661392255156939      -0.673331834024273      -0.685271412891607     
 -0.697210991758939      -0.709150570626273      -0.721090149493606     
 -0.733029728360939      -0.744969307228272      -0.659044574310024     
 -0.670984153177358      -0.682923732044690      -0.694863310912025     
 -0.706802889779357      -0.718742468646691      -0.730682047514022     
 -0.742621626381357      -0.754561205248690      -0.766500784116024     
 -0.778440362983356      -0.688312300104996      -0.700251878972330     
 -0.712191457839661      -0.724131036706995      -0.736070615574329     
 -0.748010194441661      -0.759949773308996      -0.771889352176328     
 -0.783828931043662      -0.795768509910994      -0.807708088778327     
 -0.712915126420376      -0.724854705287709      -0.736794284155042     
 -0.748733863022376      -0.760673441889708      -0.772613020757043     
 -0.784552599624375      -0.796492178491708      -0.808431757359041     
 -0.820371336226374      -0.832310915093709      -0.732465051988155     
 -0.744404630855488      -0.756344209722821      -0.768283788590154     
 -0.780223367457488      -0.792162946324821      -0.804102525192155     
 -0.816042104059488      -0.827981682926820      -0.839921261794153     
 -0.851860840661487      -0.746653762803570      -0.758593341670903     
 -0.770532920538236      -0.782472499405569      -0.794412078272903     
 -0.806351657140237      -0.818291236007568      -0.830230814874903     
 -0.842170393742235      -0.854109972609570      -0.866049551476901     
 -0.755257494421136      -0.767197073288469      -0.779136652155802     
 -0.791076231023135      -0.803015809890469      -0.814955388757803     
 -0.826894967625135      -0.838834546492468      -0.850774125359802     
 -0.862713704227135      -0.874653283094468      -0.758140560853624     
 -0.770080139720958      -0.782019718588291      -0.793959297455626     
 -0.805898876322958      -0.817838455190292      -0.829778034057626     
 -0.841717612924957      -0.853657191792291      -0.865596770659624     
 -0.877536349526958     
 -0.265147586723413      -0.250841585475971      -0.236535584228530     
 -0.222229582981088      -0.207923581733646      -0.193617580486205     
 -0.179311579238763      -0.165005577991321      -0.150699576743880     
 -0.136393575496438      -0.122087574248997      -0.267553751692580     
 -0.253247750445139      -0.238941749197697      -0.224635747950256     
 -0.210329746702814      -0.196023745455373      -0.181717744207931     
 -0.167411742960489      -0.153105741713048      -0.138799740465606     
 -0.124493739218164      -0.274734299941147      -0.260428298693705     
 -0.246122297446264      -0.231816296198822      -0.217510294951380     
 -0.203204293703939      -0.188898292456497      -0.174592291209056     
 -0.160286289961614      -0.145980288714172      -0.131674287466731     
 -0.286575989933780      -0.272269988686339      -0.257963987438897     
 -0.243657986191456      -0.229351984944014      -0.215045983696572     
 -0.200739982449131      -0.186433981201689      -0.172127979954247     
 -0.157821978706806      -0.143515977459364      -0.302892071145414     
 -0.288586069897973      -0.274280068650531      -0.259974067403089     
 -0.245668066155647      -0.231362064908206      -0.217056063660765     
 -0.202750062413323      -0.188444061165881      -0.174138059918440     
 -0.159832058670998      -0.323425229228586      -0.309119227981145     
 -0.294813226733703      -0.280507225486262      -0.266201224238820     
 -0.251895222991379      -0.237589221743937      -0.223283220496495     
 -0.208977219249054      -0.194671218001612      -0.180365216754170     
 -0.347851644014411      -0.333545642766970      -0.319239641519529     
 -0.304933640272087      -0.290627639024645      -0.276321637777204     
 -0.262015636529762      -0.247709635282321      -0.233403634034879     
 -0.219097632787437      -0.204791631539996      -0.375786096350085     
 -0.361480095102642      -0.347174093855201      -0.332868092607760     
 -0.318562091360318      -0.304256090112877      -0.289950088865435     
 -0.275644087617994      -0.261338086370551      -0.247032085123110     
 -0.232726083875669      -0.406788043235038      -0.392482041987596     
 -0.378176040740155      -0.363870039492714      -0.349564038245272     
 -0.335258036997830      -0.320952035750388      -0.306646034502947     
 -0.292340033255506      -0.278034032008064      -0.263728030760623     
 -0.440368565447231      -0.426062564199790      -0.411756562952349     
 -0.397450561704907      -0.383144560457465      -0.368838559210024     
 -0.354532557962582      -0.340226556715141      -0.325920555467699     
 -0.311614554220257      -0.297308552972816      -0.475998078091348     
 -0.461692076843906      -0.447386075596464      -0.433080074349023     
 -0.418774073101581      -0.404468071854140      -0.390162070606698     
 -0.375856069359256      -0.361550068111814      -0.347244066864373     
 -0.332938065616931      -0.513114682468947      -0.498808681221506     
 -0.484502679974065      -0.470196678726622      -0.455890677479181     
 -0.441584676231740      -0.427278674984299      -0.412972673736857     
 -0.398666672489415      -0.384360671241974      -0.370054669994532     
 -0.551133027556615      -0.536827026309173      -0.522521025061729     
 -0.508215023814289      -0.493909022566847      -0.479603021319406     
 -0.465297020071964      -0.450991018824523      -0.436685017577082     
 -0.422379016329640      -0.408073015082198      -0.589453541341255     
 -0.575147540093813      -0.560841538846372      -0.546535537598929     
 -0.532229536351488      -0.517923535104046      -0.503617533856605     
 -0.489311532609164      -0.475005531361723      -0.460699530114280     
 -0.446393528866839      -0.627471886428920      -0.613165885181479     
 -0.598859883934038      -0.584553882686596      -0.570247881439154     
 -0.555941880191713      -0.541635878944271      -0.527329877696829     
 -0.513023876449387      -0.498717875201946      -0.484411873954505     
 -0.664588490806522      -0.650282489559079      -0.635976488311638     
 -0.621670487064197      -0.607364485816755      -0.593058484569313     
 -0.578752483321871      -0.564446482074430      -0.550140480826989     
 -0.535834479579546      -0.521528478332105      -0.700218003450637     
 -0.685912002203195      -0.671606000955753      -0.657299999708313     
 -0.642993998460870      -0.628687997213429      -0.614381995965987     
 -0.600075994718546      -0.585769993471104      -0.571463992223663     
 -0.557157990976221      -0.733798525662831      -0.719492524415388     
 -0.705186523167947      -0.690880521920505      -0.676574520673063     
 -0.662268519425623      -0.647962518178181      -0.633656516930739     
 -0.619350515683297      -0.605044514435855      -0.590738513188414     
 -0.764800472547784      -0.750494471300342      -0.736188470052900     
 -0.721882468805459      -0.707576467558018      -0.693270466310576     
 -0.678964465063134      -0.664658463815693      -0.650352462568251     
 -0.636046461320809      -0.621740460073368      -0.792734924883456     
 -0.778428923636016      -0.764122922388573      -0.749816921141132     
 -0.735510919893691      -0.721204918646248      -0.706898917398807     
 -0.692592916151367      -0.678286914903923      -0.663980913656482     
 -0.649674912409040      -0.817161339669282      -0.802855338421841     
 -0.788549337174398      -0.774243335926958      -0.759937334679516     
 -0.745631333432073      -0.731325332184632      -0.717019330937190     
 -0.702713329689750      -0.688407328442307      -0.674101327194865     
 -0.837694497752455      -0.823388496505014      -0.809082495257570     
 -0.794776494010130      -0.780470492762689      -0.766164491515247     
 -0.751858490267804      -0.737552489020363      -0.723246487772922     
 -0.708940486525479      -0.694634485278038      -0.854010578964087     
 -0.839704577716647      -0.825398576469205      -0.811092575221763     
 -0.796786573974322      -0.782480572726880      -0.768174571479439     
 -0.753868570231997      -0.739562568984555      -0.725256567737114     
 -0.710950566489671      -0.865852268956722      -0.851546267709281     
 -0.837240266461838      -0.822934265214396      -0.808628263966956     
 -0.794322262719513      -0.780016261472072      -0.765710260224629     
 -0.751404258977189      -0.737098257729747      -0.722792256482305     
 -0.873032817205287      -0.858726815957847      -0.844420814710406     
 -0.830114813462962      -0.815808812215521      -0.801502810968079     
 -0.787196809720637      -0.772890808473195      -0.758584807225756     
 -0.744278805978314      -0.729972804730871      -0.875438982174454     
 -0.861132980927013      -0.846826979679573      -0.832520978432130     
 -0.818214977184689      -0.803908975937249      -0.789602974689807     
 -0.775296973442363      -0.760990972194923      -0.746684970947481     
 -0.732378969700040     
  3.960717710078315E-002  3.564645939070483E-002  3.168574168062652E-002
  2.772502397054821E-002  2.376430626046989E-002  1.980358855039158E-002
  1.584287084031326E-002  1.188215313023495E-002  7.921435420156629E-003
  3.960717710078312E-003  0.000000000000000E+000  3.960717710078315E-002
  3.564645939070483E-002  3.168574168062652E-002  2.772502397054821E-002
  2.376430626046989E-002  1.980358855039158E-002  1.584287084031326E-002
  1.188215313023495E-002  7.921435420156629E-003  3.960717710078312E-003
  0.000000000000000E+000  3.960717710078315E-002  3.564645939070483E-002
  3.168574168062652E-002  2.772502397054821E-002  2.376430626046989E-002
  1.980358855039158E-002  1.584287084031326E-002  1.188215313023495E-002
  7.921435420156629E-003  3.960717710078312E-003  0.000000000000000E+000
  3.960717710078315E-002  3.564645939070483E-002  3.168574168062652E-002
  2.772502397054821E-002  2.376430626046989E-002  1.980358855039158E-002
  1.584287084031326E-002  1.188215313023495E-002  7.921435420156629E-003
  3.960717710078312E-003  0.000000000000000E+000  3.960717710078315E-002
  3.564645939070483E-002  3.168574168062652E-002  2.772502397054821E-002
  2.376430626046989E-002  1.980358855039158E-002  1.584287084031326E-002
  1.188215313023495E-002  7.921435420156629E-003  3.960717710078312E-003
  0.000000000000000E+000  3.960717710078315E-002  3.564645939070483E-002
  3.168574168062652E-002  2.772502397054821E-002  2.376430626046989E-002
  1.980358855039158E-002  1.584287084031326E-002  1.188215313023495E-002
  7.921435420156629E-003  3.960717710078312E-003  0.000000000000000E+000
  3.960717710078315E-002  3.564645939070483E-002  3.168574168062652E-002
  2.772502397054821E-002  2.376430626046989E-002  1.980358855039158E-002
  1.584287084031326E-002  1.188215313023495E-002  7.921435420156629E-003
  3.960717710078312E-003  0.000000000000000E+000  3.960717710078315E-002
  3.564645939070483E-002  3.168574168062652E-002  2.772502397054821E-002
  2.376430626046989E-002  1.980358855039158E-002  1.584287084031326E-002
  1.188215313023495E-002  7.921435420156629E-003  3.960717710078312E-003
  0.000000000000000E+000  3.960717710078315E-002  3.564645939070483E-002
  3.168574168062652E-002  2.772502397054821E-002  2.376430626046989E-002
  1.980358855039158E-002  1.584287084031326E-002  1.188215313023495E-002
  7.921435420156629E-003  3.960717710078312E-003  0.000000000000000E+000
  3.960717710078315E-002  3.564645939070483E-002  3.168574168062652E-002
  2.772502397054821E-002  2.376430626046989E-002  1.980358855039158E-002
  1.584287084031326E-002  1.188215313023495E-002  7.921435420156629E-003
  3.960717710078312E-003  0.000000000000000E+000  3.960717710078315E-002
  3.564645939070483E-002  3.168574168062652E-002  2.772502397054821E-002
  2.376430626046989E-002  1.980358855039158E-002  1.584287084031326E-002
  1.188215313023495E-002  7.921435420156629E-003  3.960717710078312E-003
  0.000000000000000E+000  3.960717710078315E-002  3.564645939070483E-002
  3.168574168062652E-002  2.772502397054821E-002  2.376430626046989E-002
  1.980358855039158E-002  1.584287084031326E-002  1.188215313023495E-002
  7.921435420156629E-003  3.960717710078312E-003  0.000000000000000E+000
  3.960717710078315E-002  3.564645939070483E-002  3.168574168062652E-002
  2.772502397054821E-002  2.376430626046989E-002  1.980358855039158E-002
  1.584287084031326E-002  1.188215313023495E-002  7.921435420156629E-003
  3.960717710078312E-003  0.000000000000000E+000  3.960717710078315E-002
  3.564645939070483E-002  3.168574168062652E-002  2.772502397054821E-002
  2.376430626046989E-002  1.980358855039158E-002  1.584287084031326E-002
  1.188215313023495E-002  7.921435420156629E-003  3.960717710078312E-003
  0.000000000000000E+000  3.960717710078315E-002  3.564645939070483E-002
  3.168574168062652E-002  2.772502397054821E-002  2.376430626046989E-002
  1.980358855039158E-002  1.584287084031326E-002  1.188215313023495E-002
  7.921435420156629E-003  3.960717710078312E-003  0.000000000000000E+000
  3.960717710078315E-002  3.564645939070483E-002  3.168574168062652E-002
  2.772502397054821E-002  2.376430626046989E-002  1.980358855039158E-002
  1.584287084031326E-002  1.188215313023495E-002  7.921435420156629E-003
  3.960717710078312E-003  0.000000000000000E+000  3.960717710078315E-002
  3.564645939070483E-002  3.168574168062652E-002  2.772502397054821E-002
  2.376430626046989E-002  1.980358855039158E-002  1.584287084031326E-002
  1.188215313023495E-002  7.921435420156629E-003  3.960717710078312E-003
  0.000000000000000E+000  3.960717710078315E-002  3.564645939070483E-002
  3.168574168062652E-002  2.772502397054821E-002  2.376430626046989E-002
  1.980358855039158E-002  1.584287084031326E-002  1.188215313023495E-002
  7.921435420156629E-003  3.960717710078312E-003  0.000000000000000E+000
  3.960717710078315E-002  3.564645939070483E-002  3.168574168062652E-002
  2.772502397054821E-002  2.376430626046989E-002  1.980358855039158E-002
  1.584287084031326E-002  1.188215313023495E-002  7.921435420156629E-003
  3.960717710078312E-003  0.000000000000000E+000  3.960717710078315E-002
  3.564645939070483E-002  3.168574168062652E-002  2.772502397054821E-002
  2.376430626046989E-002  1.980358855039158E-002  1.584287084031326E-002
  1.188215313023495E-002  7.921435420156629E-003  3.960717710078312E-003
  0.000000000000000E+000  3.960717710078315E-002  3.564645939070483E-002
  3.168574168062652E-002  2.772502397054821E-002  2.376430626046989E-002
  1.980358855039158E-002  1.584287084031326E-002  1.188215313023495E-002
  7.921435420156629E-003  3.960717710078312E-003  0.000000000000000E+000
  3.960717710078315E-002  3.564645939070483E-002  3.168574168062652E-002
  2.772502397054821E-002  2.376430626046989E-002  1.980358855039158E-002
  1.584287084031326E-002  1.188215313023495E-002  7.921435420156629E-003
  3.960717710078312E-003  0.000000000000000E+000  3.960717710078315E-002
  3.564645939070483E-002  3.168574168062652E-002  2.772502397054821E-002
  2.376430626046989E-002  1.980358855039158E-002  1.584287084031326E-002
  1.188215313023495E-002  7.921435420156629E-003  3.960717710078312E-003
  0.000000000000000E+000  3.960717710078315E-002  3.564645939070483E-002
  3.168574168062652E-002  2.772502397054821E-002  2.376430626046989E-002
  1.980358855039158E-002  1.584287084031326E-002  1.188215313023495E-002
  7.921435420156629E-003  3.960717710078312E-003  0.000000000000000E+000
  3.960717710078315E-002  3.564645939070483E-002  3.168574168062652E-002
  2.772502397054821E-002  2.376430626046989E-002  1.980358855039158E-002
  1.584287084031326E-002  1.188215313023495E-002  7.921435420156629E-003
  3.960717710078312E-003  0.000000000000000E+000  3.960717710078315E-002
  3.564645939070483E-002  3.168574168062652E-002  2.772502397054821E-002
  2.376430626046989E-002  1.980358855039158E-002  1.584287084031326E-002
  1.188215313023495E-002  7.921435420156629E-003  3.960717710078312E-003
  0.000000000000000E+000
 -1.289144233985426E-003  1.325509482786590E-002  3.057541622522141E-002
  4.864308779929442E-002  6.631114450473770E-002  8.266674479184186E-002
  9.703202461985273E-002  0.109043557062889       0.118526970001962     
  0.125271361057992       1.514469534617470E-003  2.565593192776161E-002
  5.444944416409456E-002  8.448603950024387E-002  0.113856841156044     
  0.141077289501712       0.165074946727593       0.185253625117297     
  0.201341799908164       0.213258289023329       1.601484541898714E-002
  4.987050654696695E-002  8.861430426287212E-002  0.128533190091758     
  0.167377009548487       0.203407081709391       0.235389992454446     
  0.262564548732077       0.284408011190083       0.300111816666266     
  4.885553078501527E-002  9.627990901327070E-002  0.144554905740212     
  0.192115841752343       0.237445274741960       0.279190489667025     
  0.316284199288758       0.347973723392825       0.373589779395744     
  0.391526334904997       0.105265680105330       0.174760785058134     
  0.236173769773775       0.292429756741913       0.343857996409060     
  0.390210985685448       0.431079199883151       0.465914852569329     
  0.493940331581119       0.513146218898656       0.186655997143994     
  0.289660387960083       0.371664156726766       0.441912617710665     
  0.503284104871257       0.556909212435805       0.603284090833007     
  0.642481851314440       0.673929406264277       0.695256234101139     
  0.291826258488888       0.440651565344812       0.552582223217756     
  0.644586356046549       0.722615329890067       0.789344458047583     
  0.846122425161986       0.893533399219178       0.931241196277725     
  0.956754744503822       0.420154092331330       0.626884188236352     
  0.778049799519154       0.899651970961445        1.00107183633994     
   1.08678295566258        1.15921914874805        1.21945574520095     
   1.26733159252065        1.30010705270261       0.570998118791442     
  0.846823129217194        1.04535102296629        1.20291179767791     
   1.33302919967129        1.44230030510980        1.53426502958055     
   1.61060417118116        1.67131048209085        1.71324195415950     
  0.740503072404809        1.09447779515785        1.34686931279955     
   1.54549229840972        1.70826697734276        1.84397242496719     
   1.95735911215498        2.05081422741749        2.12466024324770     
   2.17551141392655       0.924157727369354        1.36292989666084     
   1.67372556495705        1.91670441863893        2.11447152290380     
   2.27813450555194        2.41375691928911        2.52450199741351     
   2.61108069284249        2.66995200323610        1.11868741656720     
   1.64700104701169        2.01918732651310        2.30849611487464     
   2.54251276512189        2.73484258206678        2.89298361940081     
   3.02095851400334        3.11990226426922        3.18612492737621     
   1.32183824277950        1.94306292581489        2.37849184918575     
   2.71515858192791        2.98593315877382        3.20709523038737     
   3.38768640281537        3.53265234134257        3.64359677148422     
   3.71674220238998        1.53191210799428        2.24841140628031     
   2.74809672608667        3.13240338844437        3.43976549181511     
   3.68931689864906        3.89177672904416        4.05310936065040     
   4.17546699209821        4.25508282916524        1.74897065510298     
   2.56260358462879        3.12683174416728        3.55822370315978     
   3.90112889286274        4.17775938954996        4.40067568785761     
   4.57699926655600        4.70956520505058        4.79479421191838     
   1.97631026611757        2.88920261533907        3.51762028846554     
   3.99450179919878        4.37071819267329        4.67193052897941     
   4.91279839235254        5.10180687547250        5.24266346187225     
   5.33220330203824        2.21812985416051        3.23226554421430     
   3.92329513259230        4.44257327623328        4.84847088383996     
   5.17064600762766        5.42615992969387        5.62503601480966     
   5.77198488131825        5.86442694793005        2.46089614835245     
   3.57143458619805        4.31865397475745        4.87361350292829     
   5.30280762266875        5.64019844033562        5.90539268391215     
   6.11002376170742        6.25988344510030        6.35317727459867     
   2.66138746001512        3.84388850891885        4.62782803682534     
   5.20235652866329        5.64149508924565        5.98306615983993     
   6.24888323214268        6.45196770477514        6.59909507666732     
   6.68946664596232        2.76950688067266        3.97748235315014     
   4.76467318927201        5.33313671711707        5.76249558136956     
   6.09338135443757        6.34904750558995        6.54323667983815     
   6.68312959978171        6.76854451624967        2.72788075389349     
   3.88723877666676        4.62500698199802        5.14728465732710     
   5.53555196382380        5.83103130235813        6.05683011069784     
   6.22615908748656        6.34572348024651        6.41618955240466     
   2.52917201347071        3.55637365423077        4.18767167787875     
   4.62451594198548        4.94462565966125        5.18582919093881     
   5.36852599815327        5.50384887488370        5.59698021967145     
   5.64841679880995        2.17913973858422        2.99456853988338     
   3.47662714332790        3.80538602908674        4.04503510245742     
   4.22523130865322        4.36154165355170        4.46239036779819     
   4.53188715931843        4.57111446184474        1.66385210937543     
   2.21385764346321        2.53462485251075        2.75389360578242     
   2.91430851656453        3.03529644478908        3.12708855855096     
   3.19545992772308        3.24414459452947        3.27878568190408     
   1.01102471348371        1.31898505733576        1.50027274884314     
   1.62488627210048        1.71636538050644        1.78551558844592     
   1.83805606254152        1.87720284740570        1.90476696295792     
   1.92119989990316     
  0.000000000000000E+000  0.000000000000000E+000  0.000000000000000E+000
  0.000000000000000E+000  0.000000000000000E+000  0.000000000000000E+000
  0.000000000000000E+000  0.000000000000000E+000  0.000000000000000E+000
  0.000000000000000E+000  0.000000000000000E+000  0.000000000000000E+000
  0.000000000000000E+000  0.000000000000000E+000  0.000000000000000E+000
  0.000000000000000E+000  0.000000000000000E+000  0.000000000000000E+000
  0.000000000000000E+000  0.000000000000000E+000  0.000000000000000E+000
  0.000000000000000E+000  0.000000000000000E+000  0.000000000000000E+000
  0.000000000000000E+000  0.000000000000000E+000  0.000000000000000E+000
  0.000000000000000E+000  0.000000000000000E+000  0.000000000000000E+000
  0.000000000000000E+000  0.000000000000000E+000  0.000000000000000E+000
  0.000000000000000E+000  0.000000000000000E+000  0.000000000000000E+000
  0.000000000000000E+000  0.000000000000000E+000  0.000000000000000E+000
  0.000000000000000E+000  0.000000000000000E+000  0.000000000000000E+000
  0.000000000000000E+000  0.000000000000000E+000  0.000000000000000E+000
  0.000000000000000E+000  0.000000000000000E+000  0.000000000000000E+000
  0.000000000000000E+000  0.000000000000000E+000  0.000000000000000E+000
  0.000000000000000E+000  0.000000000000000E+000  0.000000000000000E+000
  0.000000000000000E+000  0.000000000000000E+000  0.000000000000000E+000
  0.000000000000000E+000  0.000000000000000E+000  0.000000000000000E+000
  0.000000000000000E+000  0.000000000000000E+000  0.000000000000000E+000
  0.000000000000000E+000  0.000000000000000E+000  0.000000000000000E+000
  0.000000000000000E+000  0.000000000000000E+000  0.000000000000000E+000
  0.000000000000000E+000  0.000000000000000E+000  0.000000000000000E+000
  0.000000000000000E+000  0.000000000000000E+000  0.000000000000000E+000
  0.000000000000000E+000  0.000000000000000E+000  0.000000000000000E+000
  0.000000000000000E+000  0.000000000000000E+000  0.000000000000000E+000
  0.000000000000000E+000  0.000000000000000E+000  0.000000000000000E+000
  0.000000000000000E+000  0.000000000000000E+000  0.000000000000000E+000
  0.000000000000000E+000  0.000000000000000E+000  0.000000000000000E+000
  0.000000000000000E+000  0.000000000000000E+000  0.000000000000000E+000
  0.000000000000000E+000  0.000000000000000E+000  0.000000000000000E+000
  0.000000000000000E+000  0.000000000000000E+000  0.000000000000000E+000
  0.000000000000000E+000  0.000000000000000E+000  0.000000000000000E+000
  0.000000000000000E+000  0.000000000000000E+000  0.000000000000000E+000
  0.000000000000000E+000  0.000000000000000E+000  0.000000000000000E+000
  0.000000000000000E+000  0.000000000000000E+000  0.000000000000000E+000
  0.000000000000000E+000  0.000000000000000E+000  0.000000000000000E+000
  0.000000000000000E+000  0.000000000000000E+000  0.000000000000000E+000