 Title = "Wing and Wake"
 VARIABLES = "X" "Y" "Z" "GAM" "skew"
 Zone I=   11 J=   26 K=1  T="Blade"
 DATAPACKING=BLOCK
 VARLOCATION=([4]=CELLCENTERED,[5]=CELLCENTERED)
 -0.155835654774313      -0.159024768241196      -0.162213881708079     
 -0.165402995174962      -0.168592108641845      -0.171781222108728     
 -0.174970335575611      -0.178159449042493      -0.181348562509376     
 -0.184537675976259      -0.187726789443142      -0.159535471297911     
 -0.162724584764795      -0.165913698231677      -0.169102811698560     
 -0.172291925165443      -0.175481038632326      -0.178670152099208     
 -0.181859265566091      -0.185048379032974      -0.188237492499857     
 -0.191426605966740      -0.170576572551965      -0.173765686018848     
 -0.176954799485730      -0.180143912952613      -0.183333026419496     
 -0.186522139886379      -0.189711253353262      -0.192900366820145     
 -0.196089480287027      -0.199278593753910      -0.202467707220793     
 -0.188784833774063      -0.191973947240946      -0.195163060707829     
 -0.198352174174712      -0.201541287641595      -0.204730401108477     
 -0.207919514575360      -0.211108628042243      -0.214297741509126     
 -0.217486854976009      -0.220675968442891      -0.213873099807645     
 -0.217062213274528      -0.220251326741411      -0.223440440208294     
 -0.226629553675177      -0.229818667142060      -0.233007780608943     
 -0.236196894075826      -0.239386007542708      -0.242575121009591     
 -0.245764234476474      -0.245445713710359      -0.248634827177243     
 -0.251823940644125      -0.255013054111008      -0.258202167577891     
 -0.261391281044774      -0.264580394511656      -0.267769507978539     
 -0.270958621445422      -0.274147734912305      -0.277336848379188     
 -0.283004756500393      -0.286193869967276      -0.289382983434159     
 -0.292572096901041      -0.295761210367924      -0.298950323834808     
 -0.302139437301690      -0.305328550768572      -0.308517664235455     
 -0.311706777702338      -0.314895891169221      -0.325957899636263     
 -0.329147013103145      -0.332336126570029      -0.335525240036912     
 -0.338714353503794      -0.341903466970677      -0.345092580437560     
 -0.348281693904443      -0.351470807371325      -0.354659920838208     
 -0.357849034305092      -0.373627746391753      -0.376816859858637     
 -0.380005973325519      -0.383195086792402      -0.386384200259285     
 -0.389573313726167      -0.392762427193049      -0.395951540659933     
 -0.399140654126816      -0.402329767593699      -0.405518881060581     
 -0.425262514806942      -0.428451628273825      -0.431640741740709     
 -0.434829855207591      -0.438018968674474      -0.441208082141356     
 -0.444397195608239      -0.447586309075123      -0.450775422542005     
 -0.453964536008887      -0.457153649475771      -0.480047893738810     
 -0.483237007205692      -0.486426120672574      -0.489615234139457     
 -0.492804347606340      -0.495993461073224      -0.499182574540105     
 -0.502371688006989      -0.505560801473871      -0.508749914940754     
 -0.511939028407637      -0.537119885034397      -0.540308998501280     
 -0.543498111968164      -0.546687225435044      -0.549876338901928     
 -0.553065452368812      -0.556254565835694      -0.559443679302577     
 -0.562632792769459      -0.565821906236342      -0.569011019703225     
 -0.595578429297821      -0.598767542764704      -0.601956656231586     
 -0.605145769698470      -0.608334883165352      -0.611523996632234     
 -0.614713110099118      -0.617902223566001      -0.621091337032883     
 -0.624280450499766      -0.627469563966649      -0.654501600364606     
 -0.657690713831487      -0.660879827298369      -0.664068940765252     
 -0.667258054232135      -0.670447167699019      -0.673636281165902     
 -0.676825394632782      -0.680014508099669      -0.683203621566550     
 -0.686392735033432      -0.712960144628027      -0.716149258094910     
 -0.719338371561794      -0.722527485028675      -0.725716598495558     
 -0.728905711962443      -0.732094825429324      -0.735283938896208     
 -0.738473052363089      -0.741662165829971      -0.744851279296857     
 -0.770032135923616      -0.773221249390498      -0.776410362857382     
 -0.779599476324264      -0.782788589791148      -0.785977703258031     
 -0.789166816724912      -0.792355930191796      -0.795545043658678     
 -0.798734157125560      -0.801923270592445      -0.824817514855482     
 -0.828006628322365      -0.831195741789247      -0.834384855256131     
 -0.837573968723013      -0.840763082189896      -0.843952195656779     
 -0.847141309123663      -0.850330422590545      -0.853519536057428     
 -0.856708649524312      -0.876452283270672      -0.879641396737554     
 -0.882830510204437      -0.886019623671320      -0.889208737138203     
 -0.892397850605087      -0.895586964071969      -0.898776077538851     
 -0.901965191005734      -0.905154304472616      -0.908343417939499     
 -0.924122130026161      -0.927311243493043      -0.930500356959927     
 -0.933689470426809      -0.936878583893693      -0.940067697360576     
 -0.943256810827457      -0.946445924294341      -0.949635037761225     
 -0.952824151228108      -0.956013264694989      -0.967075273162032     
 -0.970264386628915      -0.973453500095796      -0.976642613562681     
 -0.979831727029563      -0.983020840496445      -0.986209953963328     
 -0.989399067430213      -0.992588180897094      -0.995777294363978     
 -0.998966407830859       -1.00463431595207       -1.00782342941895     
  -1.01101254288583       -1.01420165635271       -1.01739076981960     
  -1.02057988328648       -1.02376899675336       -1.02695811022024     
  -1.03014722368713       -1.03333633715401       -1.03652545062089     
  -1.03620692985478       -1.03939604332166       -1.04258515678854     
  -1.04577427025543       -1.04896338372231       -1.05215249718919     
  -1.05534161065608       -1.05853072412296       -1.06171983758984     
  -1.06490895105672       -1.06809806452361       -1.06129519588836     
  -1.06448430935524       -1.06767342282213       -1.07086253628901     
  -1.07405164975589       -1.07724076322278       -1.08042987668966     
  -1.08361899015654       -1.08680810362342       -1.08999721709031     
  -1.09318633055719       -1.07950345711046       -1.08269257057734     
  -1.08588168404422       -1.08907079751111       -1.09225991097799     
  -1.09544902444487       -1.09863813791176       -1.10182725137864     
  -1.10501636484552       -1.10820547831240       -1.11139459177929     
  -1.09054455836451       -1.09373367183139       -1.09692278529828     
  -1.10011189876516       -1.10330101223204       -1.10649012569893     
  -1.10967923916581       -1.11286835263269       -1.11605746609958     
  -1.11924657956646       -1.12243569303334       -1.09424437488811     
  -1.09743348835499       -1.10062260182188       -1.10381171528876     
  -1.10700082875564       -1.11018994222253       -1.11337905568941     
  -1.11656816915629       -1.11975728262317       -1.12294639609006     
  -1.12613550955694     
 -0.216197913437612      -0.197839134324708      -0.179480355211803     
 -0.161121576098899      -0.142762796985995      -0.124404017873090     
 -0.106045238760186      -8.768645964728142E-002 -6.932768053437735E-002
 -5.096890142147253E-002 -3.261012230856838E-002 -0.216840610570566     
 -0.198481831457662      -0.180123052344757      -0.161764273231854     
 -0.143405494118949      -0.125046715006044      -0.106687935893140     
 -8.832915678023574E-002 -6.997037766733138E-002 -5.161159855442705E-002
 -3.325281944152241E-002 -0.218758566251713      -0.200399787138809     
 -0.182041008025904      -0.163682228913000      -0.145323449800096     
 -0.126964670687191      -0.108605891574287      -9.024711246138280E-002
 -7.188833334847849E-002 -5.352955423557378E-002 -3.517077512266958E-002
 -0.221921533174230      -0.203562754061326      -0.185203974948421     
 -0.166845195835517      -0.148486416722613      -0.130127637609708     
 -0.111768858496804      -9.341007938389982E-002 -7.505130027099534E-002
 -5.669252115809079E-002 -3.833374204518684E-002 -0.226279629460284     
 -0.207920850347380      -0.189562071234475      -0.171203292121571     
 -0.152844513008667      -0.134485733895763      -0.116126954782858     
 -9.776817566995399E-002 -7.940939655704948E-002 -6.105061744414541E-002
 -4.269183833124091E-002 -0.231764125328044      -0.213405346215140     
 -0.195046567102235      -0.176687787989331      -0.158329008876427     
 -0.139970229763522      -0.121611450650618      -0.103252671537714     
 -8.489389242480908E-002 -6.653511331190443E-002 -4.817633419900012E-002
 -0.238288527001395      -0.219929747888491      -0.201570968775587     
 -0.183212189662683      -0.164853410549778      -0.146494631436874     
 -0.128135852323970      -0.109777073211065      -9.141829409816110E-002
 -7.305951498525645E-002 -5.470073587235206E-002 -0.245749940768462     
 -0.227391161655557      -0.209032382542653      -0.190673603429749     
 -0.172314824316844      -0.153956045203940      -0.135597266091036     
 -0.117238486978132      -9.887970786522660E-002 -8.052092875232253E-002
 -6.216214963941837E-002 -0.254030695676903      -0.235671916563998     
 -0.217313137451094      -0.198954358338190      -0.180595579225286     
 -0.162236800112381      -0.143878020999477      -0.125519241886573     
 -0.107160462773668      -8.880168366076376E-002 -7.044290454785970E-002
 -0.263000199275130      -0.244641420162226      -0.226282641049322     
 -0.207923861936417      -0.189565082823513      -0.171206303710609     
 -0.152847524597704      -0.134488745484800      -0.116129966371896     
 -9.777118725899131E-002 -7.941240814608691E-002 -0.272516997133278     
 -0.254158218020374      -0.235799438907469      -0.217440659794566     
 -0.199081880681661      -0.180723101568757      -0.162364322455852     
 -0.144005543342947      -0.125646764230044      -0.107287985117139     
 -8.892920600423464E-002 -0.282431003664063      -0.264072224551159     
 -0.245713445438255      -0.227354666325350      -0.208995887212446     
 -0.190637108099542      -0.172278328986638      -0.153919549873733     
 -0.135560770760828      -0.117201991647925      -9.884321253502019E-002
 -0.292585869062156      -0.274227089949251      -0.255868310836346     
 -0.237509531723443      -0.219150752610539      -0.200791973497634     
 -0.182433194384729      -0.164074415271825      -0.145715636158921     
 -0.127356857046016      -0.108998077933112      -0.302821445034005     
 -0.284462665921099      -0.266103886808196      -0.247745107695291     
 -0.229386328582387      -0.211027549469483      -0.192668770356577     
 -0.174309991243675      -0.155951212130770      -0.137592433017865     
 -0.119233653904961      -0.312976310432096      -0.294617531319192     
 -0.276258752206288      -0.257899973093383      -0.239541193980479     
 -0.221182414867576      -0.202823635754671      -0.184464856641765     
 -0.166106077528861      -0.147747298415957      -0.129388519303053     
 -0.322890316962882      -0.304531537849977      -0.286172758737073     
 -0.267813979624170      -0.249455200511265      -0.231096421398360     
 -0.212737642285456      -0.194378863172552      -0.176020084059647     
 -0.157661304946743      -0.139302525833838      -0.332407114821030     
 -0.314048335708126      -0.295689556595221      -0.277330777482317     
 -0.258971998369412      -0.240613219256508      -0.222254440143603     
 -0.203895661030699      -0.185536881917795      -0.167178102804890     
 -0.148819323691987      -0.341376618419257      -0.323017839306352     
 -0.304659060193447      -0.286300281080544      -0.267941501967639     
 -0.249582722854735      -0.231223943741830      -0.212865164628926     
 -0.194506385516022      -0.176147606403118      -0.157788827290214     
 -0.349657373327697      -0.331298594214793      -0.312939815101889     
 -0.294581035988985      -0.276222256876081      -0.257863477763177     
 -0.239504698650272      -0.221145919537368      -0.202787140424464     
 -0.184428361311558      -0.166069582198655      -0.357118787094765     
 -0.338760007981859      -0.320401228868956      -0.302042449756051     
 -0.283683670643148      -0.265324891530241      -0.246966112417340     
 -0.228607333304434      -0.210248554191529      -0.191889775078625     
 -0.173530995965721      -0.363643188768115      -0.345284409655212     
 -0.326925630542307      -0.308566851429402      -0.290208072316499     
 -0.271849293203594      -0.253490514090690      -0.235131734977785     
 -0.216772955864882      -0.198414176751976      -0.180055397639072     
 -0.369127684635876      -0.350768905522972      -0.332410126410065     
 -0.314051347297162      -0.295692568184259      -0.277333789071354     
 -0.258975009958449      -0.240616230845546      -0.222257451732642     
 -0.203898672619735      -0.185539893506831      -0.373485780921929     
 -0.355127001809025      -0.336768222696121      -0.318409443583217     
 -0.300050664470312      -0.281691885357408      -0.263333106244504     
 -0.244974327131599      -0.226615548018695      -0.208256768905791     
 -0.189897989792885      -0.376648747844447      -0.358289968731544     
 -0.339931189618638      -0.321572410505734      -0.303213631392830     
 -0.284854852279924      -0.266496073167021      -0.248137294054115     
 -0.229778514941212      -0.211419735828306      -0.193060956715402     
 -0.378566703525593      -0.360207924412690      -0.341849145299787     
 -0.323490366186880      -0.305131587073976      -0.286772807961071     
 -0.268414028848166      -0.250055249735263      -0.231696470622359     
 -0.213337691509454      -0.194978912396550      -0.379209400658548     
 -0.360850621545642      -0.342491842432740      -0.324133063319834     
 -0.305774284206930      -0.287415505094026      -0.269056725981123     
 -0.250697946868217      -0.232339167755313      -0.213980388642408     
 -0.195621609529504     
  3.960717710078315E-002  3.564645939070483E-002  3.168574168062652E-002
  2.772502397054821E-002  2.376430626046989E-002  1.980358855039158E-002
  1.584287084031326E-002  1.188215313023495E-002  7.921435420156629E-003
  3.960717710078312E-003  0.000000000000000E+000  3.960717710078315E-002
  3.564645939070483E-002  3.168574168062652E-002  2.772502397054821E-002
  2.376430626046989E-002  1.980358855039158E-002  1.584287084031326E-002
  1.188215313023495E-002  7.921435420156629E-003  3.960717710078312E-003
  0.000000000000000E+000  3.960717710078315E-002  3.564645939070483E-002
  3.168574168062652E-002  2.772502397054821E-002  2.376430626046989E-002
  1.980358855039158E-002  1.584287084031326E-002  1.188215313023495E-002
  7.921435420156629E-003  3.960717710078312E-003  0.000000000000000E+000
  3.960717710078315E-002  3.564645939070483E-002  3.168574168062652E-002
  2.772502397054821E-002  2.376430626046989E-002  1.980358855039158E-002
  1.584287084031326E-002  1.188215313023495E-002  7.921435420156629E-003
  3.960717710078312E-003  0.000000000000000E+000  3.960717710078315E-002
  3.564645939070483E-002  3.168574168062652E-002  2.772502397054821E-002
  2.376430626046989E-002  1.980358855039158E-002  1.584287084031326E-002
  1.188215313023495E-002  7.921435420156629E-003  3.960717710078312E-003
  0.000000000000000E+000  3.960717710078315E-002  3.564645939070483E-002
  3.168574168062652E-002  2.772502397054821E-002  2.376430626046989E-002
  1.980358855039158E-002  1.584287084031326E-002  1.188215313023495E-002
  7.921435420156629E-003  3.960717710078312E-003  0.000000000000000E+000
  3.960717710078315E-002  3.564645939070483E-002  3.168574168062652E-002
  2.772502397054821E-002  2.376430626046989E-002  1.980358855039158E-002
  1.584287084031326E-002  1.188215313023495E-002  7.921435420156629E-003
  3.960717710078312E-003  0.000000000000000E+000  3.960717710078315E-002
  3.564645939070483E-002  3.168574168062652E-002  2.772502397054821E-002
  2.376430626046989E-002  1.980358855039158E-002  1.584287084031326E-002
  1.188215313023495E-002  7.921435420156629E-003  3.960717710078312E-003
  0.000000000000000E+000  3.960717710078315E-002  3.564645939070483E-002
  3.168574168062652E-002  2.772502397054821E-002  2.376430626046989E-002
  1.980358855039158E-002  1.584287084031326E-002  1.188215313023495E-002
  7.921435420156629E-003  3.960717710078312E-003  0.000000000000000E+000
  3.960717710078315E-002  3.564645939070483E-002  3.168574168062652E-002
  2.772502397054821E-002  2.376430626046989E-002  1.980358855039158E-002
  1.584287084031326E-002  1.188215313023495E-002  7.921435420156629E-003
  3.960717710078312E-003  0.000000000000000E+000  3.960717710078315E-002
  3.564645939070483E-002  3.168574168062652E-002  2.772502397054821E-002
  2.376430626046989E-002  1.980358855039158E-002  1.584287084031326E-002
  1.188215313023495E-002  7.921435420156629E-003  3.960717710078312E-003
  0.000000000000000E+000  3.960717710078315E-002  3.564645939070483E-002
  3.168574168062652E-002  2.772502397054821E-002  2.376430626046989E-002
  1.980358855039158E-002  1.584287084031326E-002  1.188215313023495E-002
  7.921435420156629E-003  3.960717710078312E-003  0.000000000000000E+000
  3.960717710078315E-002  3.564645939070483E-002  3.168574168062652E-002
  2.772502397054821E-002  2.376430626046989E-002  1.980358855039158E-002
  1.584287084031326E-002  1.188215313023495E-002  7.921435420156629E-003
  3.960717710078312E-003  0.000000000000000E+000  3.960717710078315E-002
  3.564645939070483E-002  3.168574168062652E-002  2.772502397054821E-002
  2.376430626046989E-002  1.980358855039158E-002  1.584287084031326E-002
  1.188215313023495E-002  7.921435420156629E-003  3.960717710078312E-003
  0.000000000000000E+000  3.960717710078315E-002  3.564645939070483E-002
  3.168574168062652E-002  2.772502397054821E-002  2.376430626046989E-002
  1.980358855039158E-002  1.584287084031326E-002  1.188215313023495E-002
  7.921435420156629E-003  3.960717710078312E-003  0.000000000000000E+000
  3.960717710078315E-002  3.564645939070483E-002  3.168574168062652E-002
  2.772502397054821E-002  2.376430626046989E-002  1.980358855039158E-002
  1.584287084031326E-002  1.188215313023495E-002  7.921435420156629E-003
  3.960717710078312E-003  0.000000000000000E+000  3.960717710078315E-002
  3.564645939070483E-002  3.168574168062652E-002  2.772502397054821E-002
  2.376430626046989E-002  1.980358855039158E-002  1.584287084031326E-002
  1.188215313023495E-002  7.921435420156629E-003  3.960717710078312E-003
  0.000000000000000E+000  3.960717710078315E-002  3.564645939070483E-002
  3.168574168062652E-002  2.772502397054821E-002  2.376430626046989E-002
  1.980358855039158E-002  1.584287084031326E-002  1.188215313023495E-002
  7.921435420156629E-003  3.960717710078312E-003  0.000000000000000E+000
  3.960717710078315E-002  3.564645939070483E-002  3.168574168062652E-002
  2.772502397054821E-002  2.376430626046989E-002  1.980358855039158E-002
  1.584287084031326E-002  1.188215313023495E-002  7.921435420156629E-003
  3.960717710078312E-003  0.000000000000000E+000  3.960717710078315E-002
  3.564645939070483E-002  3.168574168062652E-002  2.772502397054821E-002
  2.376430626046989E-002  1.980358855039158E-002  1.584287084031326E-002
  1.188215313023495E-002  7.921435420156629E-003  3.960717710078312E-003
  0.000000000000000E+000  3.960717710078315E-002  3.564645939070483E-002
  3.168574168062652E-002  2.772502397054821E-002  2.376430626046989E-002
  1.980358855039158E-002  1.584287084031326E-002  1.188215313023495E-002
  7.921435420156629E-003  3.960717710078312E-003  0.000000000000000E+000
  3.960717710078315E-002  3.564645939070483E-002  3.168574168062652E-002
  2.772502397054821E-002  2.376430626046989E-002  1.980358855039158E-002
  1.584287084031326E-002  1.188215313023495E-002  7.921435420156629E-003
  3.960717710078312E-003  0.000000000000000E+000  3.960717710078315E-002
  3.564645939070483E-002  3.168574168062652E-002  2.772502397054821E-002
  2.376430626046989E-002  1.980358855039158E-002  1.584287084031326E-002
  1.188215313023495E-002  7.921435420156629E-003  3.960717710078312E-003
  0.000000000000000E+000  3.960717710078315E-002  3.564645939070483E-002
  3.168574168062652E-002  2.772502397054821E-002  2.376430626046989E-002
  1.980358855039158E-002  1.584287084031326E-002  1.188215313023495E-002
  7.921435420156629E-003  3.960717710078312E-003  0.000000000000000E+000
  3.960717710078315E-002  3.564645939070483E-002  3.168574168062652E-002
  2.772502397054821E-002  2.376430626046989E-002  1.980358855039158E-002
  1.584287084031326E-002  1.188215313023495E-002  7.921435420156629E-003
  3.960717710078312E-003  0.000000000000000E+000  3.960717710078315E-002
  3.564645939070483E-002  3.168574168062652E-002  2.772502397054821E-002
  2.376430626046989E-002  1.980358855039158E-002  1.584287084031326E-002
  1.188215313023495E-002  7.921435420156629E-003  3.960717710078312E-003
  0.000000000000000E+000
  6.741454740910766E-002  0.118941706657717       0.171071099157418     
  0.223754767524499       0.275046270223503       0.322655795634160     
  0.364864381891896       0.400510106560751       0.429869918155914     
  0.451818564247380       0.117013167001970       0.205228948483640     
  0.293799203341147       0.383525474406859       0.471342926243370     
  0.553225203284660       0.626098628444226       0.687958982634204     
  0.739199717754701       0.778894022457486       0.172412431377112     
  0.296680457542295       0.419255517010078       0.544051525910718     
  0.668098599064962       0.785668951782206       0.891418294017758     
  0.982036240555922        1.05680048424914        1.11190310103245     
  0.232396731236066       0.387216951683777       0.534412746785620     
  0.683660966932097       0.834969698607233       0.983171525925977     
   1.11973746561230        1.23825513031481        1.33482348928313     
   1.40250926346335       0.299221182359845       0.480212541604029     
  0.640627143476320       0.796565474904153       0.953585705878671     
   1.11094699591638        1.26038227150792        1.39420182952853     
   1.50569780603440        1.58254575181461       0.377426910013441     
  0.587167450910904       0.759074889851629       0.913808248883423     
   1.05871243690428        1.19603429995569        1.32443389739748     
   1.44100674500047        1.54061721282195        1.60949725701708     
  0.471704299232590       0.719042597062592       0.911040257584783     
   1.07429269526542        1.21776738218133        1.34509655962638     
   1.45743114730046        1.55405786509792        1.63169086732810     
   1.68195306372743       0.581628991489393       0.875120621794995     
   1.09508134887178        1.27606463367380        1.43019497864372     
   1.56282714819527        1.67629400101189        1.77095044793322     
   1.84506926814323        1.89307656151839       0.706827416163739     
   1.05457150175219        1.30914288334282        1.51415081272712     
   1.68536363170337        1.83012514109020        1.95205884684488     
   2.05241171640617        2.13010593706574        2.18010594737293     
  0.848256477819041        1.25857370002315        1.55422007285704     
   1.78884632094917        1.98216424217089        2.14349671892503     
   2.27758033790109        2.38642991801646        2.46966960103271     
   2.52292917986272        1.00580305874789        1.48676398361463     
   1.82950022361629        2.09858917126346        2.31796611862370     
   2.49916140688428        2.64830719882574        2.76839349556952     
   2.85968515541679        2.91799826538084        1.17808253624457     
   1.73665950411898        2.13139337358322        2.43881550121159     
   2.68753862120824        2.89151349931543        3.05828927867325     
   3.19173692599763        3.29264519360168        3.35689999245529     
   1.36267755498910        2.00455076733736        2.45523485511685     
   2.80402934704349        3.08450182694565        3.31315066098620     
   3.49902990261241        3.64695730065663        3.75827427665711     
   3.82891608948645        1.55757808393958        2.28713357746747     
   2.79647875817166        3.18842937497254        3.50182340307597     
   3.75589817570166        3.96133921200321        4.12399058271719     
   4.24580102739619        4.32281399312676        1.76233356372363     
   2.58303610042357        3.15261579033388        3.58827061042253     
   3.93449834377331        4.21351290349067        4.43780680988164     
   4.61439052851690        4.74594532434863        4.82877114598854     
   1.98020814760111        2.89565665565936        3.52623089440365     
   4.00490627638389        4.38250550588064        4.68461777737365     
   4.92581250052991        5.11447104853828        5.25418417980703     
   5.34172737652406        2.21750649651113        3.23181170019877     
   3.92318017290702        4.44280419130011        4.84896574451049     
   5.17124134704589        5.42660309619823        5.62498237979035     
   5.77100717866187        5.86208163077085        2.46446360634165     
   3.57640812738350        4.32444796080820        4.87998521354032     
   5.30967154984516        5.64750884259394        5.91306392092924     
   6.11789997223666        6.26773968142566        6.36073138660794     
   2.67561654904952        3.86327988188487        4.65001922410217     
   5.22638956793775        5.66692823000787        6.00959663997482     
   6.27622705366837        6.47984762821087        6.62725222262789     
   6.71766708133076        2.80286904229788        4.02295845930245     
   4.81689266657938        5.38996718172097        5.82291058763410     
   6.15662981160691        6.41446045733619        6.61022192320872     
   6.75117179844675        6.83717027637692        2.77230896143299     
   3.94882360198492        4.69669368837070        5.22582448866277     
   5.61915233207281        5.91852835691554        6.14734873868297     
   6.31897244099801        6.44017243413894        6.51158503820020     
   2.57291065846840        3.61704482472152        4.25828620724567     
   4.70176756922294        5.02662816925094        5.27136259196276     
   5.45670420282458        5.59395080463985        5.68833904938296     
   5.74031785081093        2.21678099883111        3.04599596844078     
   3.53596817585378        3.86997098655861        4.11335508506116     
   4.29630942125837        4.43466792608371        4.53698521320921     
   4.60741073516662        4.64698737454184        1.69230848806757     
   2.25166682426094        2.57777152631986        2.80060030564709     
   2.96356484360382        3.08644234564731        3.17964195757305     
   3.24902849658250        3.29837570800088        3.33337372553931     
   1.02823110113345        1.34143607079826        1.52575120814273     
   1.65239799713705        1.74533946431501        1.81557642522081     
   1.86892808428643        1.90866052647251        1.93660191290596     
   1.95318539608819     
  0.000000000000000E+000  0.000000000000000E+000  0.000000000000000E+000
  0.000000000000000E+000  0.000000000000000E+000  0.000000000000000E+000
  0.000000000000000E+000  0.000000000000000E+000  0.000000000000000E+000
  0.000000000000000E+000  0.000000000000000E+000  0.000000000000000E+000
  0.000000000000000E+000  0.000000000000000E+000  0.000000000000000E+000
  0.000000000000000E+000  0.000000000000000E+000  0.000000000000000E+000
  0.000000000000000E+000  0.000000000000000E+000  0.000000000000000E+000
  0.000000000000000E+000  0.000000000000000E+000  0.000000000000000E+000
  0.000000000000000E+000  0.000000000000000E+000  0.000000000000000E+000
  0.000000000000000E+000  0.000000000000000E+000  0.000000000000000E+000
  0.000000000000000E+000  0.000000000000000E+000  0.000000000000000E+000
  0.000000000000000E+000  0.000000000000000E+000  0.000000000000000E+000
  0.000000000000000E+000  0.000000000000000E+000  0.000000000000000E+000
  0.000000000000000E+000  0.000000000000000E+000  0.000000000000000E+000
  0.000000000000000E+000  0.000000000000000E+000  0.000000000000000E+000
  0.000000000000000E+000  0.000000000000000E+000  0.000000000000000E+000
  0.000000000000000E+000  0.000000000000000E+000  0.000000000000000E+000
  0.000000000000000E+000  0.000000000000000E+000  0.000000000000000E+000
  0.000000000000000E+000  0.000000000000000E+000  0.000000000000000E+000
  0.000000000000000E+000  0.000000000000000E+000  0.000000000000000E+000
  0.000000000000000E+000  0.000000000000000E+000  0.000000000000000E+000
  0.000000000000000E+000  0.000000000000000E+000  0.000000000000000E+000
  0.000000000000000E+000  0.000000000000000E+000  0.000000000000000E+000
  0.000000000000000E+000  0.000000000000000E+000  0.000000000000000E+000
  0.000000000000000E+000  0.000000000000000E+000  0.000000000000000E+000
  0.000000000000000E+000  0.000000000000000E+000  0.000000000000000E+000
  0.000000000000000E+000  0.000000000000000E+000  0.000000000000000E+000
  0.000000000000000E+000  0.000000000000000E+000  0.000000000000000E+000
  0.000000000000000E+000  0.000000000000000E+000  0.000000000000000E+000
  0.000000000000000E+000  0.000000000000000E+000  0.000000000000000E+000
  0.000000000000000E+000  0.000000000000000E+000  0.000000000000000E+000
  0.000000000000000E+000  0.000000000000000E+000  0.000000000000000E+000
  0.000000000000000E+000  0.000000000000000E+000  0.000000000000000E+000
  0.000000000000000E+000  0.000000000000000E+000  0.000000000000000E+000
  0.000000000000000E+000  0.000000000000000E+000  0.000000000000000E+000
  0.000000000000000E+000  0.000000000000000E+000  0.000000000000000E+000
  0.000000000000000E+000  0.000000000000000E+000  0.000000000000000E+000
  0.000000000000000E+000  0.000000000000000E+000  0.000000000000000E+000
  0.000000000000000E+000  0.000000000000000E+000  0.000000000000000E+000