 Title = "Wing and Wake"
 VARIABLES = "X" "Y" "Z" "GAM" "skew"
 Zone I=   11 J=   26 K=1  T="Blade"
 DATAPACKING=BLOCK
 VARLOCATION=([4]=CELLCENTERED,[5]=CELLCENTERED)
 -0.234658825819741      -0.216872046601290      -0.199085267382839     
 -0.181298488164387      -0.163511708945936      -0.145724929727485     
 -0.127938150509033      -0.110151371290582      -9.236459207213077E-002
 -7.457781285367932E-002 -5.679103363522807E-002 -0.235778092842094     
 -0.217991313623642      -0.200204534405191      -0.182417755186740     
 -0.164630975968288      -0.146844196749837      -0.129057417531386     
 -0.111270638312935      -9.348385909448323E-002 -7.569707987603200E-002
 -5.791030065758059E-002 -0.239118242399591      -0.221331463181140     
 -0.203544683962688      -0.185757904744237      -0.167971125525786     
 -0.150184346307335      -0.132397567088883      -0.114610787870432     
 -9.682400865198054E-002 -7.903722943352919E-002 -6.125045021507791E-002
 -0.244626598338403      -0.226839819119952      -0.209053039901500     
 -0.191266260683049      -0.173479481464598      -0.155692702246146     
 -0.137905923027695      -0.120119143809244      -0.102332364590792     
 -8.454558537234109E-002 -6.675880615388977E-002 -0.252216290594842     
 -0.234429511376390      -0.216642732157939      -0.198855952939488     
 -0.181069173721036      -0.163282394502585      -0.145495615284134     
 -0.127708836065682      -0.109922056847231      -9.213527762877997E-002
 -7.434849841032859E-002 -0.261767625188161      -0.243980845969710     
 -0.226194066751258      -0.208407287532807      -0.190620508314356     
 -0.172833729095904      -0.155046949877453      -0.137260170659002     
 -0.119473391440551      -0.101686612222099      -8.389983300364796E-002
 -0.273129971866134      -0.255343192647683      -0.237556413429231     
 -0.219769634210780      -0.201982854992329      -0.184196075773877     
 -0.166409296555426      -0.148622517336975      -0.130835738118523     
 -0.113048958900072      -9.526217968162078E-002 -0.286124139634111     
 -0.268337360415660      -0.250550581197209      -0.232763801978757     
 -0.214977022760306      -0.197190243541855      -0.179403464323404     
 -0.161616685104952      -0.143829905886501      -0.126043126668050     
 -0.108256347449598      -0.300545202704053      -0.282758423485602     
 -0.264971644267150      -0.247184865048699      -0.229398085830248     
 -0.211611306611796      -0.193824527393345      -0.176037748174894     
 -0.158250968956442      -0.140464189737991      -0.122677410519540     
 -0.316165732296620      -0.298378953078169      -0.280592173859718     
 -0.262805394641266      -0.245018615422815      -0.227231836204364     
 -0.209445056985912      -0.191658277767461      -0.173871498549010     
 -0.156084719330558      -0.138297940112107      -0.332739383328886     
 -0.314952604110435      -0.297165824891984      -0.279379045673533     
 -0.261592266455081      -0.243805487236630      -0.226018708018178     
 -0.208231928799727      -0.190445149581276      -0.172658370362825     
 -0.154871591144373      -0.350004779423453      -0.332218000205002     
 -0.314431220986551      -0.296644441768099      -0.278857662549648     
 -0.261070883331197      -0.243284104112745      -0.225497324894294     
 -0.207710545675843      -0.189923766457391      -0.172136987238940     
 -0.367689634970062      -0.349902855751610      -0.332116076533159     
 -0.314329297314708      -0.296542518096257      -0.278755738877805     
 -0.260968959659354      -0.243182180440903      -0.225395401222452     
 -0.207608622004000      -0.189821842785549      -0.385515049232322     
 -0.367728270013870      -0.349941490795419      -0.332154711576968     
 -0.314367932358516      -0.296581153140065      -0.278794373921614     
 -0.261007594703162      -0.243220815484711      -0.225434036266260     
 -0.207647257047808      -0.403199904778930      -0.385413125560479     
 -0.367626346342027      -0.349839567123576      -0.332052787905125     
 -0.314266008686674      -0.296479229468222      -0.278692450249771     
 -0.260905671031320      -0.243118891812868      -0.225332112594417     
 -0.420465300873497      -0.402678521655045      -0.384891742436595     
 -0.367104963218143      -0.349318183999692      -0.331531404781240     
 -0.313744625562789      -0.295957846344338      -0.278171067125887     
 -0.260384287907435      -0.242597508688984      -0.437038951905763     
 -0.419252172687312      -0.401465393468860      -0.383678614250409     
 -0.365891835031957      -0.348105055813506      -0.330318276595055     
 -0.312531497376604      -0.294744718158153      -0.276957938939701     
 -0.259171159721250      -0.452659481498330      -0.434872702279879     
 -0.417085923061427      -0.399299143842976      -0.381512364624525     
 -0.363725585406074      -0.345938806187622      -0.328152026969171     
 -0.310365247750720      -0.292578468532268      -0.274791689313817     
 -0.467080544568271      -0.449293765349820      -0.431506986131369     
 -0.413720206912918      -0.395933427694467      -0.378146648476015     
 -0.360359869257564      -0.342573090039113      -0.324786310820661     
 -0.306999531602210      -0.289212752383759      -0.480074712336249     
 -0.462287933117798      -0.444501153899347      -0.426714374680895     
 -0.408927595462444      -0.391140816243993      -0.373354037025542     
 -0.355567257807090      -0.337780478588639      -0.319993699370187     
 -0.302206920151736      -0.491437059014222      -0.473650279795771     
 -0.455863500577320      -0.438076721358868      -0.420289942140417     
 -0.402503162921966      -0.384716383703514      -0.366929604485063     
 -0.349142825266612      -0.331356046048160      -0.313569266829709     
 -0.500988393607542      -0.483201614389090      -0.465414835170639     
 -0.447628055952187      -0.429841276733737      -0.412054497515285     
 -0.394267718296834      -0.376480939078382      -0.358694159859931     
 -0.340907380641480      -0.323120601423029      -0.508578085863980     
 -0.490791306645529      -0.473004527427078      -0.455217748208626     
 -0.437430968990175      -0.419644189771724      -0.401857410553273     
 -0.384070631334821      -0.366283852116369      -0.348497072897919     
 -0.330710293679467      -0.514086441802792      -0.496299662584341     
 -0.478512883365890      -0.460726104147438      -0.442939324928986     
 -0.425152545710535      -0.407365766492084      -0.389578987273633     
 -0.371792208055182      -0.354005428836731      -0.336218649618279     
 -0.517426591360289      -0.499639812141838      -0.481853032923387     
 -0.464066253704935      -0.446279474486484      -0.428492695268033     
 -0.410705916049582      -0.392919136831130      -0.375132357612679     
 -0.357345578394227      -0.339558799175776      -0.518545858382642     
 -0.500759079164191      -0.482972299945740      -0.465185520727288     
 -0.447398741508836      -0.429611962290386      -0.411825183071934     
 -0.394038403853483      -0.376251624635032      -0.358464845416580     
 -0.340678066198129     
  0.126338927249750       0.131892817800989       0.137446708352227     
  0.143000598903466       0.148554489454705       0.154108380005944     
  0.159662270557183       0.165216161108422       0.170770051659661     
  0.176323942210899       0.181877832762138       0.129923469514206     
  0.135477360065444       0.141031250616683       0.146585141167922     
  0.152139031719161       0.157692922270400       0.163246812821639     
  0.168800703372878       0.174354593924117       0.179908484475356     
  0.185462375026594       0.140620565934761       0.146174456486000     
  0.151728347037238       0.157282237588477       0.162836128139716     
  0.168390018690955       0.173943909242194       0.179497799793433     
  0.185051690344672       0.190605580895911       0.196159471447150     
  0.158261516910728       0.163815407461967       0.169369298013206     
  0.174923188564444       0.180477079115683       0.186030969666922     
  0.191584860218161       0.197138750769400       0.202692641320639     
  0.208246531871878       0.213800422423116       0.182568114107022     
  0.188122004658261       0.193675895209500       0.199229785760738     
  0.204783676311977       0.210337566863216       0.215891457414455     
  0.221445347965694       0.226999238516933       0.232553129068172     
  0.238107019619411       0.213157027965800       0.218710918517039     
  0.224264809068278       0.229818699619517       0.235372590170756     
  0.240926480721995       0.246480371273233       0.252034261824473     
  0.257588152375711       0.263142042926950       0.268695933478189     
  0.249545853042579       0.255099743593818       0.260653634145057     
  0.266207524696296       0.271761415247534       0.277315305798773     
  0.282869196350012       0.288423086901251       0.293976977452490     
  0.299530868003729       0.305084758554967       0.291160715828267     
  0.296714606379505       0.302268496930744       0.307822387481983     
  0.313376278033222       0.318930168584461       0.324484059135700     
  0.330037949686938       0.335591840238177       0.341145730789416     
  0.346699621340655       0.337345325077218       0.342899215628457     
  0.348453106179696       0.354006996730935       0.359560887282174     
  0.365114777833413       0.370668668384651       0.376222558935891     
  0.381776449487129       0.387330340038368       0.392884230589607     
  0.387371321912230       0.392925212463469       0.398479103014708     
  0.404032993565947       0.409586884117186       0.415140774668425     
  0.420694665219663       0.426248555770902       0.431802446322141     
  0.437356336873380       0.442910227424619       0.440449766479133     
  0.446003657030372       0.451557547581611       0.457111438132849     
  0.462665328684088       0.468219219235327       0.473773109786566     
  0.479327000337805       0.484880890889044       0.490434781440283     
  0.495988671991521       0.495743579999579       0.501297470550818     
  0.506851361102057       0.512405251653296       0.517959142204534     
  0.523513032755773       0.529066923307012       0.534620813858251     
  0.540174704409490       0.545728594960729       0.551282485511968     
  0.552380746003429       0.557934636554668       0.563488527105907     
  0.569042417657145       0.574596308208385       0.580150198759623     
  0.585704089310862       0.591257979862102       0.596811870413340     
  0.602365760964579       0.607919651515818       0.609468062549399     
  0.615021953100638       0.620575843651877       0.626129734203116     
  0.631683624754355       0.637237515305593       0.642791405856833     
  0.648345296408071       0.653899186959311       0.659453077510549     
  0.665006968061788       0.666105228553249       0.671659119104489     
  0.677213009655727       0.682766900206966       0.688320790758205     
  0.693874681309444       0.699428571860682       0.704982462411921     
  0.710536352963160       0.716090243514399       0.721644134065638     
  0.721399042073696       0.726952932624934       0.732506823176173     
  0.738060713727412       0.743614604278651       0.749168494829890     
  0.754722385381129       0.760276275932368       0.765830166483607     
  0.771384057034846       0.776937947586085       0.774477486640598     
  0.780031377191837       0.785585267743076       0.791139158294315     
  0.796693048845554       0.802246939396793       0.807800829948032     
  0.813354720499270       0.818908611050509       0.824462501601748     
  0.830016392152987       0.824503483475610       0.830057374026849     
  0.835611264578088       0.841165155129327       0.846719045680566     
  0.852272936231805       0.857826826783043       0.863380717334282     
  0.868934607885521       0.874488498436760       0.880042388987998     
  0.870688092724562       0.876241983275801       0.881795873827039     
  0.887349764378279       0.892903654929518       0.898457545480757     
  0.904011436031995       0.909565326583234       0.915119217134473     
  0.920673107685712       0.926226998236951       0.912302955510250     
  0.917856846061489       0.923410736612727       0.928964627163966     
  0.934518517715205       0.940072408266444       0.945626298817683     
  0.951180189368922       0.956734079920161       0.962287970471400     
  0.967841861022638       0.948691780587028       0.954245671138267     
  0.959799561689506       0.965353452240744       0.970907342791983     
  0.976461233343223       0.982015123894461       0.987569014445700     
  0.993122904996939       0.998676795548178        1.00423068609942     
  0.979280694445807       0.984834584997045       0.990388475548284     
  0.995942366099523        1.00149625665076        1.00705014720200     
   1.01260403775324        1.01815792830448        1.02371181885572     
   1.02926570940696        1.03481959995820        1.00358729164210     
   1.00914118219334        1.01469507274458        1.02024896329582     
   1.02580285384706        1.03135674439830        1.03691063494953     
   1.04246452550077        1.04801841605201        1.05357230660325     
   1.05912619715449        1.02122824261807        1.02678213316931     
   1.03233602372055        1.03788991427178        1.04344380482302     
   1.04899769537426        1.05455158592550        1.06010547647674     
   1.06565936702798        1.07121325757922        1.07676714813046     
   1.03192533903862        1.03747922958986        1.04303312014110     
   1.04858701069234        1.05414090124358        1.05969479179482     
   1.06524868234606        1.07080257289729        1.07635646344853     
   1.08191035399977        1.08746424455101        1.03550988130308     
   1.04106377185432        1.04661766240556        1.05217155295680     
   1.05772544350803        1.06327933405927        1.06883322461051     
   1.07438711516175        1.07994100571299        1.08549489626423     
   1.09104878681547     
  3.960717710078315E-002  3.564645939070483E-002  3.168574168062652E-002
  2.772502397054821E-002  2.376430626046989E-002  1.980358855039158E-002
  1.584287084031326E-002  1.188215313023495E-002  7.921435420156629E-003
  3.960717710078312E-003  0.000000000000000E+000  3.960717710078315E-002
  3.564645939070483E-002  3.168574168062652E-002  2.772502397054821E-002
  2.376430626046989E-002  1.980358855039158E-002  1.584287084031326E-002
  1.188215313023495E-002  7.921435420156629E-003  3.960717710078312E-003
  0.000000000000000E+000  3.960717710078315E-002  3.564645939070483E-002
  3.168574168062652E-002  2.772502397054821E-002  2.376430626046989E-002
  1.980358855039158E-002  1.584287084031326E-002  1.188215313023495E-002
  7.921435420156629E-003  3.960717710078312E-003  0.000000000000000E+000
  3.960717710078315E-002  3.564645939070483E-002  3.168574168062652E-002
  2.772502397054821E-002  2.376430626046989E-002  1.980358855039158E-002
  1.584287084031326E-002  1.188215313023495E-002  7.921435420156629E-003
  3.960717710078312E-003  0.000000000000000E+000  3.960717710078315E-002
  3.564645939070483E-002  3.168574168062652E-002  2.772502397054821E-002
  2.376430626046989E-002  1.980358855039158E-002  1.584287084031326E-002
  1.188215313023495E-002  7.921435420156629E-003  3.960717710078312E-003
  0.000000000000000E+000  3.960717710078315E-002  3.564645939070483E-002
  3.168574168062652E-002  2.772502397054821E-002  2.376430626046989E-002
  1.980358855039158E-002  1.584287084031326E-002  1.188215313023495E-002
  7.921435420156629E-003  3.960717710078312E-003  0.000000000000000E+000
  3.960717710078315E-002  3.564645939070483E-002  3.168574168062652E-002
  2.772502397054821E-002  2.376430626046989E-002  1.980358855039158E-002
  1.584287084031326E-002  1.188215313023495E-002  7.921435420156629E-003
  3.960717710078312E-003  0.000000000000000E+000  3.960717710078315E-002
  3.564645939070483E-002  3.168574168062652E-002  2.772502397054821E-002
  2.376430626046989E-002  1.980358855039158E-002  1.584287084031326E-002
  1.188215313023495E-002  7.921435420156629E-003  3.960717710078312E-003
  0.000000000000000E+000  3.960717710078315E-002  3.564645939070483E-002
  3.168574168062652E-002  2.772502397054821E-002  2.376430626046989E-002
  1.980358855039158E-002  1.584287084031326E-002  1.188215313023495E-002
  7.921435420156629E-003  3.960717710078312E-003  0.000000000000000E+000
  3.960717710078315E-002  3.564645939070483E-002  3.168574168062652E-002
  2.772502397054821E-002  2.376430626046989E-002  1.980358855039158E-002
  1.584287084031326E-002  1.188215313023495E-002  7.921435420156629E-003
  3.960717710078312E-003  0.000000000000000E+000  3.960717710078315E-002
  3.564645939070483E-002  3.168574168062652E-002  2.772502397054821E-002
  2.376430626046989E-002  1.980358855039158E-002  1.584287084031326E-002
  1.188215313023495E-002  7.921435420156629E-003  3.960717710078312E-003
  0.000000000000000E+000  3.960717710078315E-002  3.564645939070483E-002
  3.168574168062652E-002  2.772502397054821E-002  2.376430626046989E-002
  1.980358855039158E-002  1.584287084031326E-002  1.188215313023495E-002
  7.921435420156629E-003  3.960717710078312E-003  0.000000000000000E+000
  3.960717710078315E-002  3.564645939070483E-002  3.168574168062652E-002
  2.772502397054821E-002  2.376430626046989E-002  1.980358855039158E-002
  1.584287084031326E-002  1.188215313023495E-002  7.921435420156629E-003
  3.960717710078312E-003  0.000000000000000E+000  3.960717710078315E-002
  3.564645939070483E-002  3.168574168062652E-002  2.772502397054821E-002
  2.376430626046989E-002  1.980358855039158E-002  1.584287084031326E-002
  1.188215313023495E-002  7.921435420156629E-003  3.960717710078312E-003
  0.000000000000000E+000  3.960717710078315E-002  3.564645939070483E-002
  3.168574168062652E-002  2.772502397054821E-002  2.376430626046989E-002
  1.980358855039158E-002  1.584287084031326E-002  1.188215313023495E-002
  7.921435420156629E-003  3.960717710078312E-003  0.000000000000000E+000
  3.960717710078315E-002  3.564645939070483E-002  3.168574168062652E-002
  2.772502397054821E-002  2.376430626046989E-002  1.980358855039158E-002
  1.584287084031326E-002  1.188215313023495E-002  7.921435420156629E-003
  3.960717710078312E-003  0.000000000000000E+000  3.960717710078315E-002
  3.564645939070483E-002  3.168574168062652E-002  2.772502397054821E-002
  2.376430626046989E-002  1.980358855039158E-002  1.584287084031326E-002
  1.188215313023495E-002  7.921435420156629E-003  3.960717710078312E-003
  0.000000000000000E+000  3.960717710078315E-002  3.564645939070483E-002
  3.168574168062652E-002  2.772502397054821E-002  2.376430626046989E-002
  1.980358855039158E-002  1.584287084031326E-002  1.188215313023495E-002
  7.921435420156629E-003  3.960717710078312E-003  0.000000000000000E+000
  3.960717710078315E-002  3.564645939070483E-002  3.168574168062652E-002
  2.772502397054821E-002  2.376430626046989E-002  1.980358855039158E-002
  1.584287084031326E-002  1.188215313023495E-002  7.921435420156629E-003
  3.960717710078312E-003  0.000000000000000E+000  3.960717710078315E-002
  3.564645939070483E-002  3.168574168062652E-002  2.772502397054821E-002
  2.376430626046989E-002  1.980358855039158E-002  1.584287084031326E-002
  1.188215313023495E-002  7.921435420156629E-003  3.960717710078312E-003
  0.000000000000000E+000  3.960717710078315E-002  3.564645939070483E-002
  3.168574168062652E-002  2.772502397054821E-002  2.376430626046989E-002
  1.980358855039158E-002  1.584287084031326E-002  1.188215313023495E-002
  7.921435420156629E-003  3.960717710078312E-003  0.000000000000000E+000
  3.960717710078315E-002  3.564645939070483E-002  3.168574168062652E-002
  2.772502397054821E-002  2.376430626046989E-002  1.980358855039158E-002
  1.584287084031326E-002  1.188215313023495E-002  7.921435420156629E-003
  3.960717710078312E-003  0.000000000000000E+000  3.960717710078315E-002
  3.564645939070483E-002  3.168574168062652E-002  2.772502397054821E-002
  2.376430626046989E-002  1.980358855039158E-002  1.584287084031326E-002
  1.188215313023495E-002  7.921435420156629E-003  3.960717710078312E-003
  0.000000000000000E+000  3.960717710078315E-002  3.564645939070483E-002
  3.168574168062652E-002  2.772502397054821E-002  2.376430626046989E-002
  1.980358855039158E-002  1.584287084031326E-002  1.188215313023495E-002
  7.921435420156629E-003  3.960717710078312E-003  0.000000000000000E+000
  3.960717710078315E-002  3.564645939070483E-002  3.168574168062652E-002
  2.772502397054821E-002  2.376430626046989E-002  1.980358855039158E-002
  1.584287084031326E-002  1.188215313023495E-002  7.921435420156629E-003
  3.960717710078312E-003  0.000000000000000E+000  3.960717710078315E-002
  3.564645939070483E-002  3.168574168062652E-002  2.772502397054821E-002
  2.376430626046989E-002  1.980358855039158E-002  1.584287084031326E-002
  1.188215313023495E-002  7.921435420156629E-003  3.960717710078312E-003
  0.000000000000000E+000
  0.408335182836855       0.572381549406127       0.689805225456381     
  0.781241680672444       0.852999163664228       0.908817908258268     
  0.952642240380667       0.987644677515093        1.01558292381865     
   1.03586154618230       0.673535351130761       0.961062005968815     
   1.16545015603905        1.32478681116923        1.45056302256611     
   1.54896017343914        1.62633136821849        1.68816427601171     
   1.73811678217288        1.77800243514424       0.886654484889313     
   1.30220501359447        1.60040283103395        1.83452491824061     
   2.02175083472000        2.17045669994686        2.28825498283971     
   2.38247776641597        2.45788671981083        2.51255832410000     
   1.04006446642612        1.55666038143514        1.93804107327846     
   2.24385138467979        2.49267105852047        2.69368785939412     
   2.85490961800430        2.98342602241299        3.08316119211877     
   3.14955595001782        1.15268919432989        1.74031328857244     
   2.18043050098823        2.54088592316023        2.84124991949379     
   3.08896465616204        3.29144405213881        3.45447400309772     
   3.57909185240463        3.65820280079096        1.24364203877074     
   1.87952240129505        2.36143839496954        2.75919153216392     
   3.09286640596438        3.37279758915719        3.60687184676770     
   3.79760361893737        3.94310396338278        4.03394799651057     
   1.34217451753896        2.01912833110675        2.52779856779161     
   2.94602307661609        3.29978187862612        3.60153722622069     
   3.85640741745099        4.06718233345379        4.23128853249319     
   4.33667516181676        1.46334690182091        2.18712329875035     
   2.72199744416896        3.15734208639736        3.52458824111984     
   3.83856877249596        4.10614682899454        4.32918189810557     
   4.50559876612786        4.62197777228238        1.60066488080157     
   2.38003894873263        2.94699351836560        3.40242321513927     
   3.78340871308082        4.10763096151123        4.38368559918575     
   4.61463594745178        4.79798931165205        4.92079047295623     
   1.74539358889840        2.58650028240658        3.19189620868798     
   3.67343331135379        4.07283295523349        4.41019202380191     
   4.69564335724137        4.93310194158470        5.12080668875008     
   5.24593124082298        1.89366757016552        2.79966953105990     
   3.44698651285909        3.95813582681696        4.37904580153050     
   4.73196614429939        5.02827890938546        5.27262705983464     
   5.46340022007438        5.58901148235956        2.04205916706593     
   3.01370179759380        3.70395405565124        4.24572776420619     
   4.68892032799115        5.05768974102426        5.36441314008806     
   5.61439803445575        5.80710955703138        5.93256490269513     
   2.18485083445314        3.21946436492689        3.95062466847014     
   4.52111325343785        4.98457508541441        5.36719282175744     
   5.68284058284703        5.93805747710229        6.13321421725164     
   6.25917511529123        2.31442585849694        3.40549667182642     
   4.17285496890474        4.76841260692213        5.24930511782947     
   5.64355493005233        5.96632970615043        6.22529582720998     
   6.42183615203265        6.54773955031014        2.42253330067101     
   3.55958606824550        4.35560319781503        4.97038198850600     
   5.46415365745463        5.86656303815456        6.19383743057233     
   6.45449059293567        6.65071743747325        6.77521262965532     
   2.50072353789744        3.66907075667581        4.48302148989266     
   5.10841682773971        5.60798624442896        6.01278227069292     
   6.33997292997621        6.59876919786228        6.79193867087325     
   6.91291274393737        2.54315710559021        3.72507789437916     
   4.54378338776372        5.16887292712646        5.66467838049839     
   6.06323100386166        6.38252025739078        6.63255991321959     
   6.81695422214631        6.93038526815069        2.55405307739072     
   3.73180665554840        4.54084205714380        5.15300082639461     
   5.63350159221919        6.01487752146151        6.31589165025375     
   6.54775508328164        6.71547959536590        6.81567392723993     
   2.55463338238447        3.71284637108805        4.49571959689976     
   5.07917521467849        5.53002053214243        5.88131930466162     
   6.15296294970888        6.35757504196367        6.50157156452879     
   6.58353234189884        2.54996798913329        3.67466634272839     
   4.41571154516151        4.95552171929702        5.36435655005881     
   5.67742855409849        5.91539091996007        6.09086173688702     
   6.21070641357683        6.27532560547738        2.52502636345198     
   3.59307782078752        4.27108805995267        4.75176125318760     
   5.10720415593656        5.37288822011298        5.57000798623562     
   5.71200962971691        5.80619518891110        5.85465852378347     
   2.42419454027201        3.38612541526865        3.96556795252093     
   4.36184685947435        4.64719305239777        4.85591057555238     
   5.00760292135693        5.11428061087876        5.18266122724199     
   5.21569418524776        2.15573042144544        2.93189666522813     
   3.37599862345530        3.67242590467295        3.88386207459689     
   4.03735205878319        4.14812706327192        4.22558337892652     
   4.27562337813027        4.30190251910950        1.67778504215133     
   2.20566255786741        2.50240985194119        2.70034993529105     
   2.84163074139331        2.94424669757483        3.01841983139321     
   3.07088269925097        3.10671426801276        3.13315186678260     
   1.02638844468096        1.32230396180243        1.49026378221664     
   1.60293966486177        1.68357893467940        1.74223748907699     
   1.78469635418737        1.81480651146671        1.83519563319482     
   1.84736512118621     
  0.000000000000000E+000  0.000000000000000E+000  0.000000000000000E+000
  0.000000000000000E+000  0.000000000000000E+000  0.000000000000000E+000
  0.000000000000000E+000  0.000000000000000E+000  0.000000000000000E+000
  0.000000000000000E+000  0.000000000000000E+000  0.000000000000000E+000
  0.000000000000000E+000  0.000000000000000E+000  0.000000000000000E+000
  0.000000000000000E+000  0.000000000000000E+000  0.000000000000000E+000
  0.000000000000000E+000  0.000000000000000E+000  0.000000000000000E+000
  0.000000000000000E+000  0.000000000000000E+000  0.000000000000000E+000
  0.000000000000000E+000  0.000000000000000E+000  0.000000000000000E+000
  0.000000000000000E+000  0.000000000000000E+000  0.000000000000000E+000
  0.000000000000000E+000  0.000000000000000E+000  0.000000000000000E+000
  0.000000000000000E+000  0.000000000000000E+000  0.000000000000000E+000
  0.000000000000000E+000  0.000000000000000E+000  0.000000000000000E+000
  0.000000000000000E+000  0.000000000000000E+000  0.000000000000000E+000
  0.000000000000000E+000  0.000000000000000E+000  0.000000000000000E+000
  0.000000000000000E+000  0.000000000000000E+000  0.000000000000000E+000
  0.000000000000000E+000  0.000000000000000E+000  0.000000000000000E+000
  0.000000000000000E+000  0.000000000000000E+000  0.000000000000000E+000
  0.000000000000000E+000  0.000000000000000E+000  0.000000000000000E+000
  0.000000000000000E+000  0.000000000000000E+000  0.000000000000000E+000
  0.000000000000000E+000  0.000000000000000E+000  0.000000000000000E+000
  0.000000000000000E+000  0.000000000000000E+000  0.000000000000000E+000
  0.000000000000000E+000  0.000000000000000E+000  0.000000000000000E+000
  0.000000000000000E+000  0.000000000000000E+000  0.000000000000000E+000
  0.000000000000000E+000  0.000000000000000E+000  0.000000000000000E+000
  0.000000000000000E+000  0.000000000000000E+000  0.000000000000000E+000
  0.000000000000000E+000  0.000000000000000E+000  0.000000000000000E+000
  0.000000000000000E+000  0.000000000000000E+000  0.000000000000000E+000
  0.000000000000000E+000  0.000000000000000E+000  0.000000000000000E+000
  0.000000000000000E+000  0.000000000000000E+000  0.000000000000000E+000
  0.000000000000000E+000  0.000000000000000E+000  0.000000000000000E+000
  0.000000000000000E+000  0.000000000000000E+000  0.000000000000000E+000
  0.000000000000000E+000  0.000000000000000E+000  0.000000000000000E+000
  0.000000000000000E+000  0.000000000000000E+000  0.000000000000000E+000
  0.000000000000000E+000  0.000000000000000E+000  0.000000000000000E+000
  0.000000000000000E+000  0.000000000000000E+000  0.000000000000000E+000
  0.000000000000000E+000  0.000000000000000E+000  0.000000000000000E+000
  0.000000000000000E+000  0.000000000000000E+000  0.000000000000000E+000
  0.000000000000000E+000  0.000000000000000E+000  0.000000000000000E+000