 Title = "Wing and Wake"
 VARIABLES = "X" "Y" "Z" "GAM" "skew"
 Zone I=   11 J=   26 K=1  T="Blade"
 DATAPACKING=BLOCK
 VARLOCATION=([4]=CELLCENTERED,[5]=CELLCENTERED)
 -7.663827140189712E-002 -6.013241656062501E-002 -4.362656171935273E-002
 -2.712070687808049E-002 -1.061485203680796E-002  5.891002804463975E-003
  2.239685764573639E-002  3.890271248700852E-002  5.540856732828060E-002
  7.191442216955297E-002  8.842027701082540E-002 -7.489563891520637E-002
 -5.838978407393418E-002 -4.188392923266179E-002 -2.537807439138982E-002
 -8.872219550117450E-003  7.633635291154747E-003  2.413949013242702E-002
  4.064534497369910E-002  5.715119981497150E-002  7.365705465624368E-002
  9.016290949751612E-002 -6.969522381044778E-002 -5.318936896917571E-002
 -3.668351412790315E-002 -2.017765928663094E-002 -3.671804445358872E-003
  1.283405039591344E-002  2.933990523718595E-002  4.584576007845786E-002
  6.235161491972991E-002  7.885746976100237E-002  9.536332460227438E-002
 -6.111903974040046E-002 -4.461318489912797E-002 -2.810733005785560E-002
 -1.160147521658364E-002  4.904379624688537E-003  2.141023446596087E-002
  3.791608930723304E-002  5.442194414850518E-002  7.092779898977748E-002
  8.743365383104992E-002  0.103939508672322      -4.930233825101329E-002
 -3.279648340974125E-002 -1.629062856846871E-002  2.152262728035722E-004
  1.672108111407578E-002  3.322693595534815E-002  4.973279079662039E-002
  6.623864563789236E-002  8.274450047916460E-002  9.925035532043680E-002
  0.115756210161709      -3.443147578372910E-002 -1.792562094245671E-002
 -1.419766101184730E-003  1.508608874008786E-002  3.159194358135980E-002
  4.809779842263254E-002  6.460365326390421E-002  8.110950810517660E-002
  9.761536294644906E-002  0.114121217787721       0.130627072628994     
 -1.674097472307945E-002 -2.351198818074634E-004  1.627073495946470E-002
  3.277658980073703E-002  4.928244464200941E-002  6.578829948328167E-002
  8.229415432455371E-002  9.880000916582567E-002  0.115305864007098     
  0.131811718848370       0.148317573689642       3.490175161415616E-003
  1.999603000268781E-002  3.650188484396039E-002  5.300773968523203E-002
  6.951359452650425E-002  8.601944936777661E-002  0.102525304209049     
  0.119031159050321       0.135537013891593       0.152042868732865     
  0.168548723574138       2.594291655057461E-002  4.244877139184747E-002
  5.895462623311922E-002  7.546048107439118E-002  9.196633591566356E-002
  0.108472190756936       0.124978045598208       0.141483900439480     
  0.157989755280753       0.174495610122025       0.191001464963297     
  5.026315630007352E-002  6.676901114134540E-002  8.327486598261789E-002
  9.978072082389033E-002  0.116286575665162       0.132792430506434     
  0.149298285347707       0.165804140188979       0.182309995030251     
  0.198815849871523       0.215321704712795       7.606734970085516E-002
  9.257320454212740E-002  0.109079059383399       0.125584914224671     
  0.142090769065944       0.158596623907216       0.175102478748488     
  0.191608333589761       0.208114188431032       0.224620043272305     
  0.241125898113577       0.102948549208312       0.119454404049583     
  0.135960258890856       0.152466113732128       0.168971968573400     
  0.185477823414673       0.201983678255944       0.218489533097217     
  0.234995387938489       0.251501242779761       0.268007097621033     
  0.130482822248159       0.146988677089432       0.163494531930704     
  0.180000386771975       0.196506241613248       0.213012096454520     
  0.229517951295793       0.246023806137065       0.262529660978337     
  0.279035515819609       0.295541370660882       0.158235936886383     
  0.174741791727656       0.191247646568927       0.207753501410200     
  0.224259356251472       0.240765211092745       0.257271065934017     
  0.273776920775288       0.290282775616562       0.306788630457833     
  0.323294485299106       0.185770209926231       0.202276064767503     
  0.218781919608776       0.235287774450047       0.251793629291320     
  0.268299484132592       0.284805338973864       0.301311193815138     
  0.317817048656409       0.334322903497680       0.350828758338954     
  0.212651409433687       0.229157264274959       0.245663119116232     
  0.262168973957503       0.278674828798776       0.295180683640048     
  0.311686538481320       0.328192393322592       0.344698248163864     
  0.361204103005136       0.377709957846410       0.238455602834469     
  0.254961457675741       0.271467312517013       0.287973167358285     
  0.304479022199558       0.320984877040830       0.337490731882102     
  0.353996586723375       0.370502441564647       0.387008296405920     
  0.403514151247191       0.262775842583968       0.279281697425240     
  0.295787552266513       0.312293407107784       0.328799261949056     
  0.345305116790329       0.361810971631601       0.378316826472873     
  0.394822681314145       0.411328536155417       0.427834390996689     
  0.285228583973127       0.301734438814399       0.318240293655672     
  0.334746148496943       0.351252003338215       0.367757858179488     
  0.384263713020759       0.400769567862032       0.417275422703305     
  0.433781277544577       0.450287132385848       0.305459733857621     
  0.321965588698894       0.338471443540165       0.354977298381440     
  0.371483153222710       0.387989008063983       0.404494862905254     
  0.421000717746528       0.437506572587800       0.454012427429073     
  0.470518282270343       0.323150234918272       0.339656089759544     
  0.356161944600815       0.372667799442087       0.389173654283360     
  0.405679509124632       0.422185363965906       0.438691218807177     
  0.455197073648449       0.471702928489721       0.488208783330993     
  0.338021097385554       0.354526952226827       0.371032807068100     
  0.387538661909372       0.404044516750643       0.420550371591917     
  0.437056226433188       0.453562081274461       0.470067936115732     
  0.486573790957006       0.503079645798279       0.349837798874943     
  0.366343653716214       0.382849508557486       0.399355363398758     
  0.415861218240032       0.432367073081303       0.448872927922576     
  0.465378782763849       0.481884637605121       0.498390492446392     
  0.514896347287665       0.358413982944989       0.374919837786260     
  0.391425692627534       0.407931547468806       0.424437402310078     
  0.440943257151352       0.457449111992623       0.473954966833896     
  0.490460821675166       0.506966676516441       0.523472531357712     
  0.363614398049748       0.380120252891019       0.396626107732291     
  0.413131962573564       0.429637817414837       0.446143672256110     
  0.462649527097382       0.479155381938654       0.495661236779926     
  0.512167091621199       0.528672946462470       0.365357030536438     
  0.381862885377712       0.398368740218982       0.414874595060256     
  0.431380449901528       0.447886304742800       0.464392159584073     
  0.480898014425345       0.497403869266617       0.513909724107888     
  0.530415578949163     
  0.255250591439561       0.246603512673878       0.237956433908196     
  0.229309355142513       0.220662276376831       0.212015197611148     
  0.203368118845465       0.194721040079783       0.186073961314100     
  0.177426882548417       0.168779803782735       0.258576990984012     
  0.249929912218330       0.241282833452647       0.232635754686965     
  0.223988675921282       0.215341597155600       0.206694518389917     
  0.198047439624234       0.189400360858552       0.180753282092869     
  0.172106203327187       0.268503730309455       0.259856651543773     
  0.251209572778090       0.242562494012408       0.233915415246725     
  0.225268336481043       0.216621257715360       0.207974178949678     
  0.199327100183995       0.190680021418312       0.182032942652630     
  0.284874258806782       0.276227180041099       0.267580101275417     
  0.258933022509734       0.250285943744051       0.241638864978369     
  0.232991786212687       0.224344707447004       0.215697628681321     
  0.207050549915639       0.198403471149956       0.307430403462308     
  0.298783324696626       0.290136245930943       0.281489167165261     
  0.272842088399578       0.264195009633896       0.255547930868213     
  0.246900852102531       0.238253773336848       0.229606694571166     
  0.220959615805483       0.335816440400430       0.327169361634748     
  0.318522282869065       0.309875204103383       0.301228125337701     
  0.292581046572018       0.283933967806335       0.275286889040653     
  0.266639810274970       0.257992731509287       0.249345652743605     
  0.369584704861636       0.360937626095954       0.352290547330272     
  0.343643468564589       0.334996389798906       0.326349311033225     
  0.317702232267541       0.309055153501859       0.300408074736176     
  0.291760995970493       0.283113917204810       0.408202651143191     
  0.399555572377508       0.390908493611826       0.382261414846144     
  0.373614336080461       0.364967257314778       0.356320178549096     
  0.347673099783413       0.339026021017730       0.330378942252048     
  0.321731863486366       0.451061251162990       0.442414172397308     
  0.433767093631625       0.425120014865943       0.416472936100260     
  0.407825857334577       0.399178778568894       0.390531699803212     
  0.381884621037530       0.373237542271847       0.364590463506165     
  0.497484599196235       0.488837520430553       0.480190441664870     
  0.471543362899187       0.462896284133505       0.454249205367822     
  0.445602126602139       0.436955047836457       0.428307969070774     
  0.419660890305092       0.411013811539409       0.546740571312478     
  0.538093492546796       0.529446413781113       0.520799335015430     
  0.512152256249748       0.503505177484066       0.494858098718382     
  0.486211019952700       0.477563941187017       0.468916862421335     
  0.460269783655652       0.598052371407353       0.589405292641671     
  0.580758213875989       0.572111135110305       0.563464056344623     
  0.554816977578941       0.546169898813258       0.537522820047576     
  0.528875741281893       0.520228662516210       0.511581583750528     
  0.650610781741183       0.641963702975500       0.633316624209816     
  0.624669545444135       0.616022466678452       0.607375387912770     
  0.598728309147087       0.590081230381405       0.581434151615722     
  0.572787072850040       0.564139994084357       0.703586924786129     
  0.694939846020446       0.686292767254763       0.677645688489080     
  0.668998609723398       0.660351530957716       0.651704452192033     
  0.643057373426350       0.634410294660669       0.625763215894985     
  0.617116137129303       0.756145335119957       0.747498256354275     
  0.738851177588594       0.730204098822909       0.721557020057226     
  0.712909941291546       0.704262862525862       0.695615783760179     
  0.686968704994496       0.678321626228813       0.669674547463132     
  0.807457135214833       0.798810056449150       0.790162977683468     
  0.781515898917786       0.772868820152104       0.764221741386420     
  0.755574662620737       0.746927583855055       0.738280505089373     
  0.729633426323689       0.720986347558008       0.856713107331076     
  0.848066028565393       0.839418949799710       0.830771871034029     
  0.822124792268345       0.813477713502663       0.804830634736981     
  0.796183555971299       0.787536477205615       0.778889398439934     
  0.770242319674251       0.903136455364321       0.894489376598638     
  0.885842297832955       0.877195219067273       0.868548140301590     
  0.859901061535909       0.851253982770226       0.842606904004542     
  0.833959825238860       0.825312746473177       0.816665667707495     
  0.945995055384119       0.937347976618436       0.928700897852754     
  0.920053819087072       0.911406740321389       0.902759661555707     
  0.894112582790024       0.885465504024342       0.876818425258660     
  0.868171346492976       0.859524267727294       0.984613001665674     
  0.975965922899992       0.967318844134308       0.958671765368627     
  0.950024686602944       0.941377607837260       0.932730529071579     
  0.924083450305897       0.915436371540213       0.906789292774532     
  0.898142214008848        1.01838126612688        1.00973418736120     
   1.00108710859551       0.992440029829832       0.983792951064150     
  0.975145872298467       0.966498793532786       0.957851714767102     
  0.949204636001420       0.940557557235737       0.931910478470053     
   1.04676730306500        1.03812022429932        1.02947314553364     
   1.02082606676795        1.01217898800227        1.00353190923659     
  0.994884830470906       0.986237751705225       0.977590672939542     
  0.968943594173859       0.960296515408177        1.06932344772053     
   1.06067636895485        1.05202929018916        1.04338221142348     
   1.03473513265780        1.02608805389212        1.01744097512643     
   1.00879389636075        1.00014681759507       0.991499738829387     
  0.982852660063702        1.08569397621786        1.07704689745217     
   1.06839981868649        1.05975273992081        1.05110566115513     
   1.04245858238944        1.03381150362376        1.02516442485808     
   1.01651734609239        1.00787026732671       0.999223188561029     
   1.09562071554330        1.08697363677762        1.07832655801193     
   1.06967947924625        1.06103240048057        1.05238532171489     
   1.04373824294920        1.03509116418352        1.02644408541784     
   1.01779700665216        1.00914992788647        1.09894711508775     
   1.09030003632207        1.08165295755639        1.07300587879070     
   1.06435880002502        1.05571172125934        1.04706464249366     
   1.03841756372797        1.02977048496229        1.02112340619661     
   1.01247632743093     
  3.960717710078315E-002  3.564645939070483E-002  3.168574168062652E-002
  2.772502397054821E-002  2.376430626046989E-002  1.980358855039158E-002
  1.584287084031326E-002  1.188215313023495E-002  7.921435420156629E-003
  3.960717710078312E-003  0.000000000000000E+000  3.960717710078315E-002
  3.564645939070483E-002  3.168574168062652E-002  2.772502397054821E-002
  2.376430626046989E-002  1.980358855039158E-002  1.584287084031326E-002
  1.188215313023495E-002  7.921435420156629E-003  3.960717710078312E-003
  0.000000000000000E+000  3.960717710078315E-002  3.564645939070483E-002
  3.168574168062652E-002  2.772502397054821E-002  2.376430626046989E-002
  1.980358855039158E-002  1.584287084031326E-002  1.188215313023495E-002
  7.921435420156629E-003  3.960717710078312E-003  0.000000000000000E+000
  3.960717710078315E-002  3.564645939070483E-002  3.168574168062652E-002
  2.772502397054821E-002  2.376430626046989E-002  1.980358855039158E-002
  1.584287084031326E-002  1.188215313023495E-002  7.921435420156629E-003
  3.960717710078312E-003  0.000000000000000E+000  3.960717710078315E-002
  3.564645939070483E-002  3.168574168062652E-002  2.772502397054821E-002
  2.376430626046989E-002  1.980358855039158E-002  1.584287084031326E-002
  1.188215313023495E-002  7.921435420156629E-003  3.960717710078312E-003
  0.000000000000000E+000  3.960717710078315E-002  3.564645939070483E-002
  3.168574168062652E-002  2.772502397054821E-002  2.376430626046989E-002
  1.980358855039158E-002  1.584287084031326E-002  1.188215313023495E-002
  7.921435420156629E-003  3.960717710078312E-003  0.000000000000000E+000
  3.960717710078315E-002  3.564645939070483E-002  3.168574168062652E-002
  2.772502397054821E-002  2.376430626046989E-002  1.980358855039158E-002
  1.584287084031326E-002  1.188215313023495E-002  7.921435420156629E-003
  3.960717710078312E-003  0.000000000000000E+000  3.960717710078315E-002
  3.564645939070483E-002  3.168574168062652E-002  2.772502397054821E-002
  2.376430626046989E-002  1.980358855039158E-002  1.584287084031326E-002
  1.188215313023495E-002  7.921435420156629E-003  3.960717710078312E-003
  0.000000000000000E+000  3.960717710078315E-002  3.564645939070483E-002
  3.168574168062652E-002  2.772502397054821E-002  2.376430626046989E-002
  1.980358855039158E-002  1.584287084031326E-002  1.188215313023495E-002
  7.921435420156629E-003  3.960717710078312E-003  0.000000000000000E+000
  3.960717710078315E-002  3.564645939070483E-002  3.168574168062652E-002
  2.772502397054821E-002  2.376430626046989E-002  1.980358855039158E-002
  1.584287084031326E-002  1.188215313023495E-002  7.921435420156629E-003
  3.960717710078312E-003  0.000000000000000E+000  3.960717710078315E-002
  3.564645939070483E-002  3.168574168062652E-002  2.772502397054821E-002
  2.376430626046989E-002  1.980358855039158E-002  1.584287084031326E-002
  1.188215313023495E-002  7.921435420156629E-003  3.960717710078312E-003
  0.000000000000000E+000  3.960717710078315E-002  3.564645939070483E-002
  3.168574168062652E-002  2.772502397054821E-002  2.376430626046989E-002
  1.980358855039158E-002  1.584287084031326E-002  1.188215313023495E-002
  7.921435420156629E-003  3.960717710078312E-003  0.000000000000000E+000
  3.960717710078315E-002  3.564645939070483E-002  3.168574168062652E-002
  2.772502397054821E-002  2.376430626046989E-002  1.980358855039158E-002
  1.584287084031326E-002  1.188215313023495E-002  7.921435420156629E-003
  3.960717710078312E-003  0.000000000000000E+000  3.960717710078315E-002
  3.564645939070483E-002  3.168574168062652E-002  2.772502397054821E-002
  2.376430626046989E-002  1.980358855039158E-002  1.584287084031326E-002
  1.188215313023495E-002  7.921435420156629E-003  3.960717710078312E-003
  0.000000000000000E+000  3.960717710078315E-002  3.564645939070483E-002
  3.168574168062652E-002  2.772502397054821E-002  2.376430626046989E-002
  1.980358855039158E-002  1.584287084031326E-002  1.188215313023495E-002
  7.921435420156629E-003  3.960717710078312E-003  0.000000000000000E+000
  3.960717710078315E-002  3.564645939070483E-002  3.168574168062652E-002
  2.772502397054821E-002  2.376430626046989E-002  1.980358855039158E-002
  1.584287084031326E-002  1.188215313023495E-002  7.921435420156629E-003
  3.960717710078312E-003  0.000000000000000E+000  3.960717710078315E-002
  3.564645939070483E-002  3.168574168062652E-002  2.772502397054821E-002
  2.376430626046989E-002  1.980358855039158E-002  1.584287084031326E-002
  1.188215313023495E-002  7.921435420156629E-003  3.960717710078312E-003
  0.000000000000000E+000  3.960717710078315E-002  3.564645939070483E-002
  3.168574168062652E-002  2.772502397054821E-002  2.376430626046989E-002
  1.980358855039158E-002  1.584287084031326E-002  1.188215313023495E-002
  7.921435420156629E-003  3.960717710078312E-003  0.000000000000000E+000
  3.960717710078315E-002  3.564645939070483E-002  3.168574168062652E-002
  2.772502397054821E-002  2.376430626046989E-002  1.980358855039158E-002
  1.584287084031326E-002  1.188215313023495E-002  7.921435420156629E-003
  3.960717710078312E-003  0.000000000000000E+000  3.960717710078315E-002
  3.564645939070483E-002  3.168574168062652E-002  2.772502397054821E-002
  2.376430626046989E-002  1.980358855039158E-002  1.584287084031326E-002
  1.188215313023495E-002  7.921435420156629E-003  3.960717710078312E-003
  0.000000000000000E+000  3.960717710078315E-002  3.564645939070483E-002
  3.168574168062652E-002  2.772502397054821E-002  2.376430626046989E-002
  1.980358855039158E-002  1.584287084031326E-002  1.188215313023495E-002
  7.921435420156629E-003  3.960717710078312E-003  0.000000000000000E+000
  3.960717710078315E-002  3.564645939070483E-002  3.168574168062652E-002
  2.772502397054821E-002  2.376430626046989E-002  1.980358855039158E-002
  1.584287084031326E-002  1.188215313023495E-002  7.921435420156629E-003
  3.960717710078312E-003  0.000000000000000E+000  3.960717710078315E-002
  3.564645939070483E-002  3.168574168062652E-002  2.772502397054821E-002
  2.376430626046989E-002  1.980358855039158E-002  1.584287084031326E-002
  1.188215313023495E-002  7.921435420156629E-003  3.960717710078312E-003
  0.000000000000000E+000  3.960717710078315E-002  3.564645939070483E-002
  3.168574168062652E-002  2.772502397054821E-002  2.376430626046989E-002
  1.980358855039158E-002  1.584287084031326E-002  1.188215313023495E-002
  7.921435420156629E-003  3.960717710078312E-003  0.000000000000000E+000
  3.960717710078315E-002  3.564645939070483E-002  3.168574168062652E-002
  2.772502397054821E-002  2.376430626046989E-002  1.980358855039158E-002
  1.584287084031326E-002  1.188215313023495E-002  7.921435420156629E-003
  3.960717710078312E-003  0.000000000000000E+000  3.960717710078315E-002
  3.564645939070483E-002  3.168574168062652E-002  2.772502397054821E-002
  2.376430626046989E-002  1.980358855039158E-002  1.584287084031326E-002
  1.188215313023495E-002  7.921435420156629E-003  3.960717710078312E-003
  0.000000000000000E+000
  4.308738162175384E-002  9.170192540804631E-002  0.144612161116161     
  0.198518391017167       0.245422498164782       0.279812303902607     
  0.303700490449839       0.319550767678713       0.330158613499682     
  0.337618927265954       6.622461363840976E-002  0.143663013901328     
  0.229156866879505       0.317609083247907       0.396286782319242     
  0.455333287870410       0.497074385779949       0.525405219192311     
  0.544393761888486       0.559151006433562       7.307933770323567E-002
  0.163970957130631       0.267444257160495       0.376445640479684     
  0.477375759191020       0.557433065336079       0.617482509100424     
  0.660663851077144       0.689693734281324       0.711132520796364     
  7.588767652094687E-002  0.163435288619578       0.263879943797935     
  0.370348947631080       0.470870819763980       0.555632253011146     
  0.624956693416968       0.679868050086961       0.719352977882099     
  0.747253157265101       9.879485927590208E-002  0.186137219620750     
  0.277305937358920       0.369150526170776       0.455395440362895     
  0.531631513038569       0.598701116063197       0.656244483135238     
  0.701748742945294       0.733875670536095       0.162016498582280     
  0.267626965558848       0.363640954146537       0.453929890761401     
  0.536388911081983       0.609846783783394       0.675228869939274     
  0.732733952748397       0.781259290589898       0.817337360470612     
  0.270811487680900       0.417115522004548       0.534077942248892     
  0.635967548213641       0.726920747639786       0.808255990765508     
  0.880330520350198       0.942891918625558       0.994885344597090     
   1.03302026467490       0.410243622111851       0.615987909154284     
  0.770067185738907       0.897330384224247        1.00651949100830     
   1.10147852443696        1.18393687001444        1.25438609827931     
   1.31211131951540        1.35368277473872       0.568122408178328     
  0.844623034968973        1.04561818205045        1.20700308442638     
   1.34193760052386        1.45663183650793        1.55426331761074     
   1.63622284767395        1.70226588088105        1.74889145381652     
  0.739793750032852        1.09464074715528        1.34870641749416     
   1.54957934496365        1.71498398633643        1.85349650680211     
   1.96968336333338        2.06577402364728        2.14192092528635     
   2.19447896340449       0.923162299546806        1.36209785660452     
   1.67350335214234        1.91736093962508        2.11615974379562     
   2.28091088587188        2.41758862540480        2.52923542159773     
   2.61638560829170        2.67526051979523        1.11644732075260     
   1.64396185462074        2.01578851500270        2.30498148162883     
   2.53901967684268        2.73142220576251        2.88960587889507     
   3.01747774552844        3.11599591613472        3.18127969205267     
   1.31799163734461        1.93749019351260        2.37177858020614     
   2.70761258556394        2.97772405140114        3.19829253589039     
   3.37826590480535        3.52247214765206        3.63236397588637     
   3.70402952330056        1.52622981032081        2.24006753269099     
   2.73789246928323        3.12074675005765        3.42688204936852     
   3.67530572178359        3.87662882591100        4.03670661367675     
   4.15757014643852        4.23536999443051        1.74115675045066     
   2.55112812032787        3.11277445035494        3.54211927097176     
   3.88327895054335        4.15832005329907        4.37968869643048     
   4.55440835697256        4.68522021950403        4.76850074648777     
   1.96624694209542        2.87449469177746        3.49967400007968     
   3.97401010979346        4.34808323013811        4.64739114594036     
   4.88647731874216        5.07373465941450        5.21279441284341     
   5.30048151663275        2.20700223812609        3.21603765307741     
   3.90354075595953        4.42008764731651        4.82373893024037     
   5.14398131416587        5.39776470445441        5.59503729592663     
   5.74046627905192        5.83149787790344        2.45248800560031     
   3.55903566238544        4.30345190850494        4.85626359228574     
   5.28376253693572        5.61979565334060        5.88389557426658     
   6.08765757278804        6.23686867572689        6.32976048515330     
   2.65877921540212        3.83964011098191        4.62225251197029     
   5.19571847372866        5.63400867499730        5.97489054931983     
   6.24016373372303        6.44288575730988        6.58991266421039     
   6.68055800428771        2.77716756034313        3.98745610761615     
   4.77574203315375        5.34498090766375        5.77506126433447     
   6.10664769388433        6.36302273640914        6.55800756764843     
   6.69890456830468        6.78565512318107        2.74324471503320     
   3.90832466280728        4.64946795713487        5.17417935787066     
   5.56446107163441        5.86175008874537        6.08926960546878     
   6.26032668600285        6.38172482275573        6.45417571011645     
   2.54620901788338        3.57987750748040        4.21501244438901     
   4.65456072380241        4.97680928916546        5.21984836041887     
   5.40422039450263        5.54115286401117        5.63590075581936     
   5.68897730780622        2.19456043518456        3.01553879458958     
   3.50082274208392        3.83183590128934        4.07325104440936     
   4.25494487580782        4.39260243978292        4.49472137944734     
   4.56546299286786        4.60591922231264        1.67578353782673     
   2.22963425368092        2.55262989290342        2.77346960332631     
   2.93512133696239        3.05715946864229        3.14989494922449     
   3.21915311031871        3.26870899313022        3.30425288500490     
   1.01829346003505        1.32842227616380        1.51098386257453     
   1.63650292034105        1.72869813581277        1.79845769617688     
   1.85154574579262        1.89120630110215        1.91927062236181     
   1.93619411292324     
  0.000000000000000E+000  0.000000000000000E+000  0.000000000000000E+000
  0.000000000000000E+000  0.000000000000000E+000  0.000000000000000E+000
  0.000000000000000E+000  0.000000000000000E+000  0.000000000000000E+000
  0.000000000000000E+000  0.000000000000000E+000  0.000000000000000E+000
  0.000000000000000E+000  0.000000000000000E+000  0.000000000000000E+000
  0.000000000000000E+000  0.000000000000000E+000  0.000000000000000E+000
  0.000000000000000E+000  0.000000000000000E+000  0.000000000000000E+000
  0.000000000000000E+000  0.000000000000000E+000  0.000000000000000E+000
  0.000000000000000E+000  0.000000000000000E+000  0.000000000000000E+000
  0.000000000000000E+000  0.000000000000000E+000  0.000000000000000E+000
  0.000000000000000E+000  0.000000000000000E+000  0.000000000000000E+000
  0.000000000000000E+000  0.000000000000000E+000  0.000000000000000E+000
  0.000000000000000E+000  0.000000000000000E+000  0.000000000000000E+000
  0.000000000000000E+000  0.000000000000000E+000  0.000000000000000E+000
  0.000000000000000E+000  0.000000000000000E+000  0.000000000000000E+000
  0.000000000000000E+000  0.000000000000000E+000  0.000000000000000E+000
  0.000000000000000E+000  0.000000000000000E+000  0.000000000000000E+000
  0.000000000000000E+000  0.000000000000000E+000  0.000000000000000E+000
  0.000000000000000E+000  0.000000000000000E+000  0.000000000000000E+000
  0.000000000000000E+000  0.000000000000000E+000  0.000000000000000E+000
  0.000000000000000E+000  0.000000000000000E+000  0.000000000000000E+000
  0.000000000000000E+000  0.000000000000000E+000  0.000000000000000E+000
  0.000000000000000E+000  0.000000000000000E+000  0.000000000000000E+000
  0.000000000000000E+000  0.000000000000000E+000  0.000000000000000E+000
  0.000000000000000E+000  0.000000000000000E+000  0.000000000000000E+000
  0.000000000000000E+000  0.000000000000000E+000  0.000000000000000E+000
  0.000000000000000E+000  0.000000000000000E+000  0.000000000000000E+000
  0.000000000000000E+000  0.000000000000000E+000  0.000000000000000E+000
  0.000000000000000E+000  0.000000000000000E+000  0.000000000000000E+000
  0.000000000000000E+000  0.000000000000000E+000  0.000000000000000E+000
  0.000000000000000E+000  0.000000000000000E+000  0.000000000000000E+000
  0.000000000000000E+000  0.000000000000000E+000  0.000000000000000E+000
  0.000000000000000E+000  0.000000000000000E+000  0.000000000000000E+000
  0.000000000000000E+000  0.000000000000000E+000  0.000000000000000E+000
  0.000000000000000E+000  0.000000000000000E+000  0.000000000000000E+000
  0.000000000000000E+000  0.000000000000000E+000  0.000000000000000E+000
  0.000000000000000E+000  0.000000000000000E+000  0.000000000000000E+000
  0.000000000000000E+000  0.000000000000000E+000  0.000000000000000E+000
  0.000000000000000E+000  0.000000000000000E+000  0.000000000000000E+000