 Title = "Wing and Tip"
 VARIABLES = "X" "Y" "Z" "GAM"
 Zone I=   11 J=   26 K=1  T="Blade"
 DATAPACKING=BLOCK
 VARLOCATION=([4]=CELLCENTERED)
  0.109258511145437       9.176627874316094E-002  7.427404634088502E-002
  5.678181393860890E-002  3.928958153633276E-002  2.179734913405676E-002
  4.305116731780717E-003 -1.318711567049539E-002 -3.067934807277135E-002
 -4.817158047504753E-002 -6.566381287732365E-002  0.107964374807163     
  9.047214240488648E-002  7.297991000261041E-002  5.548767760033443E-002
  3.799544519805832E-002  2.050321279578231E-002  3.010980393506220E-003
 -1.448125200876989E-002 -3.197348441104594E-002 -4.946571681332195E-002
 -6.695794921559808E-002  0.104102375095473       8.661014269319761E-002
  6.911791029092137E-002  5.162567788864533E-002  3.413344548636931E-002
  1.664121308409322E-002 -8.510193181829399E-004 -1.834325172045901E-002
 -3.583548412273498E-002 -5.332771652501115E-002 -7.081994892728721E-002
  9.773341805286966E-002  8.024118565059363E-002  6.274895324831746E-002
  4.525672084604155E-002  2.776448844376551E-002  1.027225604148934E-002
 -7.219976360786775E-003 -2.471220876306272E-002 -4.220444116533878E-002
 -5.969667356761489E-002 -7.718890596989093E-002  8.895794593654366E-002
  7.146571353426778E-002  5.397348113199163E-002  3.648124872971564E-002
  1.898901632743947E-002  1.496783925163453E-003 -1.599544847711264E-002
 -3.348768087938866E-002 -5.097991328166477E-002 -6.847214568394075E-002
 -8.596437808621686E-002  7.791435318398302E-002  6.042212078170695E-002
  4.292988837943090E-002  2.543765597715487E-002  7.945423574878733E-003
 -9.546808827397500E-003 -2.703904122967333E-002 -4.453127363194951E-002
 -6.202350603422559E-002 -7.951573843650149E-002 -9.700797083877762E-002
  6.477680385001795E-002  4.728457144774191E-002  2.979233904546573E-002
  1.230010664318967E-002 -5.192125759086464E-003 -2.268435816136241E-002
 -4.017659056363835E-002 -5.766882296591448E-002 -7.516105536819048E-002
 -9.265328777046664E-002 -0.110145520172743       4.975248493563665E-002
  3.226025253336055E-002  1.476802013108430E-002 -2.724212271191503E-003
 -2.021644467346756E-002 -3.770867707574361E-002 -5.520090947801972E-002
 -7.269314188029577E-002 -9.018537428257185E-002 -0.107677606684848     
 -0.125169839087124       3.307833892521197E-002  1.558610652293591E-002
 -1.906125879340044E-003 -1.939835828161595E-002 -3.689059068389219E-002
 -5.438282308616830E-002 -7.187505548844446E-002 -8.936728789072047E-002
 -0.106859520292997      -0.124351752695273      -0.141843985097549     
  1.501732706198053E-002 -2.474905340295524E-003 -1.996713774257165E-002
 -3.745937014484769E-002 -5.495160254712393E-002 -7.244383494939978E-002
 -8.993606735167581E-002 -0.107428299753952      -0.124920532156228     
 -0.142412764558504      -0.159904996960780      -4.145717707849305E-003
 -2.163795011012525E-002 -3.913018251240133E-002 -5.662241491467718E-002
 -7.411464731695340E-002 -9.160687971922947E-002 -0.109099112121506     
 -0.126591344523782      -0.144083576926058      -0.161575809328334     
 -0.179068041730610      -2.410858272080890E-002 -4.160081512308501E-002
 -5.909304752536117E-002 -7.658527992763725E-002 -9.407751232991303E-002
 -0.111569744732189      -0.129061977134465      -0.146554209536741     
 -0.164046441939017      -0.181538674341294      -0.199030906743570     
 -4.455644167040633E-002 -6.204867407268277E-002 -7.954090647495879E-002
 -9.703313887723454E-002 -0.114525371279511      -0.132017603681787     
 -0.149509836084063      -0.167002068486339      -0.184494300888615     
 -0.201986533290891      -0.219478765693167      -6.516681960604835E-002
 -8.265905200832435E-002 -0.100151284410600      -0.117643516812876     
 -0.135135749215153      -0.152627981617429      -0.170120214019705     
 -0.187612446421981      -0.205104678824257      -0.222596911226533     
 -0.240089143628809      -8.561467855564578E-002 -0.103106910957922     
 -0.120599143360198      -0.138091375762474      -0.155583608164751     
 -0.173075840567026      -0.190568072969302      -0.208060305371578     
 -0.225552537773854      -0.243044770176131      -0.260537002578407     
 -0.105577543568606      -0.123069775970882      -0.140562008373158     
 -0.158054240775433      -0.175546473177710      -0.193038705579986     
 -0.210530937982262      -0.228023170384538      -0.245515402786814     
 -0.263007635189090      -0.280499867591366      -0.124740588338435     
 -0.142232820740712      -0.159725053142987      -0.177217285545264     
 -0.194709517947540      -0.212201750349816      -0.229693982752092     
 -0.247186215154368      -0.264678447556644      -0.282170679958920     
 -0.299662912361196      -0.142801600201667      -0.160293832603943     
 -0.177786065006219      -0.195278297408495      -0.212770529810771     
 -0.230262762213047      -0.247754994615323      -0.265247227017599     
 -0.282739459419875      -0.300231691822152      -0.317723924224427     
 -0.159475746212092      -0.176967978614368      -0.194460211016643     
 -0.211952443418920      -0.229444675821196      -0.246936908223472     
 -0.264429140625748      -0.281921373028024      -0.299413605430300     
 -0.316905837832576      -0.334398070234852      -0.174500065126473     
 -0.191992297528749      -0.209484529931025      -0.226976762333301     
 -0.244468994735577      -0.261961227137853      -0.279453459540129     
 -0.296945691942405      -0.314437924344681      -0.331930156746958     
 -0.349422389149233      -0.187637614460438      -0.205129846862714     
 -0.222622079264990      -0.240114311667266      -0.257606544069542     
 -0.275098776471818      -0.292591008874095      -0.310083241276370     
 -0.327575473678646      -0.345067706080923      -0.362559938483199     
 -0.198681207212999      -0.216173439615274      -0.233665672017551     
 -0.251157904419827      -0.268650136822103      -0.286142369224379     
 -0.303634601626655      -0.321126834028931      -0.338619066431207     
 -0.356111298833483      -0.373603531235759      -0.207456679329325     
 -0.224948911731600      -0.242441144133877      -0.259933376536153     
 -0.277425608938429      -0.294917841340705      -0.312410073742981     
 -0.329902306145257      -0.347394538547534      -0.364886770949809     
 -0.382379003352086      -0.213825636371929      -0.231317868774204     
 -0.248810101176481      -0.266302333578757      -0.283794565981033     
 -0.301286798383309      -0.318779030785585      -0.336271263187861     
 -0.353763495590137      -0.371255727992413      -0.388747960394689     
 -0.217687636083618      -0.235179868485893      -0.252672100888169     
 -0.270164333290445      -0.287656565692721      -0.305148798094998     
 -0.322641030497273      -0.340133262899550      -0.357625495301826     
 -0.375117727704102      -0.392609960106378      -0.218981772421892     
 -0.236474004824168      -0.253966237226443      -0.271458469628721     
 -0.288950702030996      -0.306442934433272      -0.323935166835549     
 -0.341427399237824      -0.358919631640100      -0.376411864042376     
 -0.393904096444653     
 -0.243082016644588      -0.236660410863645      -0.230238805082703     
 -0.223817199301760      -0.217395593520817      -0.210973987739875     
 -0.204552381958932      -0.198130776177990      -0.191709170397047     
 -0.185287564616104      -0.178865958835162      -0.246607199342116     
 -0.240185593561173      -0.233763987780231      -0.227342381999288     
 -0.220920776218346      -0.214499170437403      -0.208077564656461     
 -0.201655958875518      -0.195234353094575      -0.188812747313633     
 -0.182391141532690      -0.257127153197719      -0.250705547416777     
 -0.244283941635834      -0.237862335854891      -0.231440730073949     
 -0.225019124293006      -0.218597518512064      -0.212175912731121     
 -0.205754306950178      -0.199332701169236      -0.192911095388293     
 -0.274475972254778      -0.268054366473836      -0.261632760692893     
 -0.255211154911951      -0.248789549131008      -0.242367943350065     
 -0.235946337569123      -0.229524731788180      -0.223103126007238     
 -0.216681520226295      -0.210259914445353      -0.298380055273081     
 -0.291958449492139      -0.285536843711196      -0.279115237930254     
 -0.272693632149311      -0.266272026368368      -0.259850420587426     
 -0.253428814806483      -0.247007209025541      -0.240585603244598     
 -0.234163997463656      -0.328462420583823      -0.322040814802880     
 -0.315619209021937      -0.309197603240995      -0.302775997460053     
 -0.296354391679110      -0.289932785898167      -0.283511180117225     
 -0.277089574336282      -0.270667968555339      -0.264246362774397     
 -0.364248651315718      -0.357827045534776      -0.351405439753833     
 -0.344983833972891      -0.338562228191948      -0.332140622411006     
 -0.325719016630063      -0.319297410849120      -0.312875805068178     
 -0.306454199287235      -0.300032593506292      -0.405174377232468     
 -0.398752771451525      -0.392331165670583      -0.385909559889640     
 -0.379487954108697      -0.373066348327755      -0.366644742546812     
 -0.360223136765870      -0.353801530984927      -0.347379925203985     
 -0.340958319423042      -0.450594175188520      -0.444172569407578     
 -0.437750963626635      -0.431329357845693      -0.424907752064750     
 -0.418486146283808      -0.412064540502865      -0.405642934721923     
 -0.399221328940980      -0.392799723160038      -0.386378117379095     
 -0.499791747837637      -0.493370142056695      -0.486948536275752     
 -0.480526930494810      -0.474105324713867      -0.467683718932925     
 -0.461262113151982      -0.454840507371039      -0.448418901590096     
 -0.441997295809154      -0.435575690028211      -0.551991220069936     
 -0.545569614288994      -0.539148008508051      -0.532726402727108     
 -0.526304796946166      -0.519883191165223      -0.513461585384281     
 -0.507039979603338      -0.500618373822396      -0.494196768041453     
 -0.487775162260511      -0.606369375025861      -0.599947769244919     
 -0.593526163463976      -0.587104557683033      -0.580682951902090     
 -0.574261346121148      -0.567839740340205      -0.561418134559263     
 -0.554996528778320      -0.548574922997378      -0.542153317216436     
 -0.662068636717821      -0.655647030936878      -0.649225425155935     
 -0.642803819374993      -0.636382213594051      -0.629960607813108     
 -0.623539002032165      -0.617117396251223      -0.610695790470281     
 -0.604274184689338      -0.597852578908395      -0.718210594515808     
 -0.711788988734866      -0.705367382953923      -0.698945777172980     
 -0.692524171392038      -0.686102565611095      -0.679680959830153     
 -0.673259354049210      -0.666837748268268      -0.660416142487325     
 -0.653994536706382      -0.773909856207768      -0.767488250426826     
 -0.761066644645883      -0.754645038864940      -0.748223433083998     
 -0.741801827303055      -0.735380221522112      -0.728958615741169     
 -0.722537009960228      -0.716115404179285      -0.709693798398342     
 -0.828288011163692      -0.821866405382749      -0.815444799601808     
 -0.809023193820864      -0.802601588039922      -0.796179982258980     
 -0.789758376478037      -0.783336770697095      -0.776915164916152     
 -0.770493559135209      -0.764071953354267      -0.880487483395991     
 -0.874065877615049      -0.867644271834106      -0.861222666053164     
 -0.854801060272221      -0.848379454491279      -0.841957848710336     
 -0.835536242929394      -0.829114637148451      -0.822693031367508     
 -0.816271425586566      -0.929685056045108      -0.923263450264166     
 -0.916841844483223      -0.910420238702280      -0.903998632921338     
 -0.897577027140396      -0.891155421359453      -0.884733815578510     
 -0.878312209797568      -0.871890604016625      -0.865468998235682     
 -0.975104854001160      -0.968683248220218      -0.962261642439275     
 -0.955840036658333      -0.949418430877391      -0.942996825096448     
 -0.936575219315505      -0.930153613534563      -0.923732007753620     
 -0.917310401972677      -0.910888796191735       -1.01603057991791     
  -1.00960897413697       -1.00318736835602      -0.996765762575083     
 -0.990344156794140      -0.983922551013197      -0.977500945232256     
 -0.971079339451313      -0.964657733670370      -0.958236127889427     
 -0.951814522108485       -1.05181681064981       -1.04539520486886     
  -1.03897359908792       -1.03255199330698       -1.02613038752604     
  -1.01970878174509       -1.01328717596415       -1.00686557018321     
  -1.00044396440227      -0.994022358621322      -0.987600752840380     
  -1.08189917596055       -1.07547757017960       -1.06905596439866     
  -1.06263435861772       -1.05621275283678       -1.04979114705583     
  -1.04336954127489       -1.03694793549395       -1.03052632971301     
  -1.02410472393206       -1.01768311815112       -1.10580325897885     
  -1.09938165319791       -1.09296004741697       -1.08653844163602     
  -1.08011683585508       -1.07369523007414       -1.06727362429319     
  -1.06085201851225       -1.05443041273131       -1.04800880695037     
  -1.04158720116942       -1.12315207803591       -1.11673047225497     
  -1.11030886647402       -1.10388726069308       -1.09746565491214     
  -1.09104404913120       -1.08462244335025       -1.07820083756931     
  -1.07177923178837       -1.06535762600743       -1.05893602022648     
  -1.13367203189151       -1.12725042611057       -1.12082882032963     
  -1.11440721454868       -1.10798560876774       -1.10156400298680     
  -1.09514239720586       -1.08872079142491       -1.08229918564397     
  -1.07587757986303       -1.06945597408209       -1.13719721458904     
  -1.13077560880810       -1.12435400302716       -1.11793239724621     
  -1.11151079146527       -1.10508918568433       -1.09866757990338     
  -1.09224597412244       -1.08582436834150       -1.07940276256056     
  -1.07298115677962     
  3.960717710078315E-002  3.564645939070483E-002  3.168574168062652E-002
  2.772502397054821E-002  2.376430626046989E-002  1.980358855039158E-002
  1.584287084031326E-002  1.188215313023495E-002  7.921435420156629E-003
  3.960717710078312E-003  0.000000000000000E+000  3.960717710078315E-002
  3.564645939070483E-002  3.168574168062652E-002  2.772502397054821E-002
  2.376430626046989E-002  1.980358855039158E-002  1.584287084031326E-002
  1.188215313023495E-002  7.921435420156629E-003  3.960717710078312E-003
  0.000000000000000E+000  3.960717710078315E-002  3.564645939070483E-002
  3.168574168062652E-002  2.772502397054821E-002  2.376430626046989E-002
  1.980358855039158E-002  1.584287084031326E-002  1.188215313023495E-002
  7.921435420156629E-003  3.960717710078312E-003  0.000000000000000E+000
  3.960717710078315E-002  3.564645939070483E-002  3.168574168062652E-002
  2.772502397054821E-002  2.376430626046989E-002  1.980358855039158E-002
  1.584287084031326E-002  1.188215313023495E-002  7.921435420156629E-003
  3.960717710078312E-003  0.000000000000000E+000  3.960717710078315E-002
  3.564645939070483E-002  3.168574168062652E-002  2.772502397054821E-002
  2.376430626046989E-002  1.980358855039158E-002  1.584287084031326E-002
  1.188215313023495E-002  7.921435420156629E-003  3.960717710078312E-003
  0.000000000000000E+000  3.960717710078315E-002  3.564645939070483E-002
  3.168574168062652E-002  2.772502397054821E-002  2.376430626046989E-002
  1.980358855039158E-002  1.584287084031326E-002  1.188215313023495E-002
  7.921435420156629E-003  3.960717710078312E-003  0.000000000000000E+000
  3.960717710078315E-002  3.564645939070483E-002  3.168574168062652E-002
  2.772502397054821E-002  2.376430626046989E-002  1.980358855039158E-002
  1.584287084031326E-002  1.188215313023495E-002  7.921435420156629E-003
  3.960717710078312E-003  0.000000000000000E+000  3.960717710078315E-002
  3.564645939070483E-002  3.168574168062652E-002  2.772502397054821E-002
  2.376430626046989E-002  1.980358855039158E-002  1.584287084031326E-002
  1.188215313023495E-002  7.921435420156629E-003  3.960717710078312E-003
  0.000000000000000E+000  3.960717710078315E-002  3.564645939070483E-002
  3.168574168062652E-002  2.772502397054821E-002  2.376430626046989E-002
  1.980358855039158E-002  1.584287084031326E-002  1.188215313023495E-002
  7.921435420156629E-003  3.960717710078312E-003  0.000000000000000E+000
  3.960717710078315E-002  3.564645939070483E-002  3.168574168062652E-002
  2.772502397054821E-002  2.376430626046989E-002  1.980358855039158E-002
  1.584287084031326E-002  1.188215313023495E-002  7.921435420156629E-003
  3.960717710078312E-003  0.000000000000000E+000  3.960717710078315E-002
  3.564645939070483E-002  3.168574168062652E-002  2.772502397054821E-002
  2.376430626046989E-002  1.980358855039158E-002  1.584287084031326E-002
  1.188215313023495E-002  7.921435420156629E-003  3.960717710078312E-003
  0.000000000000000E+000  3.960717710078315E-002  3.564645939070483E-002
  3.168574168062652E-002  2.772502397054821E-002  2.376430626046989E-002
  1.980358855039158E-002  1.584287084031326E-002  1.188215313023495E-002
  7.921435420156629E-003  3.960717710078312E-003  0.000000000000000E+000
  3.960717710078315E-002  3.564645939070483E-002  3.168574168062652E-002
  2.772502397054821E-002  2.376430626046989E-002  1.980358855039158E-002
  1.584287084031326E-002  1.188215313023495E-002  7.921435420156629E-003
  3.960717710078312E-003  0.000000000000000E+000  3.960717710078315E-002
  3.564645939070483E-002  3.168574168062652E-002  2.772502397054821E-002
  2.376430626046989E-002  1.980358855039158E-002  1.584287084031326E-002
  1.188215313023495E-002  7.921435420156629E-003  3.960717710078312E-003
  0.000000000000000E+000  3.960717710078315E-002  3.564645939070483E-002
  3.168574168062652E-002  2.772502397054821E-002  2.376430626046989E-002
  1.980358855039158E-002  1.584287084031326E-002  1.188215313023495E-002
  7.921435420156629E-003  3.960717710078312E-003  0.000000000000000E+000
  3.960717710078315E-002  3.564645939070483E-002  3.168574168062652E-002
  2.772502397054821E-002  2.376430626046989E-002  1.980358855039158E-002
  1.584287084031326E-002  1.188215313023495E-002  7.921435420156629E-003
  3.960717710078312E-003  0.000000000000000E+000  3.960717710078315E-002
  3.564645939070483E-002  3.168574168062652E-002  2.772502397054821E-002
  2.376430626046989E-002  1.980358855039158E-002  1.584287084031326E-002
  1.188215313023495E-002  7.921435420156629E-003  3.960717710078312E-003
  0.000000000000000E+000  3.960717710078315E-002  3.564645939070483E-002
  3.168574168062652E-002  2.772502397054821E-002  2.376430626046989E-002
  1.980358855039158E-002  1.584287084031326E-002  1.188215313023495E-002
  7.921435420156629E-003  3.960717710078312E-003  0.000000000000000E+000
  3.960717710078315E-002  3.564645939070483E-002  3.168574168062652E-002
  2.772502397054821E-002  2.376430626046989E-002  1.980358855039158E-002
  1.584287084031326E-002  1.188215313023495E-002  7.921435420156629E-003
  3.960717710078312E-003  0.000000000000000E+000  3.960717710078315E-002
  3.564645939070483E-002  3.168574168062652E-002  2.772502397054821E-002
  2.376430626046989E-002  1.980358855039158E-002  1.584287084031326E-002
  1.188215313023495E-002  7.921435420156629E-003  3.960717710078312E-003
  0.000000000000000E+000  3.960717710078315E-002  3.564645939070483E-002
  3.168574168062652E-002  2.772502397054821E-002  2.376430626046989E-002
  1.980358855039158E-002  1.584287084031326E-002  1.188215313023495E-002
  7.921435420156629E-003  3.960717710078312E-003  0.000000000000000E+000
  3.960717710078315E-002  3.564645939070483E-002  3.168574168062652E-002
  2.772502397054821E-002  2.376430626046989E-002  1.980358855039158E-002
  1.584287084031326E-002  1.188215313023495E-002  7.921435420156629E-003
  3.960717710078312E-003  0.000000000000000E+000  3.960717710078315E-002
  3.564645939070483E-002  3.168574168062652E-002  2.772502397054821E-002
  2.376430626046989E-002  1.980358855039158E-002  1.584287084031326E-002
  1.188215313023495E-002  7.921435420156629E-003  3.960717710078312E-003
  0.000000000000000E+000  3.960717710078315E-002  3.564645939070483E-002
  3.168574168062652E-002  2.772502397054821E-002  2.376430626046989E-002
  1.980358855039158E-002  1.584287084031326E-002  1.188215313023495E-002
  7.921435420156629E-003  3.960717710078312E-003  0.000000000000000E+000
  3.960717710078315E-002  3.564645939070483E-002  3.168574168062652E-002
  2.772502397054821E-002  2.376430626046989E-002  1.980358855039158E-002
  1.584287084031326E-002  1.188215313023495E-002  7.921435420156629E-003
  3.960717710078312E-003  0.000000000000000E+000  3.960717710078315E-002
  3.564645939070483E-002  3.168574168062652E-002  2.772502397054821E-002
  2.376430626046989E-002  1.980358855039158E-002  1.584287084031326E-002
  1.188215313023495E-002  7.921435420156629E-003  3.960717710078312E-003
  0.000000000000000E+000
  0.430443654876611       0.591607565814139       0.705412110990381     
  0.794495883403072       0.864397035291677       0.919981142315460     
  0.966506943127506        1.00645261023969        1.03979873777925     
   1.06594807245652       0.706046736940060       0.988870505153024     
   1.18675782665600        1.34155050561014        1.46323706688572     
   1.56029015322154        1.64178982849055        1.71195424861381     
   1.77125237739792        1.82165117896347       0.911827095524534     
   1.31912418073278        1.60577213436908        1.83101660029686     
   2.00946150354299        2.15344327547924        2.27542105068230     
   2.38070422913547        2.46903933855805        2.53853623040868     
   1.02376013685473        1.52188778603925        1.88363931669209     
   2.17074224351657        2.40173956261230        2.59368521763032     
   2.75794196025429        2.89801719238774        3.01197384876232     
   3.09650978968398        1.05646040213075        1.59920761128122     
   2.00771289077469        2.33947984853616        2.61357312738604     
   2.84546331851379        3.04556694763974        3.21634646138457     
   3.35614964584017        3.45654140590919        1.05217393507932     
   1.60373931563706        2.02759966637033        2.38103675777369     
   2.68368337230720        2.94527697397598        3.17064321143067     
   3.36162448848067        3.51601486935307        3.62368265031798     
   1.07036302140543        1.62361318776359        2.04635753516921     
   2.40011310481906        2.70633381910536        2.97412872691204     
   3.20635730538831        3.40284532679414        3.56116754791562     
   3.67191597665639        1.14668842672476        1.72371095757195     
   2.15562196873835        2.51132781715357        2.81537092011841     
   3.07862297317173        3.30568318128595        3.49763215594699     
   3.65273394629850        3.76262394014796        1.26413196898482     
   1.88649301365828        2.34349248231755        2.71362317855395     
   3.02540390216092        3.29198627290449        3.51967258348235     
   3.71089802418985        3.86483668755410        3.97395755951380     
   1.39930330774943        2.07846354141928        2.57041141295188     
   2.96371684951110        3.29096341321051        3.56760589911239     
   3.80160556891853        3.99663665774701        4.15269148945538     
   4.26283612476282        1.53988868683384        2.28024869686299     
   2.81149751091725        3.23228667480329        3.57919663554459     
   3.86987198375708        4.11372992640471        4.31546614953134     
   4.47579004754306        4.58825057190213        1.67941852460234     
   2.48120851994703        3.05244708601220        3.50168427797782     
   3.86942736559906        4.17541911280703        4.43037819592136     
   4.63988587334606        4.80527197782475        4.92048228345853     
   1.81247859432939        2.67276580332450        3.28205849867030     
   3.75837427958132        4.14597003772415        4.46657136417288     
   4.73211455986487        4.94899993252242        5.11912580004246     
   5.23679945699501        1.93350159921208        2.84639074226331     
   3.48944918076316        3.98940873258560        4.39399605682549     
   4.72678078641812        5.00084000436020        5.22335358350777     
   5.39679401332191        5.51590515004614        2.03724562786748     
   2.99395834749168        3.66416923124940        4.18229376307610     
   4.59916177737520        4.94002294076380        5.21902661483183     
   5.44411414767263        5.61835820829180        5.73709780849298     
   2.12057121428435        3.11020120583083        3.79895094219209     
   4.32780276943181        4.75032973440703        5.09333373396916     
   5.37200146023989        5.59507384321789        5.76633753910856     
   5.88199331820569        2.18406739528704        3.19501251280538     
   3.89250612817115        4.42320176142208        4.84319428675245     
   5.18079746821360        5.45226156043035        5.66721493016899     
   5.83037581407981        5.93928083618079        2.23504256602594     
   3.25738730716067        3.95382928330327        4.47669963924639     
   4.88487037365475        5.20839613292990        5.46474137872625     
   5.66454143046500        5.81364297874480        5.91142023764710     
   2.28827968391973        3.31615484587684        4.00287319306008     
   4.50814253298891        4.89476612751248        5.19525433657485     
   5.42854290512463        5.60630346387071        5.73559631657577     
   5.81797290110663        2.34480097400328        3.36945914005022     
   4.03538347304918        4.51197020297923        4.86701306724635     
   5.13643703881225        5.34054997125688        5.49180135340095     
   5.59852368967766        5.66390576010830        2.34853621614327     
   3.33631023611043        3.95551813388263        4.38451838683055     
   4.69460343798694        4.92298418937448        5.09213573793687     
   5.21495379206212        5.29953014943179        5.34918390298908     
   2.25091879766105        3.14268836371934        3.67514014496486     
   4.03119192036439        4.28238017343210        4.46452475836458     
   4.59780047261696        4.69386471181202        4.75912219715252     
   4.79583953652018        2.00270514302655        2.72349265373786     
   3.13264706796450        3.39984226127955        3.58685324846922     
   3.72284867464836        3.82242888136806        3.89460631731721     
   3.94479824865399        3.97516068609203        1.56238164149615     
   2.05231082201220        2.32487868026671        2.50252866587309     
   2.62738779388904        2.71903804807738        2.78643673099138     
   2.83603295522003        2.87251458474647        2.90157110682316     
  0.957175188352181        1.23159583725046        1.38549339277218     
   1.48624453268919        1.55735389730880        1.60979759436041     
   1.64843809315014        1.67697765294652        1.69784345503036     
   1.71178762609666     
 Zone I=   61 J=1    K=1  T="NearWake"
 DATAPACKING=BLOCK
 VARLOCATION=([4]=CELLCENTERED)
 -0.386246455772382      -0.623384358744185      -0.809464494897804     
 -0.951229681916335       -1.04083357018605       -1.06871482927529     
  -1.03568100097832      -0.944844493833054      -0.788733610587374     
 -0.578788541935634      -0.342420017925647      -6.054878255509744E-002
  0.217678325185315       0.503327835524604       0.722371370537396     
  0.947009250569484        1.07280176866274        1.16261552128922     
   1.20218452979158        1.16411159686463        1.07621137914038     
  0.951758532452303       0.805533895258725       0.625829257019802     
  0.437713145824784       0.236603582908075       1.514306445311930E-002
 -0.204677471397937      -0.385233706829432      -0.545347677268162     
 -0.715317238336004      -0.824577570320090      -0.942758694020800     
  -1.04102318292535       -1.07577346318133       -1.12780098879718     
  -1.13255856371852       -1.13989000105460       -1.13075911424278     
  -1.08573044887647       -1.06032256057451      -0.972503849977501     
 -0.957390475755095      -0.878164578053684      -0.809627902031269     
 -0.761183244781264      -0.666587120754292      -0.633280889097224     
 -0.573470822982966      -0.491799073355887      -0.440725259504226     
 -0.371304636497135      -0.304644032905655      -0.259580457499739     
 -0.224062923579833      -0.191121415121762      -0.150101784341219     
 -0.118961248091309      -8.648943049386201E-002 -6.789628004170439E-002
 -5.273996851937026E-002
  -1.01191141930978      -0.885606934325901      -0.693471496860026     
 -0.471919958733240      -0.222348029570829       3.791859779950840E-002
  0.299246769822025       0.555679448320019       0.767717310700513     
  0.944910240011718        1.07945877591695        1.14618404121460     
   1.11633347415521        1.05921545716463       0.908619123105979     
  0.730399389273650       0.506000441955606       0.252896121708042     
 -1.288152625344280E-002 -0.252960222879361      -0.479796332284820     
 -0.675676146152185      -0.852902140618796      -0.966721206177043     
  -1.06645407551086       -1.10660401901844       -1.14343427064741     
  -1.14190996858478       -1.05666588305376      -0.994937439164427     
 -0.917069017240041      -0.760426706473415      -0.660788213548054     
 -0.513756402637300      -0.356306089850539      -0.222484233451932     
 -6.146730664827849E-002  6.578786132195552E-002  0.203946728097598     
  0.319974766235303       0.448786266628021       0.534778801911681     
  0.650897673415176       0.719140040540409       0.792140672737831     
  0.859603648897041       0.906186379147901       0.980424643134473     
   1.02652860312928        1.03373844265828        1.08529085992925     
   1.08280316148365        1.06046983733940        1.10706140799001     