 Title = "Wing and Tip"
 VARIABLES = "X" "Y" "Z" "GAM"
 Zone I=   11 J=   26 K=1  T="Blade"
 DATAPACKING=BLOCK
 VARLOCATION=([4]=CELLCENTERED)
  0.266389783763892       0.253763245174449       0.241136706585005     
  0.228510167995562       0.215883629406119       0.203257090816676     
  0.190630552227232       0.178004013637789       0.165377475048346     
  0.152750936458903       0.140124397869460       0.269151427768642     
  0.256524889179199       0.243898350589755       0.231271812000312     
  0.218645273410869       0.206018734821426       0.193392196231983     
  0.180765657642539       0.168139119053096       0.155512580463653     
  0.142886041874210       0.277392807007211       0.264766268417768     
  0.252139729828325       0.239513191238881       0.226886652649438     
  0.214260114059995       0.201633575470552       0.189007036881109     
  0.176380498291665       0.163753959702222       0.151127421112779     
  0.290983950005846       0.278357411416403       0.265730872826960     
  0.253104334237516       0.240477795648073       0.227851257058630     
  0.215224718469187       0.202598179879743       0.189971641290300     
  0.177345102700857       0.164718564111414       0.309710516320502     
  0.297083977731060       0.284457439141616       0.271830900552173     
  0.259204361962730       0.246577823373287       0.233951284783843     
  0.221324746194400       0.208698207604957       0.196071669015514     
  0.183445130426070       0.333277176813690       0.320650638224247     
  0.308024099634804       0.295397561045361       0.282771022455918     
  0.270144483866474       0.257517945277031       0.244891406687588     
  0.232264868098145       0.219638329508701       0.207011790919258     
  0.361312271171391       0.348685732581948       0.336059193992505     
  0.323432655403062       0.310806116813618       0.298179578224175     
  0.285553039634732       0.272926501045289       0.260299962455845     
  0.247673423866402       0.235046885276959       0.393373669208231     
  0.380747130618787       0.368120592029344       0.355494053439901     
  0.342867514850458       0.330240976261015       0.317614437671571     
  0.304987899082128       0.292361360492685       0.279734821903242     
  0.267108283313798       0.428955743524617       0.416329204935173     
  0.403702666345730       0.391076127756287       0.378449589166844     
  0.365823050577400       0.353196511987957       0.340569973398514     
  0.327943434809071       0.315316896219628       0.302690357630184     
  0.467497343552879       0.454870804963436       0.442244266373993     
  0.429617727784549       0.416991189195106       0.404364650605663     
  0.391738112016220       0.379111573426777       0.366485034837333     
  0.353858496247890       0.341231957658447       0.508390645236937     
  0.495764106647493       0.483137568058050       0.470511029468607     
  0.457884490879164       0.445257952289721       0.432631413700277     
  0.420004875110834       0.407378336521391       0.394751797931948     
  0.382125259342504       0.550990736780757       0.538364198191314     
  0.525737659601870       0.513111121012427       0.500484582422984     
  0.487858043833541       0.475231505244098       0.462604966654654     
  0.449978428065211       0.437351889475768       0.424725350886325     
  0.594625789292633       0.581999250703190       0.569372712113746     
  0.556746173524303       0.544119634934860       0.531493096345417     
  0.518866557755973       0.506240019166531       0.493613480577087     
  0.480986941987644       0.468360403398201       0.638607651928136     
  0.625981113338693       0.613354574749249       0.600728036159806     
  0.588101497570362       0.575474958980919       0.562848420391477     
  0.550221881802033       0.537595343212590       0.524968804623147     
  0.512342266033703       0.682242704440012       0.669616165850569     
  0.656989627261125       0.644363088671682       0.631736550082239     
  0.619110011492796       0.606483472903352       0.593856934313908     
  0.581230395724466       0.568603857135022       0.555977318545579     
  0.724842795983832       0.712216257394388       0.699589718804946     
  0.686963180215503       0.674336641626059       0.661710103036616     
  0.649083564447173       0.636457025857730       0.623830487268287     
  0.611203948678843       0.598577410089400       0.765736097667889     
  0.753109559078446       0.740483020489003       0.727856481899560     
  0.715229943310116       0.702603404720673       0.689976866131230     
  0.677350327541787       0.664723788952344       0.652097250362900     
  0.639470711773457       0.804277697696152       0.791651159106708     
  0.779024620517265       0.766398081927822       0.753771543338379     
  0.741145004748936       0.728518466159492       0.715891927570049     
  0.703265388980606       0.690638850391163       0.678012311801719     
  0.839859772012537       0.827233233423095       0.814606694833651     
  0.801980156244208       0.789353617654765       0.776727079065322     
  0.764100540475878       0.751474001886435       0.738847463296992     
  0.726220924707548       0.713594386118106       0.871921170049378     
  0.859294631459934       0.846668092870490       0.834041554281048     
  0.821415015691604       0.808788477102161       0.796161938512718     
  0.783535399923275       0.770908861333831       0.758282322744388     
  0.745655784154945       0.899956264407078       0.887329725817635     
  0.874703187228192       0.862076648638749       0.849450110049305     
  0.836823571459862       0.824197032870419       0.811570494280975     
  0.798943955691532       0.786317417102089       0.773690878512646     
  0.923522924900266       0.910896386310823       0.898269847721379     
  0.885643309131936       0.873016770542493       0.860390231953050     
  0.847763693363606       0.835137154774163       0.822510616184720     
  0.809884077595277       0.797257539005834       0.942249491214922     
  0.929622952625479       0.916996414036036       0.904369875446593     
  0.891743336857150       0.879116798267707       0.866490259678263     
  0.853863721088820       0.841237182499376       0.828610643909934     
  0.815984105320490       0.955840634213558       0.943214095624114     
  0.930587557034671       0.917961018445228       0.905334479855784     
  0.892707941266341       0.880081402676898       0.867454864087455     
  0.854828325498012       0.842201786908569       0.829575248319125     
  0.964082013452127       0.951455474862683       0.938828936273240     
  0.926202397683797       0.913575859094353       0.900949320504911     
  0.888322781915467       0.875696243326024       0.863069704736581     
  0.850443166147137       0.837816627557694       0.966843657456876     
  0.954217118867434       0.941590580277990       0.928964041688548     
  0.916337503099103       0.903710964509661       0.891084425920217     
  0.878457887330774       0.865831348741331       0.853204810151887     
  0.840578271562445     
  7.922889620840668E-003 -5.780604038455628E-003 -1.948409769775175E-002
 -3.318759135704798E-002 -4.689108501634437E-002 -6.059457867564053E-002
 -7.429807233493674E-002 -8.800156599423303E-002 -0.101705059653529     
 -0.115408553312825      -0.129112046972122       5.378282715241322E-003
 -8.325210944055042E-003 -2.202870460335122E-002 -3.573219826264747E-002
 -4.943569192194368E-002 -6.313918558123990E-002 -7.684267924053612E-002
 -9.054617289983230E-002 -0.104249666559129      -0.117953160218425     
 -0.131656653877721      -2.215408030580788E-003 -1.591890168987696E-002
 -2.962239534917335E-002 -4.332588900846952E-002 -5.702938266776569E-002
 -7.073287632706197E-002 -8.443636998635824E-002 -9.813986364565451E-002
 -0.111843357304951      -0.125546850964247      -0.139250344623543     
 -1.473842557731345E-002 -2.844191923660960E-002 -4.214541289590598E-002
 -5.584890655520194E-002 -6.955240021449821E-002 -8.325589387379455E-002
 -9.695938753309086E-002 -0.110662881192387      -0.124366374851683     
 -0.138069868510980      -0.151773362170276      -3.199327445735598E-002
 -4.569676811665223E-002 -5.940026177594849E-002 -7.310375543524465E-002
 -8.680724909454099E-002 -0.100510742753837      -0.114214236413134     
 -0.127917730072430      -0.141621223731726      -0.155324717391022     
 -0.169028211050318      -5.370783539632346E-002 -6.741132905561979E-002
 -8.111482271491589E-002 -9.481831637421208E-002 -0.108521810033509     
 -0.122225303692805      -0.135928797352101      -0.149632291011397     
 -0.163335784670694      -0.177039278329990      -0.190742771989286     
 -7.953965679655844E-002 -9.324315045585470E-002 -0.106946644115151     
 -0.120650137774447      -0.134353631433744      -0.148057125093040     
 -0.161760618752336      -0.175464112411632      -0.189167606070928     
 -0.202871099730224      -0.216574593389521      -0.109081355403397     
 -0.122784849062693      -0.136488342721990      -0.150191836381286     
 -0.163895330040582      -0.177598823699878      -0.191302317359174     
 -0.205005811018471      -0.218709304677767      -0.232412798337063     
 -0.246116291996360      -0.141867040982454      -0.155570534641750     
 -0.169274028301046      -0.182977521960342      -0.196681015619639     
 -0.210384509278935      -0.224088002938231      -0.237791496597528     
 -0.251494990256824      -0.265198483916120      -0.278901977575416     
 -0.177379663686928      -0.191083157346224      -0.204786651005521     
 -0.218490144664817      -0.232193638324113      -0.245897131983409     
 -0.259600625642705      -0.273304119302002      -0.287007612961298     
 -0.300711106620595      -0.314414600279890      -0.215059168242558     
 -0.228762661901854      -0.242466155561150      -0.256169649220446     
 -0.269873142879743      -0.283576636539039      -0.297280130198335     
 -0.310983623857632      -0.324687117516928      -0.338390611176224     
 -0.352094104835520      -0.254311326353856      -0.268014820013152     
 -0.281718313672448      -0.295421807331744      -0.309125300991040     
 -0.322828794650337      -0.336532288309633      -0.350235781968929     
 -0.363939275628225      -0.377642769287522      -0.391346262946818     
 -0.294517108039304      -0.308220601698600      -0.321924095357896     
 -0.335627589017192      -0.349331082676489      -0.363034576335784     
 -0.376738069995081      -0.390441563654377      -0.404145057313673     
 -0.417848550972969      -0.431552044632266      -0.335042444103952     
 -0.348745937763249      -0.362449431422545      -0.376152925081841     
 -0.389856418741137      -0.403559912400433      -0.417263406059731     
 -0.430966899719026      -0.444670393378323      -0.458373887037619     
 -0.472077380696915      -0.375248225789400      -0.388951719448697     
 -0.402655213107993      -0.416358706767289      -0.430062200426586     
 -0.443765694085882      -0.457469187745177      -0.471172681404474     
 -0.484876175063770      -0.498579668723066      -0.512283162382363     
 -0.414500383900698      -0.428203877559994      -0.441907371219291     
 -0.455610864878586      -0.469314358537883      -0.483017852197179     
 -0.496721345856475      -0.510424839515772      -0.524128333175068     
 -0.537831826834364      -0.551535320493661      -0.452179888456328     
 -0.465883382115624      -0.479586875774920      -0.493290369434216     
 -0.506993863093513      -0.520697356752809      -0.534400850412105     
 -0.548104344071402      -0.561807837730698      -0.575511331389994     
 -0.589214825049290      -0.487692511160803      -0.501396004820099     
 -0.515099498479394      -0.528802992138690      -0.542506485797987     
 -0.556209979457283      -0.569913473116579      -0.583616966775876     
 -0.597320460435172      -0.611023954094469      -0.624727447753764     
 -0.520478196739859      -0.534181690399156      -0.547885184058451     
 -0.561588677717747      -0.575292171377044      -0.588995665036340     
 -0.602699158695636      -0.616402652354933      -0.630106146014229     
 -0.643809639673525      -0.657513133332821      -0.550019895346697     
 -0.563723389005994      -0.577426882665289      -0.591130376324587     
 -0.604833869983882      -0.618537363643179      -0.632240857302475     
 -0.645944350961772      -0.659647844621068      -0.673351338280364     
 -0.687054831939660      -0.575851716746932      -0.589555210406229     
 -0.603258704065525      -0.616962197724821      -0.630665691384117     
 -0.644369185043413      -0.658072678702710      -0.671776172362006     
 -0.685479666021302      -0.699183159680598      -0.712886653339895     
 -0.597566277685900      -0.611269771345196      -0.624973265004492     
 -0.638676758663789      -0.652380252323084      -0.666083745982381     
 -0.679787239641677      -0.693490733300973      -0.707194226960269     
 -0.720897720619566      -0.734601214278862      -0.614821126565943     
 -0.628524620225239      -0.642228113884535      -0.655931607543831     
 -0.669635101203127      -0.683338594862424      -0.697042088521720     
 -0.710745582181016      -0.724449075840312      -0.738152569499609     
 -0.751856063158905      -0.627344144112676      -0.641047637771971     
 -0.654751131431268      -0.668454625090564      -0.682158118749860     
 -0.695861612409156      -0.709565106068452      -0.723268599727749     
 -0.736972093387045      -0.750675587046341      -0.764379080705637     
 -0.634937834858497      -0.648641328517792      -0.662344822177088     
 -0.676048315836386      -0.689751809495681      -0.703455303154979     
 -0.717158796814274      -0.730862290473571      -0.744565784132867     
 -0.758269277792162      -0.771972771451459      -0.637482441764096     
 -0.651185935423392      -0.664889429082688      -0.678592922741986     
 -0.692296416401281      -0.705999910060577      -0.719703403719874     
 -0.733406897379170      -0.747110391038466      -0.760813884697762     
 -0.774517378357060     
  3.960717710078315E-002  3.564645939070483E-002  3.168574168062652E-002
  2.772502397054821E-002  2.376430626046989E-002  1.980358855039158E-002
  1.584287084031326E-002  1.188215313023495E-002  7.921435420156629E-003
  3.960717710078312E-003  0.000000000000000E+000  3.960717710078315E-002
  3.564645939070483E-002  3.168574168062652E-002  2.772502397054821E-002
  2.376430626046989E-002  1.980358855039158E-002  1.584287084031326E-002
  1.188215313023495E-002  7.921435420156629E-003  3.960717710078312E-003
  0.000000000000000E+000  3.960717710078315E-002  3.564645939070483E-002
  3.168574168062652E-002  2.772502397054821E-002  2.376430626046989E-002
  1.980358855039158E-002  1.584287084031326E-002  1.188215313023495E-002
  7.921435420156629E-003  3.960717710078312E-003  0.000000000000000E+000
  3.960717710078315E-002  3.564645939070483E-002  3.168574168062652E-002
  2.772502397054821E-002  2.376430626046989E-002  1.980358855039158E-002
  1.584287084031326E-002  1.188215313023495E-002  7.921435420156629E-003
  3.960717710078312E-003  0.000000000000000E+000  3.960717710078315E-002
  3.564645939070483E-002  3.168574168062652E-002  2.772502397054821E-002
  2.376430626046989E-002  1.980358855039158E-002  1.584287084031326E-002
  1.188215313023495E-002  7.921435420156629E-003  3.960717710078312E-003
  0.000000000000000E+000  3.960717710078315E-002  3.564645939070483E-002
  3.168574168062652E-002  2.772502397054821E-002  2.376430626046989E-002
  1.980358855039158E-002  1.584287084031326E-002  1.188215313023495E-002
  7.921435420156629E-003  3.960717710078312E-003  0.000000000000000E+000
  3.960717710078315E-002  3.564645939070483E-002  3.168574168062652E-002
  2.772502397054821E-002  2.376430626046989E-002  1.980358855039158E-002
  1.584287084031326E-002  1.188215313023495E-002  7.921435420156629E-003
  3.960717710078312E-003  0.000000000000000E+000  3.960717710078315E-002
  3.564645939070483E-002  3.168574168062652E-002  2.772502397054821E-002
  2.376430626046989E-002  1.980358855039158E-002  1.584287084031326E-002
  1.188215313023495E-002  7.921435420156629E-003  3.960717710078312E-003
  0.000000000000000E+000  3.960717710078315E-002  3.564645939070483E-002
  3.168574168062652E-002  2.772502397054821E-002  2.376430626046989E-002
  1.980358855039158E-002  1.584287084031326E-002  1.188215313023495E-002
  7.921435420156629E-003  3.960717710078312E-003  0.000000000000000E+000
  3.960717710078315E-002  3.564645939070483E-002  3.168574168062652E-002
  2.772502397054821E-002  2.376430626046989E-002  1.980358855039158E-002
  1.584287084031326E-002  1.188215313023495E-002  7.921435420156629E-003
  3.960717710078312E-003  0.000000000000000E+000  3.960717710078315E-002
  3.564645939070483E-002  3.168574168062652E-002  2.772502397054821E-002
  2.376430626046989E-002  1.980358855039158E-002  1.584287084031326E-002
  1.188215313023495E-002  7.921435420156629E-003  3.960717710078312E-003
  0.000000000000000E+000  3.960717710078315E-002  3.564645939070483E-002
  3.168574168062652E-002  2.772502397054821E-002  2.376430626046989E-002
  1.980358855039158E-002  1.584287084031326E-002  1.188215313023495E-002
  7.921435420156629E-003  3.960717710078312E-003  0.000000000000000E+000
  3.960717710078315E-002  3.564645939070483E-002  3.168574168062652E-002
  2.772502397054821E-002  2.376430626046989E-002  1.980358855039158E-002
  1.584287084031326E-002  1.188215313023495E-002  7.921435420156629E-003
  3.960717710078312E-003  0.000000000000000E+000  3.960717710078315E-002
  3.564645939070483E-002  3.168574168062652E-002  2.772502397054821E-002
  2.376430626046989E-002  1.980358855039158E-002  1.584287084031326E-002
  1.188215313023495E-002  7.921435420156629E-003  3.960717710078312E-003
  0.000000000000000E+000  3.960717710078315E-002  3.564645939070483E-002
  3.168574168062652E-002  2.772502397054821E-002  2.376430626046989E-002
  1.980358855039158E-002  1.584287084031326E-002  1.188215313023495E-002
  7.921435420156629E-003  3.960717710078312E-003  0.000000000000000E+000
  3.960717710078315E-002  3.564645939070483E-002  3.168574168062652E-002
  2.772502397054821E-002  2.376430626046989E-002  1.980358855039158E-002
  1.584287084031326E-002  1.188215313023495E-002  7.921435420156629E-003
  3.960717710078312E-003  0.000000000000000E+000  3.960717710078315E-002
  3.564645939070483E-002  3.168574168062652E-002  2.772502397054821E-002
  2.376430626046989E-002  1.980358855039158E-002  1.584287084031326E-002
  1.188215313023495E-002  7.921435420156629E-003  3.960717710078312E-003
  0.000000000000000E+000  3.960717710078315E-002  3.564645939070483E-002
  3.168574168062652E-002  2.772502397054821E-002  2.376430626046989E-002
  1.980358855039158E-002  1.584287084031326E-002  1.188215313023495E-002
  7.921435420156629E-003  3.960717710078312E-003  0.000000000000000E+000
  3.960717710078315E-002  3.564645939070483E-002  3.168574168062652E-002
  2.772502397054821E-002  2.376430626046989E-002  1.980358855039158E-002
  1.584287084031326E-002  1.188215313023495E-002  7.921435420156629E-003
  3.960717710078312E-003  0.000000000000000E+000  3.960717710078315E-002
  3.564645939070483E-002  3.168574168062652E-002  2.772502397054821E-002
  2.376430626046989E-002  1.980358855039158E-002  1.584287084031326E-002
  1.188215313023495E-002  7.921435420156629E-003  3.960717710078312E-003
  0.000000000000000E+000  3.960717710078315E-002  3.564645939070483E-002
  3.168574168062652E-002  2.772502397054821E-002  2.376430626046989E-002
  1.980358855039158E-002  1.584287084031326E-002  1.188215313023495E-002
  7.921435420156629E-003  3.960717710078312E-003  0.000000000000000E+000
  3.960717710078315E-002  3.564645939070483E-002  3.168574168062652E-002
  2.772502397054821E-002  2.376430626046989E-002  1.980358855039158E-002
  1.584287084031326E-002  1.188215313023495E-002  7.921435420156629E-003
  3.960717710078312E-003  0.000000000000000E+000  3.960717710078315E-002
  3.564645939070483E-002  3.168574168062652E-002  2.772502397054821E-002
  2.376430626046989E-002  1.980358855039158E-002  1.584287084031326E-002
  1.188215313023495E-002  7.921435420156629E-003  3.960717710078312E-003
  0.000000000000000E+000  3.960717710078315E-002  3.564645939070483E-002
  3.168574168062652E-002  2.772502397054821E-002  2.376430626046989E-002
  1.980358855039158E-002  1.584287084031326E-002  1.188215313023495E-002
  7.921435420156629E-003  3.960717710078312E-003  0.000000000000000E+000
  3.960717710078315E-002  3.564645939070483E-002  3.168574168062652E-002
  2.772502397054821E-002  2.376430626046989E-002  1.980358855039158E-002
  1.584287084031326E-002  1.188215313023495E-002  7.921435420156629E-003
  3.960717710078312E-003  0.000000000000000E+000  3.960717710078315E-002
  3.564645939070483E-002  3.168574168062652E-002  2.772502397054821E-002
  2.376430626046989E-002  1.980358855039158E-002  1.584287084031326E-002
  1.188215313023495E-002  7.921435420156629E-003  3.960717710078312E-003
  0.000000000000000E+000
  0.355708338056562       0.486285096241440       0.576155936840713     
  0.646556305513218       0.703243973843526       0.748792346686502     
  0.785998692219406       0.817075076419950       0.843255816978449     
  0.864712965409681       0.582254758311510       0.810948040087070     
  0.967081413290059        1.08904996483109        1.18731598092079     
   1.26647904747723        1.33122274255759        1.38538677837211     
   1.43145414050827        1.47220503396811       0.749169548318105     
   1.07633757116000        1.30221932260739        1.47852376436607     
   1.62120772049857        1.73726370259825        1.83257743791611     
   1.91219567378181        1.97880474943218        2.03245346283714     
  0.840546867014421        1.23612407798000        1.51774748769989     
   1.74080258302966        1.92377506444817        2.07524824131818     
   2.19999832160479        2.30241342869330        2.38413887467419     
   2.44338112126869       0.854663431365815        1.28103343153807     
   1.59489538041802        1.84860166645899        2.06040672419242     
   2.23812772136408        2.38540218589664        2.50445654027454     
   2.59585825889638        2.65687443230223       0.792564024149322     
   1.21104236721531        1.53155134618939        1.79719205640182     
   2.02231524813476        2.21280898565397        2.37150945465234     
   2.49958151806226        2.59620583812900        2.65721827126080     
  0.706248191792001        1.08968427298835        1.39118830901548     
   1.64640319898182        1.86605256045604        2.05475145201583     
   2.21454291743752        2.34567651891538        2.44603329564134     
   2.50964798454301       0.676763221605532        1.03727579490294     
   1.31799968113341        1.55475105218165        1.75929757247156     
   1.93659216290699        2.08851693075312        2.21502946945267     
   2.31412900202223        2.37929763279279       0.738982357083820     
   1.11438788243238        1.39701793326214        1.63006176294115     
   1.82860295133991        1.99934193163779        2.14530057530949     
   2.26719402546717        2.36343130970345        2.42832389528934     
  0.862169419085945        1.28575263067188        1.59568514703455     
   1.84526766833437        2.05374331614459        2.23005507092619     
   2.37866497952474        2.50139474347363        2.59764112248824     
   2.66237319892035        1.01612858275204        1.50568728767696     
   1.85735841205827        2.13580243696260        2.36484812083460     
   2.55586475156714        2.71477915432417        2.84438805360944     
   2.94478471952944        3.01136855291425        1.18739034791558     
   1.75240438523719        2.15329606807295        2.46690768626883     
   2.72189983607300        2.93219222198658        3.10527706289301     
   3.24497046749367        3.35198036009515        3.42189754451227     
   1.36960058296272        2.01553243515781        2.46972550926485     
   2.82183311853275        3.10554469585947        3.33741303156557     
   3.52650434653315        3.67761918618914        3.79205584914132     
   3.86560318045565        1.55948334569186        2.28947709760270     
   2.79887847909846        3.19074254441869        3.50400593510525     
   3.75794679868767        3.96325435071910        4.12575077782313     
   4.24734698051865        4.32407274236142        1.75416098018443     
   2.56930724259198        3.13387379266827        3.56485250744734     
   3.90667860140691        4.18150862709434        4.40175801682452     
   4.57434305243288        4.70186355195356        4.78072191099538     
   1.94854369671196        2.84695945981171        3.46414084317612     
   3.93131844842220        4.29861973304496        4.59123332680046     
   4.82345018080065        5.00343754679321        5.13464952951075     
   5.21409418727904        2.13255121371106        3.10697774819957     
   3.77007924761373        4.26710472356301        4.65389252393649     
   4.95875382374960        5.19797321026332        5.38112031505031     
   5.51271008679306        5.59068655933777        2.28966254198362     
   3.32424631956180        4.02013569076766        4.53555329555120     
   4.93180688960536        5.24027127270178        5.47922368659334     
   5.65967819213852        5.78732878685387        5.86136228594715     
   2.39884519278064        3.46700892946553        4.17476796384369     
   4.69118474966037        5.08240662647776        5.38257290676526     
   5.61172714790504        5.78213073871425        5.90054746599606     
   5.96757914336061        2.43847143744308        3.50235500389927     
   4.19312802031639        4.68757648779171        5.05558509885520     
   5.33333173609829        5.54196987892942        5.69438490831299     
   5.79789723418973        5.85439773517452        2.38734860133252     
   3.39733640038899        4.03469050773056        4.48002980580482     
   4.80503324273491        5.04631585767489        5.22475533870052     
   5.35267296821688        5.43694017065145        5.48013340617020     
   2.22554944913919        3.12059388703989        3.66361772927848     
   4.03318283001504        4.29832962032064        4.49285062428637     
   4.63520640509317        4.73579534053708        4.80003102291371     
   4.83003823180219        1.93325682093791        2.64579862008510     
   3.05990802113706        3.33686863629032        3.53415414740806     
   3.67840139833284        3.78374029714918        3.85804510347146     
   3.90558233062851        3.92862841769552        1.48561625975508     
   1.96663870333618        2.24168830825167        2.42579197072739     
   2.55728024970132        2.65365562671310        2.72422268908318     
   2.77436379862948        2.80777002247404        2.83019971766130     
  0.905114673706727        1.17429195358409        1.32955252079176     
   1.43401294168325        1.50885533899665        1.56382554315066     
   1.60412983339844        1.63276899082800        1.65157090790913     
   1.66143026411827     
 Zone I=   91 J=1    K=1  T="NearWake"
 DATAPACKING=BLOCK
 VARLOCATION=([4]=CELLCENTERED)
  0.786501694711194       0.579288439364278       0.331617316173415     
  7.250691217624503E-002 -0.183933640859365      -0.427381053976919     
 -0.635687667885507      -0.809517209885538      -0.925291399536027     
 -0.983503444878488      -0.996678466851427      -0.940321166447273     
 -0.839306273091993      -0.681388154861165      -0.495104525086426     
 -0.253158740433750       3.293776433258499E-003  0.275735098457591     
  0.570370183232095       0.795817304937317        1.01362842111626     
   1.12979946536173        1.21797540195738        1.22640601412550     
   1.15592177802473        1.01918269958576       0.795119200762959     
  0.540978263478824       0.204738662270831      -0.124456578206813     
 -0.444922301660839      -0.725540349568426      -0.944616733403309     
  -1.11318195025572       -1.17908682273929       -1.19364136149275     
  -1.11795235566723      -0.994654558834804      -0.825196968422412     
 -0.600716383053557      -0.384465060098005      -0.110273497230143     
  0.165110070415764       0.459559665461068       0.684373824734778     
  0.844533033178161       0.992566555181643        1.11185234027123     
   1.14336772845020        1.16643982704200        1.11453804876238     
   1.03161288311941       0.861162350259766       0.715349334386722     
  0.529005357286220       0.330129181994545       8.131314201050664E-002
 -0.126782336342523      -0.379013562214564      -0.552923851166707     
 -0.724990000030402      -0.881897227954281      -0.958136434574944     
 -0.995665077097312       -1.14970054127041       -1.12839135077396     
  -1.22416598524562       -1.15440835843971       -1.18878558834317     
  -1.06176418490349       -1.08838220121996       -1.08472621148108     
 -0.975464573656127      -0.915357691437815      -0.879430979378809     
 -0.819662704258302      -0.730558077778584      -0.695408500733043     
 -0.631281096434060      -0.593217651377937      -0.515222875372921     
 -0.447018286796340      -0.370889795640845      -0.340800049375168     
 -0.269061188439961      -0.223327667805630      -0.201967967633249     
 -0.157163415003622      -0.145012702246224      -0.178840868574658     
 -0.111662746785329     
 -0.743533787889615      -0.914272373330645       -1.01075025584450     
  -1.04863274933912       -1.02237642646459      -0.933905106353504     
 -0.793304908653105      -0.606070190083639      -0.390811039837052     
 -0.152029820149800       9.742343822781675E-002  0.340137474003399     
  0.559716921501000       0.743987855800053       0.906501161372504     
   1.04709483417070        1.11094597666151        1.08807919219102     
   1.01188017901243       0.837556948985891       0.656509613496900     
  0.373911175124450       7.478868913671413E-002 -0.218933034565396     