 Title = "Wing and Wake"
 VARIABLES = "X" "Y" "Z" "GAM" "skew"
 Zone I=   17 J=   20 K=1  T="Blade 01"
 DATAPACKING=BLOCK
 VARLOCATION=([4]=CELLCENTERED,[5]=CELLCENTERED)
 -0.221663389895089      -0.222861282662184      -0.225889066894669     
 -0.230484261817816      -0.237039467200973      -0.245828848988306     
 -0.256884640713110      -0.269866539927605      -0.283942905811919     
 -0.298000997869065      -0.310945604198465      -0.322012577118232     
 -0.330866919306384      -0.337610064847954      -0.342540315501283     
 -0.346039303237059      -0.348454094645645      -0.227471095821214     
 -0.228668988588310      -0.231696772820794      -0.236291967743942     
 -0.242847173127098      -0.251636554914431      -0.262692346639235     
 -0.275674245853730      -0.289750611738045      -0.303808703795190     
 -0.316753310124590      -0.327820283044357      -0.336674625232510     
 -0.343417770774080      -0.348348021427409      -0.351847009163185     
 -0.354261800571770      -0.235684515813589      -0.236882408580684     
 -0.239910192813169      -0.244505387736316      -0.251060593119472     
 -0.259849974906806      -0.270905766631610      -0.283887665846104     
 -0.297964031730419      -0.312022123787565      -0.324966730116964     
 -0.336033703036732      -0.344888045224885      -0.351631190766454     
 -0.356561441419784      -0.360060429155559      -0.362475220564145     
 -0.247150746589873      -0.248348639356969      -0.251376423589453     
 -0.255971618512600      -0.262526823895757      -0.271316205683091     
 -0.282371997407894      -0.295353896622389      -0.309430262506704     
 -0.323488354563849      -0.336432960893249      -0.347499933813016     
 -0.356354276001169      -0.363097421542739      -0.368027672196068     
 -0.371526659931844      -0.373941451340429      -0.262872225416432     
 -0.264070118183529      -0.267097902416013      -0.271693097339160     
 -0.278248302722316      -0.287037684509650      -0.298093476234454     
 -0.311075375448948      -0.325151741333262      -0.339209833390408     
 -0.352154439719808      -0.363221412639575      -0.372075754827727     
 -0.378818900369298      -0.383749151022627      -0.387248138758403     
 -0.389662930166988      -0.283903846607670      -0.285101739374765     
 -0.288129523607249      -0.292724718530396      -0.299279923913553     
 -0.308069305700885      -0.319125097425690      -0.332106996640186     
 -0.346183362524499      -0.360241454581646      -0.373186060911045     
 -0.384253033830813      -0.393107376018964      -0.399850521560535     
 -0.404780772213865      -0.408279759949640      -0.410694551358226     
 -0.311131152820968      -0.312329045588062      -0.315356829820546     
 -0.319952024743694      -0.326507230126850      -0.335296611914184     
 -0.346352403638988      -0.359334302853483      -0.373410668737796     
 -0.387468760794943      -0.400413367124342      -0.411480340044110     
 -0.420334682232262      -0.427077827773833      -0.432008078427161     
 -0.435507066162937      -0.437921857571522      -0.344920598840937     
 -0.346118491608033      -0.349146275840517      -0.353741470763664     
 -0.360296676146821      -0.369086057934155      -0.380141849658958     
 -0.393123748873453      -0.407200114757768      -0.421258206814912     
 -0.434202813144312      -0.445269786064080      -0.454124128252233     
 -0.460867273793802      -0.465797524447132      -0.469296512182908     
 -0.471711303591493      -0.384721419506446      -0.385919312273540     
 -0.388947096506025      -0.393542291429172      -0.400097496812328     
 -0.408886878599662      -0.419942670324466      -0.432924569538961     
 -0.447000935423275      -0.461059027480421      -0.474003633809821     
 -0.485070606729588      -0.493924948917741      -0.500668094459310     
 -0.505598345112640      -0.509097332848415      -0.511512124257001     
 -0.428820063039281      -0.430017955806377      -0.433045740038860     
 -0.437640934962006      -0.444196140345165      -0.452985522132497     
 -0.464041313857301      -0.477023213071796      -0.491099578956110     
 -0.505157671013256      -0.518102277342657      -0.529169250262423     
 -0.538023592450576      -0.544766737992147      -0.549696988645475     
 -0.553195976381250      -0.555610767789835      -0.474487341524716     
 -0.475685234291810      -0.478713018524295      -0.483308213447443     
 -0.489863418830600      -0.498652800617932      -0.509708592342737     
 -0.522690491557231      -0.536766857441547      -0.550824949498691     
 -0.563769555828092      -0.574836528747859      -0.583690870936011     
 -0.590434016477581      -0.595364267130910      -0.598863254866687     
 -0.601278046275271      -0.518585985057550      -0.519783877824647     
 -0.522811662057131      -0.527406856980278      -0.533962062363434     
 -0.542751444150768      -0.553807235875571      -0.566789135090068     
 -0.580865500974380      -0.594923593031527      -0.607868199360926     
 -0.618935172280694      -0.627789514468846      -0.634532660010416     
 -0.639462910663745      -0.642961898399521      -0.645376689808108     
 -0.558386805723059      -0.559584698490155      -0.562612482722640     
 -0.567207677645785      -0.573762883028942      -0.582552264816275     
 -0.593608056541079      -0.606589955755574      -0.620666321639889     
 -0.634724413697034      -0.647669020026435      -0.658735992946203     
 -0.667590335134354      -0.674333480675926      -0.679263731329252     
 -0.682762719065029      -0.685177510473615      -0.592176251743030     
 -0.593374144510123      -0.596401928742609      -0.600997123665756     
 -0.607552329048913      -0.616341710836246      -0.627397502561050     
 -0.640379401775545      -0.654455767659861      -0.668513859717004     
 -0.681458466046404      -0.692525438966173      -0.701379781154325     
 -0.708122926695896      -0.713053177349224      -0.716552165085000     
 -0.718966956493585      -0.619403557956327      -0.620601450723424     
 -0.623629234955907      -0.628224429879055      -0.634779635262209     
 -0.643569017049543      -0.654624808774348      -0.667606707988842     
 -0.681683073873157      -0.695741165930304      -0.708685772259702     
 -0.719752745179469      -0.728607087367623      -0.735350232909193     
 -0.740280483562521      -0.743779471298297      -0.746194262706883     
 -0.640435179147564      -0.641633071914660      -0.644660856147145     
 -0.649256051070290      -0.655811256453445      -0.664600638240779     
 -0.675656429965586      -0.688638329180079      -0.702714695064394     
 -0.716772787121539      -0.729717393450939      -0.740784366370706     
 -0.749638708558858      -0.756381854100428      -0.761312104753758     
 -0.764811092489534      -0.767225883898121      -0.656156657974123     
 -0.657354550741220      -0.660382334973700      -0.664977529896849     
 -0.671532735280007      -0.680322117067340      -0.691377908792144     
 -0.704359808006638      -0.718436173890952      -0.732494265948098     
 -0.745438872277499      -0.756505845197265      -0.765360187385418     
 -0.772103332926988      -0.777033583580316      -0.780532571316093     
 -0.782947362724678      -0.667622888750407      -0.668820781517503     
 -0.671848565749988      -0.676443760673135      -0.682998966056291     
 -0.691788347843624      -0.702844139568429      -0.715826038782924     
 -0.729902404667237      -0.743960496724383      -0.756905103053782     
 -0.767972075973551      -0.776826418161704      -0.783569563703272     
 -0.788499814356602      -0.791998802092377      -0.794413593500963     
 -0.675836308742783      -0.677034201509879      -0.680061985742361     
 -0.684657180665507      -0.691212386048666      -0.700001767835996     
 -0.711057559560803      -0.724039458775298      -0.738115824659611     
 -0.752173916716755      -0.765118523046156      -0.776185495965925     
 -0.785039838154079      -0.791782983695648      -0.796713234348974     
 -0.800212222084753      -0.802627013493337      -0.681644014668907     
 -0.682841907436002      -0.685869691668487      -0.690464886591632     
 -0.697020091974791      -0.705809473762124      -0.716865265486927     
 -0.729847164701421      -0.743923530585738      -0.757981622642883     
 -0.770926228972281      -0.781993201892051      -0.790847544080202     
 -0.797590689621773      -0.802520940275098      -0.806019928010876     
 -0.808434719419463     
 -0.374115123339686      -0.373013637011469      -0.370229528927272     
 -0.366004155402721      -0.359976513107403      -0.351894500978973     
 -0.341728479639675      -0.329791363988060      -0.316847864370691     
 -0.303921167902440      -0.292018343803625      -0.281842041132205     
 -0.273700296617585      -0.267499839592351      -0.262966375630889     
 -0.259748986512747      -0.257528537575151      -0.380431142652959     
 -0.379329656324742      -0.376545548240546      -0.372320174715994     
 -0.366292532420676      -0.358210520292246      -0.348044498952950     
 -0.336107383301333      -0.323163883683966      -0.310237187215714     
 -0.298334363116898      -0.288158060445479      -0.280016315930860     
 -0.273815858905625      -0.269282394944163      -0.266065005826021     
 -0.263844556888424      -0.389363433640095      -0.388261947311878     
 -0.385477839227682      -0.381252465703129      -0.375224823407812     
 -0.367142811279383      -0.356976789940084      -0.345039674288469     
 -0.332096174671101      -0.319169478202850      -0.307266654104034     
 -0.297090351432615      -0.288948606917995      -0.282748149892760     
 -0.278214685931299      -0.274997296813156      -0.272776847875560     
 -0.401833234273023      -0.400731747944807      -0.397947639860611     
 -0.393722266336059      -0.387694624040740      -0.379612611912312     
 -0.369446590573014      -0.357509474921398      -0.344565975304030     
 -0.331639278835778      -0.319736454736963      -0.309560152065543     
 -0.301418407550924      -0.295217950525690      -0.290684486564228     
 -0.287467097446085      -0.285246648508488      -0.418930719091442     
 -0.417829232763225      -0.415045124679029      -0.410819751154477     
 -0.404792108859159      -0.396710096730730      -0.386544075391432     
 -0.374606959739816      -0.361663460122448      -0.348736763654197     
 -0.336833939555381      -0.326657636883962      -0.318515892369342     
 -0.312315435344108      -0.307781971382646      -0.304564582264503     
 -0.302344133326907      -0.441803110931352      -0.440701624603134     
 -0.437917516518938      -0.433692142994386      -0.427664500699068     
 -0.419582488570638      -0.409416467231341      -0.397479351579726     
 -0.384535851962357      -0.371609155494106      -0.359706331395291     
 -0.349530028723872      -0.341388284209251      -0.335187827184017     
 -0.330654363222556      -0.327436974104413      -0.325216525166817     
 -0.471413458645070      -0.470311972316853      -0.467527864232656     
 -0.463302490708104      -0.457274848412786      -0.449192836284358     
 -0.439026814945060      -0.427089699293445      -0.414146199676075     
 -0.401219503207825      -0.389316679109010      -0.379140376437589     
 -0.370998631922970      -0.364798174897736      -0.360264710936273     
 -0.357047321818131      -0.354826872880535      -0.508160290588973     
 -0.507058804260758      -0.504274696176561      -0.500049322652008     
 -0.494021680356691      -0.485939668228261      -0.475773646888963     
 -0.463836531237349      -0.450893031619980      -0.437966335151728     
 -0.426063511052913      -0.415887208381493      -0.407745463866873     
 -0.401545006841639      -0.397011542880178      -0.393794153762035     
 -0.391573704824438      -0.551444636457222      -0.550343150129003     
 -0.547559042044807      -0.543333668520256      -0.537306026224938     
 -0.529224014096509      -0.519057992757212      -0.507120877105596     
 -0.494177377488227      -0.481250681019977      -0.469347856921161     
 -0.459171554249740      -0.451029809735122      -0.444829352709887     
 -0.440295888748424      -0.437078499630282      -0.434858050692686     
 -0.599402967644346      -0.598301481316130      -0.595517373231933     
 -0.591291999707380      -0.585264357412064      -0.577182345283633     
 -0.567016323944335      -0.555079208292720      -0.542135708675352     
 -0.529209012207101      -0.517306188108286      -0.507129885436866     
 -0.498988140922246      -0.492787683897013      -0.488254219935549     
 -0.485036830817407      -0.482816381879810      -0.649067226917727     
 -0.647965740589511      -0.645181632505315      -0.640956258980762     
 -0.634928616685445      -0.626846604557015      -0.616680583217719     
 -0.604743467566101      -0.591799967948735      -0.578873271480483     
 -0.566970447381667      -0.556794144710247      -0.548652400195628     
 -0.542451943170393      -0.537918479208931      -0.534701090090789     
 -0.532480641153192      -0.697025558104852      -0.695924071776636     
 -0.693139963692439      -0.688914590167887      -0.682886947872568     
 -0.674804935744140      -0.664638914404842      -0.652701798753227     
 -0.639758299135859      -0.626831602667607      -0.614928778568792     
 -0.604752475897373      -0.596610731382753      -0.590410274357518     
 -0.585876810396056      -0.582659421277913      -0.580438972340318     
 -0.740309903973099      -0.739208417644884      -0.736424309560686     
 -0.732198936036134      -0.726171293740817      -0.718089281612388     
 -0.707923260273091      -0.695986144621474      -0.683042645004106     
 -0.670115948535854      -0.658213124437039      -0.648036821765621     
 -0.639895077251001      -0.633694620225767      -0.629161156264304     
 -0.625943767146161      -0.623723318208565      -0.777056735917004     
 -0.775955249588786      -0.773171141504590      -0.768945767980038     
 -0.762918125684722      -0.754836113556291      -0.744670092216993     
 -0.732732976565379      -0.719789476948011      -0.706862780479758     
 -0.694959956380943      -0.684783653709524      -0.676641909194904     
 -0.670441452169671      -0.665907988208210      -0.662690599090065     
 -0.660470150152468      -0.806667083630723      -0.805565597302507     
 -0.802781489218309      -0.798556115693758      -0.792528473398438     
 -0.784446461270011      -0.774280439930712      -0.762343324279095     
 -0.749399824661728      -0.736473128193478      -0.724570304094661     
 -0.714394001423242      -0.706252256908624      -0.700051799883389     
 -0.695518335921927      -0.692300946803784      -0.690080497866187     
 -0.829539475470631      -0.828437989142416      -0.825653881058218     
 -0.821428507533666      -0.815400865238348      -0.807318853109919     
 -0.797152831770622      -0.785215716119006      -0.772272216501638     
 -0.759345520033386      -0.747442695934571      -0.737266393263151     
 -0.729124648748531      -0.722924191723296      -0.718390727761836     
 -0.715173338643693      -0.712952889706098      -0.846636960289051     
 -0.845535473960836      -0.842751365876635      -0.838525992352085     
 -0.832498350056768      -0.824416337928337      -0.814250316589040     
 -0.802313200937424      -0.789369701320055      -0.776443004851804     
 -0.764540180752991      -0.754363878081570      -0.746222133566951     
 -0.740021676541716      -0.735488212580254      -0.732270823462111     
 -0.730050374524513      -0.859106760921978      -0.858005274593763     
 -0.855221166509568      -0.850995792985014      -0.844968150689696     
 -0.836886138561266      -0.826720117221969      -0.814783001570354     
 -0.801839501952986      -0.788912805484734      -0.777009981385918     
 -0.766833678714499      -0.758691934199880      -0.752491477174644     
 -0.747958013213182      -0.744740624095039      -0.742520175157443     
 -0.868039051909116      -0.866937565580898      -0.864153457496702     
 -0.859928083972147      -0.853900441676832      -0.845818429548399     
 -0.835652408209105      -0.823715292557490      -0.810771792940121     
 -0.797845096471868      -0.785942272373053      -0.775765969701634     
 -0.767624225187017      -0.761423768161780      -0.756890304200317     
 -0.753672915082176      -0.751452466144579      -0.874355071222387     
 -0.873253584894170      -0.870469476809973      -0.866244103285421     
 -0.860216460990105      -0.852134448861676      -0.841968427522376     
 -0.830031311870761      -0.817087812253396      -0.804161115785141     
 -0.792258291686327      -0.782081989014909      -0.773940244500288     
 -0.767739787475055      -0.763206323513590      -0.759988934395450     
 -0.757768485457853     
 -0.861900000000000      -0.861198250160462      -0.859274705714126     
 -0.856469691008942      -0.853210543366638      -0.849381928232883     
 -0.844860973981103      -0.839764655353441      -0.834280691189070     
 -0.828815401108890      -0.823788006353202      -0.819496643118425     
 -0.816057233005663      -0.813443018604849      -0.811531673430508     
 -0.810174731185110      -0.809239441166694      -0.861900000000000     
 -0.861198250160462      -0.859274705714126      -0.856469691008942     
 -0.853210543366638      -0.849381928232883      -0.844860973981103     
 -0.839764655353441      -0.834280691189070      -0.828815401108890     
 -0.823788006353202      -0.819496643118425      -0.816057233005663     
 -0.813443018604849      -0.811531673430508      -0.810174731185110     
 -0.809239441166694      -0.861900000000000      -0.861198250160462     
 -0.859274705714126      -0.856469691008942      -0.853210543366638     
 -0.849381928232883      -0.844860973981103      -0.839764655353441     
 -0.834280691189070      -0.828815401108890      -0.823788006353202     
 -0.819496643118425      -0.816057233005663      -0.813443018604849     
 -0.811531673430508      -0.810174731185110      -0.809239441166694     
 -0.861900000000000      -0.861198250160462      -0.859274705714126     
 -0.856469691008942      -0.853210543366638      -0.849381928232883     
 -0.844860973981103      -0.839764655353441      -0.834280691189070     
 -0.828815401108890      -0.823788006353202      -0.819496643118425     
 -0.816057233005663      -0.813443018604849      -0.811531673430508     
 -0.810174731185110      -0.809239441166694      -0.861900000000000     
 -0.861198250160462      -0.859274705714126      -0.856469691008942     
 -0.853210543366638      -0.849381928232883      -0.844860973981103     
 -0.839764655353441      -0.834280691189070      -0.828815401108890     
 -0.823788006353202      -0.819496643118425      -0.816057233005663     
 -0.813443018604849      -0.811531673430508      -0.810174731185110     
 -0.809239441166694      -0.861900000000000      -0.861198250160462     
 -0.859274705714126      -0.856469691008942      -0.853210543366638     
 -0.849381928232883      -0.844860973981103      -0.839764655353441     
 -0.834280691189070      -0.828815401108890      -0.823788006353202     
 -0.819496643118425      -0.816057233005663      -0.813443018604849     
 -0.811531673430508      -0.810174731185110      -0.809239441166694     
 -0.861900000000000      -0.861198250160462      -0.859274705714126     
 -0.856469691008942      -0.853210543366638      -0.849381928232883     
 -0.844860973981103      -0.839764655353441      -0.834280691189070     
 -0.828815401108890      -0.823788006353202      -0.819496643118425     
 -0.816057233005663      -0.813443018604849      -0.811531673430508     
 -0.810174731185110      -0.809239441166694      -0.861900000000000     
 -0.861198250160462      -0.859274705714126      -0.856469691008942     
 -0.853210543366638      -0.849381928232883      -0.844860973981103     
 -0.839764655353441      -0.834280691189070      -0.828815401108890     
 -0.823788006353202      -0.819496643118425      -0.816057233005663     
 -0.813443018604849      -0.811531673430508      -0.810174731185110     
 -0.809239441166694      -0.861900000000000      -0.861198250160462     
 -0.859274705714126      -0.856469691008942      -0.853210543366638     
 -0.849381928232883      -0.844860973981103      -0.839764655353441     
 -0.834280691189070      -0.828815401108890      -0.823788006353202     
 -0.819496643118425      -0.816057233005663      -0.813443018604849     
 -0.811531673430508      -0.810174731185110      -0.809239441166694     
 -0.861900000000000      -0.861198250160462      -0.859274705714126     
 -0.856469691008942      -0.853210543366638      -0.849381928232883     
 -0.844860973981103      -0.839764655353441      -0.834280691189070     
 -0.828815401108890      -0.823788006353202      -0.819496643118425     
 -0.816057233005663      -0.813443018604849      -0.811531673430508     
 -0.810174731185110      -0.809239441166694      -0.861900000000000     
 -0.861198250160462      -0.859274705714126      -0.856469691008942     
 -0.853210543366638      -0.849381928232883      -0.844860973981103     
 -0.839764655353441      -0.834280691189070      -0.828815401108890     
 -0.823788006353202      -0.819496643118425      -0.816057233005663     
 -0.813443018604849      -0.811531673430508      -0.810174731185110     
 -0.809239441166694      -0.861900000000000      -0.861198250160462     
 -0.859274705714126      -0.856469691008942      -0.853210543366638     
 -0.849381928232883      -0.844860973981103      -0.839764655353441     
 -0.834280691189070      -0.828815401108890      -0.823788006353202     
 -0.819496643118425      -0.816057233005663      -0.813443018604849     
 -0.811531673430508      -0.810174731185110      -0.809239441166694     
 -0.861900000000000      -0.861198250160462      -0.859274705714126     
 -0.856469691008942      -0.853210543366638      -0.849381928232883     
 -0.844860973981103      -0.839764655353441      -0.834280691189070     
 -0.828815401108890      -0.823788006353202      -0.819496643118425     
 -0.816057233005663      -0.813443018604849      -0.811531673430508     
 -0.810174731185110      -0.809239441166694      -0.861900000000000     
 -0.861198250160462      -0.859274705714126      -0.856469691008942     
 -0.853210543366638      -0.849381928232883      -0.844860973981103     
 -0.839764655353441      -0.834280691189070      -0.828815401108890     
 -0.823788006353202      -0.819496643118425      -0.816057233005663     
 -0.813443018604849      -0.811531673430508      -0.810174731185110     
 -0.809239441166694      -0.861900000000000      -0.861198250160462     
 -0.859274705714126      -0.856469691008942      -0.853210543366638     
 -0.849381928232883      -0.844860973981103      -0.839764655353441     
 -0.834280691189070      -0.828815401108890      -0.823788006353202     
 -0.819496643118425      -0.816057233005663      -0.813443018604849     
 -0.811531673430508      -0.810174731185110      -0.809239441166694     
 -0.861900000000000      -0.861198250160462      -0.859274705714126     
 -0.856469691008942      -0.853210543366638      -0.849381928232883     
 -0.844860973981103      -0.839764655353441      -0.834280691189070     
 -0.828815401108890      -0.823788006353202      -0.819496643118425     
 -0.816057233005663      -0.813443018604849      -0.811531673430508     
 -0.810174731185110      -0.809239441166694      -0.861900000000000     
 -0.861198250160462      -0.859274705714126      -0.856469691008942     
 -0.853210543366638      -0.849381928232883      -0.844860973981103     
 -0.839764655353441      -0.834280691189070      -0.828815401108890     
 -0.823788006353202      -0.819496643118425      -0.816057233005663     
 -0.813443018604849      -0.811531673430508      -0.810174731185110     
 -0.809239441166694      -0.861900000000000      -0.861198250160462     
 -0.859274705714126      -0.856469691008942      -0.853210543366638     
 -0.849381928232883      -0.844860973981103      -0.839764655353441     
 -0.834280691189070      -0.828815401108890      -0.823788006353202     
 -0.819496643118425      -0.816057233005663      -0.813443018604849     
 -0.811531673430508      -0.810174731185110      -0.809239441166694     
 -0.861900000000000      -0.861198250160462      -0.859274705714126     
 -0.856469691008942      -0.853210543366638      -0.849381928232883     
 -0.844860973981103      -0.839764655353441      -0.834280691189070     
 -0.828815401108890      -0.823788006353202      -0.819496643118425     
 -0.816057233005663      -0.813443018604849      -0.811531673430508     
 -0.810174731185110      -0.809239441166694      -0.861900000000000     
 -0.861198250160462      -0.859274705714126      -0.856469691008942     
 -0.853210543366638      -0.849381928232883      -0.844860973981103     
 -0.839764655353441      -0.834280691189070      -0.828815401108890     
 -0.823788006353202      -0.819496643118425      -0.816057233005663     
 -0.813443018604849      -0.811531673430508      -0.810174731185110     
 -0.809239441166694     
 -0.412442724828735      -0.812466897256612       -1.09448114057546     
  -1.27248382761356       -1.42614440949465       -1.57870736464746     
  -1.72288902491971       -1.85781005432273       -1.96974736605705     
  -2.05352427558424       -2.10964830242106       -2.14318695392544     
  -2.15862893208617       -2.16370805941052       -2.16481267475706     
  -2.16625792420547      -0.558506156565348       -1.13451526091518     
  -1.58852012829649       -1.91510041772675       -2.19392351467112     
  -2.45717929596236       -2.70071015239456       -2.92451399923286     
  -3.11107068518142       -3.25402800606087       -3.35603778163308     
  -3.42662090877590       -3.47486347655188       -3.51090924720987     
  -3.53777272584638       -3.55358247799451      -0.675017191404573     
  -1.38357848149417       -1.97016483103175       -2.42968763983657     
  -2.83702519744607       -3.21858068854608       -3.56796102586789     
  -3.88484005774755       -4.15035033738046       -4.35848346504692     
  -4.51433590666091       -4.62989531649463       -4.71395435398347     
  -4.77371987732437       -4.81155790580262       -4.82995543932794     
 -0.786413428741981       -1.61823372416276       -2.32419710525010     
  -2.90511450667902       -3.43886361367720       -3.94618157211295     
  -4.41308429953576       -4.83484256987674       -5.18996348925355     
  -5.47195959892901       -5.68619403549645       -5.84392710921819     
  -5.95327734097809       -6.02409538661359       -6.06459126108642     
  -6.08269901535566      -0.901231448624358       -1.85825234170146     
  -2.68201161612228       -3.37973286165901       -4.03647244326419     
  -4.67127274340703       -5.26261679616305       -5.79831171542539     
  -6.25044420705427       -6.60887725829733       -6.87728302969738     
  -7.06765879974414       -7.19247159690011       -7.26841674778321     
  -7.30961048915673       -7.32733239356881       -1.02263460767304     
  -2.11088746657306       -3.05535336079786       -3.86899230636453     
  -4.64585728277549       -5.40548056800681       -6.12018050803476     
  -6.76970649918188       -7.31700820928243       -7.74636805327933     
  -8.06070794431556       -8.27618488095908       -8.41217462746367     
  -8.49208460134278       -8.53428414936010       -8.55209377613394     
  -1.14976197921745       -2.37461771019371       -3.44236084750221     
  -4.37059085804047       -5.26333387687681       -6.14131570953236     
  -6.97136488353469       -7.72600921625659       -8.35919753624517     
  -8.85047694885456       -9.20376623811185       -9.44064658447389     
  -9.58691725932496       -9.67130316942904       -9.71525321102708     
  -9.73361333903390       -1.27836293903080       -2.64078536412590     
  -3.83053664032018       -4.86852305916976       -5.86949775227305     
  -6.85574311913520       -7.78911284252796       -8.63646827487663     
  -9.34437697259288       -9.88927874982063       -10.2768585967416     
  -10.5336093074022       -10.6903559454973       -10.7799539717393     
  -10.8262905583448       -10.8455437617236       -1.40222783208311     
  -2.89668128085549       -4.20159322514699       -5.33975925408645     
  -6.43727255182196       -7.51851406807538       -8.54118730921629     
  -9.46826507769953       -10.2405711233595       -10.8324825596629     
  -11.2512725810227       -11.5272291307119       -11.6948663750034     
  -11.7903244924219       -11.8395456131921       -11.8599487853119     
  -1.51432313453910       -3.12786049263347       -4.53478680720121     
  -5.75837166429270       -6.93624710140267       -8.09555952805270     
  -9.19106268191904       -10.1837165891740       -11.0100857298701     
  -11.6429832906394       -12.0905285500993       -12.3854193911518     
  -12.5645616256429       -12.6666175461652       -12.7192601939805     
  -12.7410854369207       -1.60641143199221       -3.31726228547008     
  -4.80533117416556       -6.09284905656948       -7.32838746814589     
  -8.54245302533421       -9.68849629188099       -10.7277585955553     
  -11.5944687889156       -12.2603841116020       -12.7334005490114     
  -13.0468052233343       -13.2382592345905       -13.3479206666387     
  -13.4047358149989       -13.4283698374303       -1.66799134945123     
  -3.44297665526517       -4.98086876067025       -6.30093237174106     
  -7.56100413218713       -8.79533022245852       -9.95825000747794     
  -11.0144706433898       -11.8990098782877       -12.5837775813976     
  -13.0752983037724       -13.4049890771840       -13.6089077738509     
  -13.7270866692716       -13.7889147374693       -13.8148301702474     
  -1.68839893508250       -3.48265683198776       -5.02801108842466     
  -6.33816953452697       -7.57749125864015       -8.78400639696876     
  -9.91553362155538       -10.9444187879279       -11.8111790416075     
  -12.4904477132662       -12.9866861751147       -13.3264523311660     