 Title = "Wing and Wake"
 VARIABLES = "X" "Y" "Z" "GAM"
 Zone I=   26 J=   25 K=1  T="Blade"
 DATAPACKING=BLOCK
 VARLOCATION=([4]=CELLCENTERED)
 -4.268991472756115E-002 -4.099109695121288E-002 -3.929227917486457E-002
 -3.759346139851632E-002 -3.589464362216795E-002 -3.419582584581965E-002
 -3.249700806947133E-002 -3.079819029312305E-002 -2.909937251677483E-002
 -2.740055474042652E-002 -2.570173696407823E-002 -2.400291918772993E-002
 -2.230410141138161E-002 -2.060528363503334E-002 -1.890646585868501E-002
 -1.720764808233677E-002 -1.550883030598846E-002 -1.381001252964010E-002
 -1.211119475329182E-002 -1.041237697694356E-002 -8.713559200595213E-003
 -7.014741424246921E-003 -5.315923647898650E-003 -3.617105871550411E-003
 -1.918288095202102E-003 -2.194703188537755E-004 -4.268547636968111E-002
 -4.098665859333271E-002 -3.928784081698452E-002 -3.758902304063610E-002
 -3.589020526428786E-002 -3.419138748793965E-002 -3.249256971159126E-002
 -3.079375193524299E-002 -2.909493415889471E-002 -2.739611638254643E-002
 -2.569729860619818E-002 -2.399848082984975E-002 -2.229966305350155E-002
 -2.060084527715323E-002 -1.890202750080490E-002 -1.720320972445658E-002
 -1.550439194810830E-002 -1.380557417176005E-002 -1.210675639541175E-002
 -1.040793861906338E-002 -8.709120842715141E-003 -7.010303066366848E-003
 -5.311485290018549E-003 -3.612667513670250E-003 -1.913849737321930E-003
 -2.150319609736455E-004 -4.267223723757460E-002 -4.097341946122623E-002
 -3.927460168487799E-002 -3.757578390852973E-002 -3.587696613218147E-002
 -3.417814835583312E-002 -3.247933057948490E-002 -3.078051280313655E-002
 -2.908169502678822E-002 -2.738287725043984E-002 -2.568405947409159E-002
 -2.398524169774335E-002 -2.228642392139503E-002 -2.058760614504674E-002
 -1.888878836869845E-002 -1.718997059235021E-002 -1.549115281600192E-002
 -1.379233503965366E-002 -1.209351726330522E-002 -1.039469948695702E-002
 -8.695881710608718E-003 -6.997063934260433E-003 -5.298246157912183E-003
 -3.599428381563819E-003 -1.900610605215502E-003 -2.017928288672002E-004
 -4.265042385646272E-002 -4.095160608011458E-002 -3.925278830376606E-002
 -3.755397052741784E-002 -3.585515275106958E-002 -3.415633497472129E-002
 -3.245751719837296E-002 -3.075869942202460E-002 -2.905988164567630E-002
 -2.736106386932812E-002 -2.566224609297980E-002 -2.396342831663144E-002
 -2.226461054028322E-002 -2.056579276393492E-002 -1.886697498758667E-002
 -1.716815721123838E-002 -1.546933943488999E-002 -1.377052165854174E-002
 -1.207170388219341E-002 -1.037288610584518E-002 -8.674068329496902E-003
 -6.975250553148497E-003 -5.276432776800277E-003 -3.577615000451958E-003
 -1.878797224103611E-003 -1.799794477553256E-004 -4.262040945934404E-002
 -4.092159168299580E-002 -3.922277390664747E-002 -3.752395613029916E-002
 -3.582513835395092E-002 -3.412632057760264E-002 -3.242750280125431E-002
 -3.072868502490593E-002 -2.902986724855778E-002 -2.733104947220948E-002
 -2.563223169586114E-002 -2.393341391951283E-002 -2.223459614316452E-002
 -2.053577836681618E-002 -1.883696059046793E-002 -1.713814281411968E-002
 -1.543932503777138E-002 -1.374050726142307E-002 -1.204168948507478E-002
 -1.034287170872649E-002 -8.644053932378194E-003 -6.945236156029934E-003
 -5.246418379681641E-003 -3.547600603333389E-003 -1.848782826985059E-003
 -1.499650506367208E-004 -4.258270760087492E-002 -4.088388982452665E-002
 -3.918507204817830E-002 -3.748625427182999E-002 -3.578743649548183E-002
 -3.408861871913339E-002 -3.238980094278508E-002 -3.069098316643687E-002
 -2.899216539008854E-002 -2.729334761374033E-002 -2.559452983739203E-002
 -2.389571206104354E-002 -2.219689428469549E-002 -2.049807650834700E-002
 -1.879925873199875E-002 -1.710044095565047E-002 -1.540162317930212E-002
 -1.370280540295393E-002 -1.200398762660553E-002 -1.030516985025727E-002
 -8.606352073909014E-003 -6.907534297560776E-003 -5.208716521212466E-003
 -3.509898744864178E-003 -1.811080968515840E-003 -1.122631921676503E-004
 -4.253796337030654E-002 -4.083914559395827E-002 -3.914032781761008E-002
 -3.744151004126166E-002 -3.574269226491344E-002 -3.404387448856498E-002
 -3.234505671221686E-002 -3.064623893586862E-002 -2.894742115952030E-002
 -2.724860338317206E-002 -2.554978560682367E-002 -2.385096783047535E-002
 -2.215215005412694E-002 -2.045333227777894E-002 -1.875451450143041E-002
 -1.705569672508216E-002 -1.535687894873391E-002 -1.365806117238554E-002
 -1.195924339603725E-002 -1.026042561968907E-002 -8.561607843340710E-003
 -6.862790066992423E-003 -5.163972290644155E-003 -3.465154514295873E-003
 -1.766336737947570E-003 -6.751896159917179E-005 -4.248694235382951E-002
 -4.078812457748113E-002 -3.908930680113296E-002 -3.739048902478470E-002
 -3.569167124843637E-002 -3.399285347208805E-002 -3.229403569573979E-002
 -3.059521791939153E-002 -2.889640014304314E-002 -2.719758236669491E-002
 -2.549876459034658E-002 -2.379994681399831E-002 -2.210112903765001E-002
 -2.040231126130164E-002 -1.870349348495335E-002 -1.700467570860501E-002
 -1.530585793225684E-002 -1.360704015590854E-002 -1.190822237956016E-002
 -1.020940460321203E-002 -8.510586826863760E-003 -6.811769050515436E-003
 -5.112951274167085E-003 -3.414133497818894E-003 -1.715315721470550E-003
 -1.649794512217209E-005 -4.243051753518146E-002 -4.073169975883319E-002
 -3.903288198248486E-002 -3.733406420613656E-002 -3.563524642978829E-002
 -3.393642865343986E-002 -3.223761087709157E-002 -3.053879310074330E-002
 -2.883997532439509E-002 -2.714115754804680E-002 -2.544233977169849E-002
 -2.374352199535011E-002 -2.204470421900197E-002 -2.034588644265354E-002
 -1.864706866630517E-002 -1.694825088995694E-002 -1.524943311360873E-002
 -1.355061533726055E-002 -1.185179756091201E-002 -1.015297978456386E-002
 -8.454162008215473E-003 -6.755344231867246E-003 -5.056526455518869E-003
 -3.357708679170614E-003 -1.658890902822389E-003  3.992687352599582E-005
 -4.236965435865310E-002 -4.067083658230494E-002 -3.897201880595650E-002
 -3.727320102960823E-002 -3.557438325325993E-002 -3.387556547691179E-002
 -3.217674770056338E-002 -3.047792992421501E-002 -2.877911214786691E-002
 -2.708029437151850E-002 -2.538147659517021E-002 -2.368265881882205E-002
 -2.198384104247363E-002 -2.028502326612537E-002 -1.858620548977709E-002
 -1.688738771342876E-002 -1.518856993708049E-002 -1.348975216073211E-002
 -1.179093438438398E-002 -1.009211660803567E-002 -8.393298831687337E-003
 -6.694481055338936E-003 -4.995663278990656E-003 -3.296845502642312E-003
 -1.598027726294065E-003  1.007900500540904E-004 -4.230539421006969E-002
 -4.060657643372150E-002 -3.890775865737318E-002 -3.720894088102480E-002
 -3.551012310467663E-002 -3.381130532832813E-002 -3.211248755197994E-002
 -3.041366977563171E-002 -2.871485199928331E-002 -2.701603422293497E-002
 -2.531721644658683E-002 -2.361839867023847E-002 -2.191958089389008E-002
 -2.022076311754204E-002 -1.852194534119355E-002 -1.682312756484518E-002
 -1.512430978849700E-002 -1.342549201214868E-002 -1.172667423580045E-002
 -1.002785645945210E-002 -8.329038683103758E-003 -6.630220906755562E-003
 -4.931403130407280E-003 -3.232585354058797E-003 -1.533767577710662E-003
  1.650501986376626E-004 -4.223883659838942E-002 -4.054001882204126E-002
 -3.884120104569272E-002 -3.714238326934470E-002 -3.544356549299645E-002
 -3.374474771664803E-002 -3.204592994029962E-002 -3.034711216395133E-002
 -2.864829438760318E-002 -2.694947661125497E-002 -2.525065883490662E-002
 -2.355184105855816E-002 -2.185302328220987E-002 -2.015420550586162E-002
 -1.845538772951347E-002 -1.675656995316510E-002 -1.505775217681682E-002
 -1.335893440046843E-002 -1.166011662412031E-002 -9.961298847771896E-003
 -8.262481071423440E-003 -6.563663295075387E-003 -4.864845518726961E-003
 -3.166027742378590E-003 -1.467209966030398E-003  2.316078103178910E-004
 -4.217112034280178E-002 -4.047230256645337E-002 -3.877348479010510E-002
 -3.707466701375689E-002 -3.537584923740866E-002 -3.367703146106019E-002
 -3.197821368471200E-002 -3.027939590836373E-002 -2.858057813201538E-002
 -2.688176035566711E-002 -2.518294257931900E-002 -2.348412480297054E-002
 -2.178530702662219E-002 -2.008648925027395E-002 -1.838767147392556E-002
 -1.668885369757718E-002 -1.499003592122909E-002 -1.329121814488083E-002
 -1.159240036853249E-002 -9.893582592184156E-003 -8.194764815835854E-003
 -6.495947039487494E-003 -4.797129263139207E-003 -3.098311486790779E-003
 -1.399493710442744E-003  2.993240659057807E-004 -4.210340408721400E-002
 -4.040458631086577E-002 -3.870576853451738E-002 -3.700695075816894E-002
 -3.530813298182075E-002 -3.360931520547240E-002 -3.191049742912425E-002
 -3.021167965277603E-002 -2.851286187642767E-002 -2.681404410007930E-002
 -2.511522632373104E-002 -2.341640854738266E-002 -2.171759077103459E-002
 -2.001877299468607E-002 -1.831995521833788E-002 -1.662113744198954E-002
 -1.492231966564118E-002 -1.322350188929317E-002 -1.152468411294453E-002
 -9.825866336596011E-003 -8.127048560248087E-003 -6.428230783899730E-003
 -4.729413007551469E-003 -3.030595231203113E-003 -1.331777454854810E-003
  3.670403214934646E-004 -4.203684647553360E-002 -4.033802869918546E-002
 -3.863921092283685E-002 -3.694039314648893E-002 -3.524157537014080E-002
 -3.354275759379220E-002 -3.184393981744395E-002 -3.014512204109565E-002
 -2.844630426474750E-002 -2.674748648839893E-002 -2.504866871205066E-002
 -2.334985093570271E-002 -2.165103315935410E-002 -1.995221538300588E-002
 -1.825339760665792E-002 -1.655457983030929E-002 -1.485576205396113E-002
 -1.315694427761245E-002 -1.145812650126441E-002 -9.759308724915943E-003
 -8.060490948567907E-003 -6.361673172219753E-003 -4.662855395871217E-003
 -2.964037619523068E-003 -1.265219843174709E-003  4.335979331736472E-004
 -4.197258632695009E-002 -4.027376855060188E-002 -3.857495077425390E-002
 -3.687613299790560E-002 -3.517731522155736E-002 -3.347849744520858E-002
 -3.177967966886050E-002 -3.008086189251233E-002 -2.838204411616388E-002
 -2.668322633981541E-002 -2.498440856346735E-002 -2.328559078711906E-002
 -2.158677301077068E-002 -1.988795523442251E-002 -1.818913745807410E-002
 -1.649031968172604E-002 -1.479150190537751E-002 -1.309268412902919E-002
 -1.139386635268106E-002 -9.695048576332820E-003 -7.996230799984292E-003
 -6.297413023636184E-003 -4.598595247287941E-003 -2.899777470939471E-003
 -1.200959694591407E-003  4.978580817570071E-004 -4.191172315042201E-002
 -4.021290537407368E-002 -3.851408759772548E-002 -3.681526982137726E-002
 -3.511645204502893E-002 -3.341763426868053E-002 -3.171881649233237E-002
 -3.001999871598390E-002 -2.832118093963562E-002 -2.662236316328721E-002
 -2.492354538693912E-002 -2.322472761059068E-002 -2.152590983424268E-002
 -1.982709205789439E-002 -1.812827428154580E-002 -1.642945650519739E-002
 -1.473063872884937E-002 -1.303182095250093E-002 -1.133300317615274E-002
 -9.634185399804132E-003 -7.935367623455859E-003 -6.236549847107707E-003
 -4.537732070759351E-003 -2.838914294411078E-003 -1.140096518062928E-003
  5.587212582854859E-004 -4.185529833177394E-002 -4.015648055542568E-002
 -3.845766277907760E-002 -3.675884500272930E-002 -3.506002722638064E-002
 -3.336120945003256E-002 -3.166239167368400E-002 -2.996357389733602E-002
 -2.826475612098730E-002 -2.656593834463920E-002 -2.486712056829074E-002
 -2.316830279194260E-002 -2.146948501559447E-002 -1.977066723924613E-002
 -1.807184946289781E-002 -1.637303168654950E-002 -1.467421391020112E-002
 -1.297539613385282E-002 -1.127657835750453E-002 -9.577760581156189E-003
 -7.878942804808050E-003 -6.180125028459695E-003 -4.481307252111336E-003
 -2.782489475763101E-003 -1.083671699414784E-003  6.151460769337376E-004
 -4.180427731529692E-002 -4.010545953894849E-002 -3.840664176260036E-002
 -3.670782398625184E-002 -3.500900620990335E-002 -3.331018843355527E-002
 -3.161137065720734E-002 -2.991255288085878E-002 -2.821373510451034E-002
 -2.651491732816198E-002 -2.481609955181426E-002 -2.311728177546572E-002
 -2.141846399911710E-002 -1.971964622276902E-002 -1.802082844642064E-002
 -1.632201067007274E-002 -1.462319289372442E-002 -1.292437511737577E-002
 -1.122555734102749E-002 -9.526739564679126E-003 -7.827921788331114E-003
 -6.129104011982727E-003 -4.430286235634233E-003 -2.731468459286081E-003
 -1.032650682937642E-003  6.661670934101098E-004 -4.175953308472841E-002
 -4.006071530838032E-002 -3.836189753203169E-002 -3.666307975568366E-002
 -3.496426197933508E-002 -3.326544420298689E-002 -3.156662642663879E-002
 -2.986780865029065E-002 -2.816899087394211E-002 -2.647017309759395E-002
 -2.477135532124554E-002 -2.307253754489709E-002 -2.137371976854904E-002
 -1.967490199220066E-002 -1.797608421585202E-002 -1.627726643950425E-002
 -1.457844866315582E-002 -1.287963088680741E-002 -1.118081311045934E-002
 -9.481995334110926E-003 -7.783177557762345E-003 -6.084359781414334E-003
 -4.385542005066017E-003 -2.686724228717969E-003 -9.879064523694533E-004
  7.109113239788867E-004 -4.172183122625920E-002 -4.002301344991111E-002
 -3.832419567356262E-002 -3.662537789721434E-002 -3.492656012086623E-002
 -3.322774234451784E-002 -3.152892456816980E-002 -2.983010679182104E-002
 -2.813128901547282E-002 -2.643247123912473E-002 -2.473365346277629E-002
 -2.303483568642822E-002 -2.133601791008003E-002 -1.963720013373172E-002
 -1.793838235738326E-002 -1.623956458103499E-002 -1.454074680468668E-002
 -1.284192902833839E-002 -1.114311125199026E-002 -9.444293475641586E-003
 -7.745475699293462E-003 -6.046657922945368E-003 -4.347840146596910E-003
 -2.649022370248371E-003 -9.502045939004893E-004  7.486131824481059E-004
 -4.169181682914080E-002 -3.999299905279211E-002 -3.829418127644416E-002
 -3.659536350009549E-002 -3.489654572374753E-002 -3.319772794739924E-002
 -3.149891017105091E-002 -2.980009239470292E-002 -2.810127461835401E-002
 -2.640245684200626E-002 -2.470363906565775E-002 -2.300482128930949E-002
 -2.130600351296124E-002 -1.960718573661282E-002 -1.790836796026439E-002
 -1.620955018391633E-002 -1.451073240756821E-002 -1.281191463121990E-002
 -1.111309685487154E-002 -9.414279078523144E-003 -7.715461302174815E-003
 -6.016643525826510E-003 -4.317825749478292E-003 -2.619007973129712E-003
 -9.201901967817961E-004  7.786275795667491E-004 -4.167000344802865E-002
 -3.997118567168067E-002 -3.827236789533216E-002 -3.657355011898411E-002
 -3.487473234263559E-002 -3.317591456628753E-002 -3.147709678993921E-002
 -2.977827901359083E-002 -2.807946123724245E-002 -2.638064346089399E-002
 -2.468182568454594E-002 -2.298300790819757E-002 -2.128419013184925E-002
 -1.958537235550132E-002 -1.788655457915281E-002 -1.618773680280438E-002
 -1.448891902645600E-002 -1.279010125010782E-002 -1.109128347375946E-002
 -9.392465697411272E-003 -7.693647921062859E-003 -5.994830144714729E-003
 -4.296012368366370E-003 -2.597194592017968E-003 -8.983768156698185E-004
  8.004409606786787E-004 -4.165676431592223E-002 -3.995794653957404E-002
 -3.825912876322558E-002 -3.656031098687739E-002 -3.486149321052949E-002
 -3.316267543418112E-002 -3.146385765783250E-002 -2.976503988148453E-002
 -2.806622210513611E-002 -2.636740432878766E-002 -2.466858655243928E-002
 -2.296976877609134E-002 -2.127095099974296E-002 -1.957213322339473E-002
 -1.787331544704628E-002 -1.617449767069827E-002 -1.447567989434981E-002
 -1.277686211800184E-002 -1.107804434165332E-002 -9.379226565305099E-003
 -7.680408788956560E-003 -5.981591012608325E-003 -4.282773236260000E-003
 -2.583955459911375E-003 -8.851376835634722E-004  8.136800927848246E-004
 -4.165232595804244E-002 -3.995350818169408E-002 -3.825469040534560E-002
 -3.655587262899734E-002 -3.485705485264916E-002 -3.315823707630093E-002
 -3.145941929995254E-002 -2.976060152360423E-002 -2.806178374725591E-002
 -2.636296597090758E-002 -2.466414819455922E-002 -2.296533041821125E-002
 -2.126651264186301E-002 -1.956769486551442E-002 -1.786887708916604E-002
 -1.617005931281808E-002 -1.447124153646961E-002 -1.277242376012126E-002
 -1.107360598377318E-002 -9.374788207424515E-003 -7.675970431076416E-003
 -5.977152654728176E-003 -4.278334878379917E-003 -2.579517102031682E-003
 -8.806993256835587E-004  8.181184506647024E-004
  0.115115468902114       0.115110890510822       0.115106312119529     
  0.115101733728237       0.115097155336944       0.115092576945652     
  0.115087998554360       0.115083420163067       0.115078841771775     
  0.115074263380482       0.115069684989190       0.115065106597897     
  0.115060528206605       0.115055949815313       0.115051371424020     
  0.115046793032728       0.115042214641435       0.115037636250143     
  0.115033057858851       0.115028479467558       0.115023901076266     
  0.115019322684973       0.115014744293681       0.115010165902389     
  0.115005587511096       0.115001009119804       0.116762327106878     
  0.116757748715586       0.116753170324293       0.116748591933001     
  0.116744013541708       0.116739435150416       0.116734856759124     
  0.116730278367831       0.116725699976539       0.116721121585246     
  0.116716543193954       0.116711964802661       0.116707386411369     
  0.116702808020077       0.116698229628784       0.116693651237492     
  0.116689072846200       0.116684494454907       0.116679916063615     
  0.116675337672322       0.116670759281030       0.116666180889737     
  0.116661602498445       0.116657024107153       0.116652445715860     
  0.116647867324568       0.121674723520691       0.121670145129399     
  0.121665566738106       0.121660988346814       0.121656409955521     
  0.121651831564229       0.121647253172937       0.121642674781644     
  0.121638096390352       0.121633517999060       0.121628939607767     
  0.121624361216475       0.121619782825182       0.121615204433890     
  0.121610626042598       0.121606047651305       0.121601469260013     
  0.121596890868720       0.121592312477428       0.121587734086135     
  0.121583155694843       0.121578577303551       0.121573998912258     
  0.121569420520966       0.121564842129673       0.121560263738381     
  0.129768605678940       0.129764027287647       0.129759448896355     
  0.129754870505062       0.129750292113770       0.129745713722478     
  0.129741135331185       0.129736556939893       0.129731978548600     
  0.129727400157308       0.129722821766016       0.129718243374723     
  0.129713664983431       0.129709086592138       0.129704508200846     
  0.129699929809554       0.129695351418261       0.129690773026969     
  0.129686194635676       0.129681616244384       0.129677037853091     
  0.129672459461799       0.129667881070507       0.129663302679214     
  0.129658724287922       0.129654145896630       0.140905485013848     
  0.140900906622555       0.140896328231263       0.140891749839970     
  0.140887171448678       0.140882593057386       0.140878014666093     
  0.140873436274801       0.140868857883508       0.140864279492216     
  0.140859701100924       0.140855122709631       0.140850544318339     
  0.140845965927046       0.140841387535754       0.140836809144462     
  0.140832230753169       0.140827652361877       0.140823073970584     
  0.140818495579292       0.140813917188000       0.140809338796707     
  0.140804760405415       0.140800182014122       0.140795603622830     
  0.140791025231537       0.154894806432268       0.154890228040976     
  0.154885649649684       0.154881071258391       0.154876492867099     
  0.154871914475807       0.154867336084514       0.154862757693222     
  0.154858179301929       0.154853600910637       0.154849022519344     
  0.154844444128052       0.154839865736760       0.154835287345467     
  0.154830708954175       0.154826130562882       0.154821552171590     
  0.154816973780298       0.154812395389005       0.154807816997713     
  0.154803238606420       0.154798660215128       0.154794081823836     
  0.154789503432543       0.154784925041251       0.154780346649958     
  0.171497208766161       0.171492630374868       0.171488051983576     
  0.171483473592283       0.171478895200991       0.171474316809699     
  0.171469738418406       0.171465160027114       0.171460581635822     
  0.171456003244529       0.171451424853236       0.171446846461944     
  0.171442268070652       0.171437689679359       0.171433111288067     
  0.171428532896774       0.171423954505482       0.171419376114190     
  0.171414797722897       0.171410219331605       0.171405640940312     
  0.171401062549020       0.171396484157728       0.171391905766435     
  0.171387327375143       0.171382748983850       0.190428620308535     
  0.190424041917243       0.190419463525951       0.190414885134658     
  0.190410306743366       0.190405728352073       0.190401149960781     
  0.190396571569489       0.190391993178196       0.190387414786904     
  0.190382836395611       0.190378258004319       0.190373679613026     
  0.190369101221734       0.190364522830442       0.190359944439149     
  0.190355366047857       0.190350787656565       0.190346209265272     
  0.190341630873980       0.190337052482687       0.190332474091395     
  0.190327895700102       0.190323317308810       0.190318738917517     
  0.190314160526225       0.211365119359124       0.211360540967831     
  0.211355962576539       0.211351384185247       0.211346805793954     
  0.211342227402662       0.211337649011369       0.211333070620077     
  0.211328492228785       0.211323913837492       0.211319335446200     
  0.211314757054907       0.211310178663615       0.211305600272323     
  0.211301021881030       0.211296443489738       0.211291865098445     
  0.211287286707153       0.211282708315860       0.211278129924568     
  0.211273551533276       0.211268973141983       0.211264394750691     
  0.211259816359399       0.211255237968106       0.211250659576814     
  0.233948476614476       0.233943898223184       0.233939319831892     
  0.233934741440599       0.233930163049307       0.233925584658014     
  0.233921006266722       0.233916427875430       0.233911849484137     
  0.233907271092845       0.233902692701553       0.233898114310260     
  0.233893535918968       0.233888957527675       0.233884379136383     
  0.233879800745090       0.233875222353798       0.233870643962506     
  0.233866065571213       0.233861487179921       0.233856908788628     
  0.233852330397336       0.233847752006043       0.233843173614751     
  0.233838595223459       0.233834016832166       0.257792284570664     
  0.257787706179372       0.257783127788079       0.257778549396787     
  0.257773971005495       0.257769392614202       0.257764814222910     
  0.257760235831617       0.257755657440325       0.257751079049033     
  0.257746500657740       0.257741922266448       0.257737343875155     
  0.257732765483863       0.257728187092571       0.257723608701278     
  0.257719030309986       0.257714451918693       0.257709873527401     
  0.257705295136109       0.257700716744816       0.257696138353524     
  0.257691559962231       0.257686981570939       0.257682403179647     
  0.257677824788354       0.282488569062805       0.282483990671512     
  0.282479412280220       0.282474833888928       0.282470255497635     
  0.282465677106343       0.282461098715050       0.282456520323758     
  0.282451941932466       0.282447363541173       0.282442785149881     
  0.282438206758589       0.282433628367296       0.282429049976003     
  0.282424471584711       0.282419893193419       0.282415314802126     
  0.282410736410834       0.282406158019541       0.282401579628249     
  0.282397001236957       0.282392422845664       0.282387844454372     
  0.282383266063080       0.282378687671787       0.282374109280495     
  0.307614769816134       0.307610191424841       0.307605613033549     
  0.307601034642256       0.307596456250964       0.307591877859672     
  0.307587299468379       0.307582721077087       0.307578142685794     
  0.307573564294502       0.307568985903210       0.307564407511917     
  0.307559829120625       0.307555250729333       0.307550672338040     
  0.307546093946747       0.307541515555455       0.307536937164163     
  0.307532358772871       0.307527780381578       0.307523201990286     
  0.307518623598993       0.307514045207701       0.307509466816408     
  0.307504888425116       0.307500310033824       0.332740970569463     
  0.332736392178170       0.332731813786878       0.332727235395585     
  0.332722657004293       0.332718078613001       0.332713500221708     
  0.332708921830416       0.332704343439123       0.332699765047831     
  0.332695186656539       0.332690608265246       0.332686029873954     
  0.332681451482662       0.332676873091368       0.332672294700077     
  0.332667716308784       0.332663137917492       0.332658559526200     
  0.332653981134907       0.332649402743615       0.332644824352322     
  0.332640245961030       0.332635667569738       0.332631089178445     
  0.332626510787153       0.357437255061603       0.357432676670311     
  0.357428098279019       0.357423519887726       0.357418941496434     
  0.357414363105141       0.357409784713849       0.357405206322556     
  0.357400627931264       0.357396049539972       0.357391471148679     
  0.357386892757387       0.357382314366094       0.357377735974802     
  0.357373157583510       0.357368579192217       0.357364000800925     
  0.357359422409633       0.357354844018340       0.357350265627047     
  0.357345687235755       0.357341108844462       0.357336530453170     
  0.357331952061878       0.357327373670585       0.357322795279293     
  0.381281063017791       0.381276484626499       0.381271906235206     
  0.381267327843914       0.381262749452622       0.381258171061329     
  0.381253592670037       0.381249014278744       0.381244435887452     
  0.381239857496160       0.381235279104867       0.381230700713575     
  0.381226122322282       0.381221543930990       0.381216965539697     
  0.381212387148405       0.381207808757113       0.381203230365820     
  0.381198651974528       0.381194073583236       0.381189495191943     
  0.381184916800650       0.381180338409358       0.381175760018066     
  0.381171181626774       0.381166603235481       0.403864420273144     
  0.403859841881851       0.403855263490558       0.403850685099266     
  0.403846106707974       0.403841528316681       0.403836949925389     
  0.403832371534096       0.403827793142804       0.403823214751512     
  0.403818636360220       0.403814057968927       0.403809479577635     
  0.403804901186342       0.403800322795050       0.403795744403758     
  0.403791166012465       0.403786587621173       0.403782009229880     
  0.403777430838588       0.403772852447295       0.403768274056003     
  0.403763695664711       0.403759117273418       0.403754538882126     
  0.403749960490833       0.424800919323732       0.424796340932440     
  0.424791762541147       0.424787184149855       0.424782605758563     
  0.424778027367270       0.424773448975978       0.424768870584685     
  0.424764292193393       0.424759713802101       0.424755135410808     
  0.424750557019516       0.424745978628223       0.424741400236931     
  0.424736821845638       0.424732243454346       0.424727665063054     
  0.424723086671761       0.424718508280469       0.424713929889177     
  0.424709351497884       0.424704773106592       0.424700194715299     
  0.424695616324007       0.424691037932714       0.424686459541422     
  0.443732330866107       0.443727752474815       0.443723174083522     
  0.443718595692230       0.443714017300938       0.443709438909645     
  0.443704860518353       0.443700282127060       0.443695703735768     
  0.443691125344475       0.443686546953183       0.443681968561890     
  0.443677390170598       0.443672811779306       0.443668233388014     
  0.443663654996721       0.443659076605428       0.443654498214136     
  0.443649919822843       0.443645341431551       0.443640763040259     
  0.443636184648966       0.443631606257674       0.443627027866381     
  0.443622449475089       0.443617871083796       0.460334733199999     
  0.460330154808706       0.460325576417414       0.460320998026122     
  0.460316419634829       0.460311841243537       0.460307262852244     
  0.460302684460952       0.460298106069660       0.460293527678368     
  0.460288949287075       0.460284370895782       0.460279792504490     
  0.460275214113198       0.460270635721905       0.460266057330613     
  0.460261478939320       0.460256900548027       0.460252322156736     
  0.460247743765443       0.460243165374151       0.460238586982858     
  0.460234008591566       0.460229430200274       0.460224851808981     
  0.460220273417689       0.474324054618420       0.474319476227128     
  0.474314897835835       0.474310319444543       0.474305741053250     
  0.474301162661958       0.474296584270665       0.474292005879373     
  0.474287427488081       0.474282849096788       0.474278270705496     
  0.474273692314203       0.474269113922910       0.474264535531619     
  0.474259957140326       0.474255378749034       0.474250800357741     
  0.474246221966449       0.474241643575157       0.474237065183865     
  0.474232486792572       0.474227908401279       0.474223330009987     
  0.474218751618694       0.474214173227402       0.474209594836110     
  0.485460933953328       0.485456355562035       0.485451777170743     
  0.485447198779450       0.485442620388158       0.485438041996866     
  0.485433463605574       0.485428885214281       0.485424306822988     
  0.485419728431696       0.485415150040404       0.485410571649111     
  0.485405993257819       0.485401414866526       0.485396836475234     
  0.485392258083942       0.485387679692649       0.485383101301357     
  0.485378522910064       0.485373944518772       0.485369366127480     
  0.485364787736187       0.485360209344895       0.485355630953602     
  0.485351052562310       0.485346474171018       0.493554816111577     
  0.493550237720284       0.493545659328991       0.493541080937700     