 Title = "Wing and Wake"
 VARIABLES = "X" "Y" "Z" "GAM"
 Zone I=   26 J=   25 K=1  T="Blade"
 DATAPACKING=BLOCK
 VARLOCATION=([4]=CELLCENTERED)
  2.057666160599368E-002  2.204566594145854E-002  2.351467027692346E-002
  2.498367461238837E-002  2.645267894785337E-002  2.792168328331828E-002
  2.939068761878316E-002  3.085969195424800E-002  3.232869628971294E-002
  3.379770062517783E-002  3.526670496064281E-002  3.673570929610769E-002
  3.820471363157264E-002  3.967371796703748E-002  4.114272230250244E-002
  4.261172663796731E-002  4.408073097343215E-002  4.554973530889711E-002
  4.701873964436205E-002  4.848774397982691E-002  4.995674831529176E-002
  5.142575265075670E-002  5.289475698622167E-002  5.436376132168644E-002
  5.583276565715144E-002  5.730176999261639E-002  2.140381064385369E-002
  2.287281497931867E-002  2.434181931478358E-002  2.581082365024842E-002
  2.727982798571329E-002  2.874883232117811E-002  3.021783665664321E-002
  3.168684099210800E-002  3.315584532757297E-002  3.462484966303778E-002
  3.609385399850267E-002  3.756285833396775E-002  3.903186266943257E-002
  4.050086700489745E-002  4.196987134036240E-002  4.343887567582731E-002
  4.490788001129223E-002  4.637688434675716E-002  4.784588868222197E-002
  4.931489301768703E-002  5.078389735315170E-002  5.225290168861669E-002
  5.372190602408160E-002  5.519091035954660E-002  5.665991469501135E-002
  5.812891903047627E-002  2.387110500806671E-002  2.534010934353160E-002
  2.680911367899653E-002  2.827811801446146E-002  2.974712234992632E-002
  3.121612668539124E-002  3.268513102085619E-002  3.415413535632093E-002
  3.562313969178600E-002  3.709214402725097E-002  3.856114836271583E-002
  4.003015269818064E-002  4.149915703364560E-002  4.296816136911057E-002
  4.443716570457538E-002  4.590617004004025E-002  4.737517437550518E-002
  4.884417871097001E-002  5.031318304643508E-002  5.178218738189989E-002
  5.325119171736474E-002  5.472019605282966E-002  5.618920038829452E-002
  5.765820472375956E-002  5.912720905922440E-002  6.059621339468946E-002
  2.793632860799791E-002  2.940533294346281E-002  3.087433727892777E-002
  3.234334161439269E-002  3.381234594985750E-002  3.528135028532244E-002
  3.675035462078746E-002  3.821935895625227E-002  3.968836329171730E-002
  4.115736762718209E-002  4.262637196264689E-002  4.409537629811187E-002
  4.556438063357694E-002  4.703338496904180E-002  4.850238930450650E-002
  4.997139363997145E-002  5.144039797543659E-002  5.290940231090131E-002
  5.437840664636624E-002  5.584741098183116E-002  5.731641531729602E-002
  5.878541965276093E-002  6.025442398822583E-002  6.172342832369077E-002
  6.319243265915581E-002  6.466143699462067E-002  3.352992434075969E-002
  3.499892867622437E-002  3.646793301168955E-002  3.793693734715434E-002
  3.940594168261927E-002  4.087494601808418E-002  4.234395035354904E-002
  4.381295468901404E-002  4.528195902447887E-002  4.675096335994350E-002
  4.821996769540855E-002  4.968897203087350E-002  5.115797636633847E-002
  5.262698070180345E-002  5.409598503726811E-002  5.556498937273321E-002
  5.703399370819795E-002  5.850299804366287E-002  5.997200237912783E-002
  6.144100671459270E-002  6.291001105005777E-002  6.437901538552269E-002
  6.584801972098746E-002  6.731702405645244E-002  6.878602839191726E-002
  7.025503272738225E-002  4.055618423252640E-002  4.202518856799135E-002
  4.349419290345623E-002  4.496319723892125E-002  4.643220157438592E-002
  4.790120590985093E-002  4.937021024531575E-002  5.083921458078080E-002
  5.230821891624564E-002  5.377722325171050E-002  5.524622758717545E-002
  5.671523192264050E-002  5.818423625810516E-002  5.965324059357029E-002
  6.112224492903497E-002  6.259124926449987E-002  6.406025359996495E-002
  6.552925793542966E-002  6.699826227089466E-002  6.846726660635960E-002
  6.993627094182436E-002  7.140527527728932E-002  7.287427961275422E-002
  7.434328394821908E-002  7.581228828368397E-002  7.728129261914905E-002
  4.889488702850291E-002  5.036389136396785E-002  5.183289569943271E-002
  5.330190003489758E-002  5.477090437036242E-002  5.623990870582780E-002
  5.770891304129232E-002  5.917791737675716E-002  6.064692171222219E-002
  6.211592604768693E-002  6.358493038315188E-002  6.505393471861678E-002
  6.652293905408173E-002  6.799194338954663E-002  6.946094772501155E-002
  7.092995206047641E-002  7.239895639594122E-002  7.386796073140631E-002
  7.533696506687115E-002  7.680596940233604E-002  7.827497373780092E-002
  7.974397807326593E-002  8.121298240873079E-002  8.268198674419572E-002
  8.415099107966045E-002  8.561999541512545E-002  5.840335521192479E-002
  5.987235954738995E-002  6.134136388285475E-002  6.281036821831966E-002
  6.427937255378430E-002  6.574837688924956E-002  6.721738122471450E-002
  6.868638556017917E-002  7.015538989564420E-002  7.162439423110901E-002
  7.309339856657403E-002  7.456240290203885E-002  7.603140723750375E-002
  7.750041157296884E-002  7.896941590843362E-002  8.043842024389847E-002
  8.190742457936331E-002  8.337642891482824E-002  8.484543325029320E-002
  8.631443758575796E-002  8.778344192122291E-002  8.925244625668778E-002
  9.072145059215278E-002  9.219045492761752E-002  9.365945926308245E-002
  9.512846359854753E-002  6.891889625592833E-002  7.038790059139319E-002
  7.185690492685821E-002  7.332590926232324E-002  7.479491359778795E-002
  7.626391793325311E-002  7.773292226871784E-002  7.920192660418289E-002
  8.067093093964763E-002  8.213993527511258E-002  8.360893961057744E-002
  8.507794394604240E-002  8.654694828150727E-002  8.801595261697218E-002
  8.948495695243712E-002  9.095396128790213E-002  9.242296562336684E-002
  9.389196995883173E-002  9.536097429429667E-002  9.682997862976160E-002
  9.829898296522632E-002  9.976798730069122E-002  0.101236991636156     
  0.102705995971621       0.104175000307086       0.105644004642551     
  8.026158633779198E-002  8.173059067325701E-002  8.319959500872180E-002
  8.466859934418687E-002  8.613760367965166E-002  8.760660801511649E-002
  8.907561235058144E-002  9.054461668604639E-002  9.201362102151112E-002
  9.348262535697613E-002  9.495162969244121E-002  9.642063402790584E-002
  9.788963836337077E-002  9.935864269883558E-002  0.100827647034301     
  0.102296651369766       0.103765655705230       0.105234660040695     
  0.106703664376160       0.108172668711625       0.109641673047090     
  0.111110677382555       0.112579681718020       0.114048686053485     
  0.115517690388950       0.116986694724414       9.223734888542674E-002
  9.370635322089166E-002  9.517535755635673E-002  9.664436189182161E-002
  9.811336622728639E-002  9.958237056275154E-002  0.101051374898216     
  0.102520379233681       0.103989383569146       0.105458387904611     
  0.106927392240076       0.108396396575541       0.109865400911006     
  0.111334405246470       0.112803409581936       0.114272413917401     
  0.115741418252865       0.117210422588330       0.118679426923795     
  0.120148431259260       0.121617435594725       0.123086439930190     
  0.124555444265655       0.126024448601120       0.127493452936584     
  0.128962457272050       0.104641275281335       0.106110279616800     
  0.107579283952264       0.109048288287729       0.110517292623194     
  0.111986296958659       0.113455301294124       0.114924305629589     
  0.116393309965054       0.117862314300518       0.119331318635984     
  0.120800322971449       0.122269327306914       0.123738331642378     
  0.125207335977843       0.126676340313308       0.128145344648773     
  0.129614348984238       0.131083353319703       0.132552357655168     
  0.134021361990633       0.135490366326098       0.136959370661563     
  0.138428374997028       0.139897379332492       0.141366383667957     
  0.117261130905863       0.118730135241328       0.120199139576793     
  0.121668143912258       0.123137148247723       0.124606152583188     
  0.126075156918652       0.127544161254117       0.129013165589582     
  0.130482169925047       0.131951174260512       0.133420178595977     
  0.134889182931442       0.136358187266907       0.137827191602372     
  0.139296195937837       0.140765200273301       0.142234204608766     
  0.143703208944231       0.145172213279696       0.146641217615161     
  0.148110221950626       0.149579226286091       0.151048230621556     
  0.152517234957021       0.153986239292486       0.129880986530392     
  0.131349990865856       0.132818995201321       0.134287999536786     
  0.135757003872251       0.137226008207717       0.138695012543181     
  0.140164016878646       0.141633021214111       0.143102025549575     
  0.144571029885040       0.146040034220505       0.147509038555970     
  0.148978042891436       0.150447047226900       0.151916051562365     
  0.153385055897830       0.154854060233294       0.156323064568760     
  0.157792068904225       0.159261073239690       0.160730077575155     
  0.162199081910619       0.163668086246085       0.165137090581549     
  0.166606094917014       0.142284912926299       0.143753917261764     
  0.145222921597230       0.146691925932694       0.148160930268159     
  0.149629934603624       0.151098938939089       0.152567943274554     
  0.154036947610019       0.155505951945483       0.156974956280949     
  0.158443960616413       0.159912964951878       0.161381969287343     
  0.162850973622808       0.164319977958273       0.165788982293738     
  0.167257986629203       0.168726990964668       0.170195995300133     
  0.171664999635598       0.173134003971062       0.174603008306527     
  0.176072012641992       0.177541016977457       0.179010021312922     
  0.154260675473934       0.155729679809399       0.157198684144864     
  0.158667688480329       0.160136692815794       0.161605697151259     
  0.163074701486724       0.164543705822188       0.166012710157654     
  0.167481714493119       0.168950718828583       0.170419723164048     
  0.171888727499513       0.173357731834978       0.174826736170443     
  0.176295740505908       0.177764744841373       0.179233749176838     
  0.180702753512303       0.182171757847768       0.183640762183232     
  0.185109766518697       0.186578770854162       0.188047775189627     
  0.189516779525092       0.190985783860557       0.165603365555798     
  0.167072369891263       0.168541374226728       0.170010378562192     
  0.171479382897657       0.172948387233122       0.174417391568587     
  0.175886395904052       0.177355400239517       0.178824404574982     
  0.180293408910447       0.181762413245912       0.183231417581376     
  0.184700421916842       0.186169426252306       0.187638430587772     
  0.189107434923236       0.190576439258701       0.192045443594166     
  0.193514447929631       0.194983452265096       0.196452456600561     
  0.197921460936026       0.199390465271491       0.200859469606956     
  0.202328473942420       0.176118906599801       0.177587910935266     
  0.179056915270731       0.180525919606196       0.181994923941661     
  0.183463928277126       0.184932932612591       0.186401936948055     
  0.187870941283521       0.189339945618986       0.190808949954451     
  0.192277954289915       0.193746958625380       0.195215962960845     
  0.196684967296310       0.198153971631775       0.199622975967240     
  0.201091980302705       0.202560984638170       0.204029988973635     
  0.205498993309099       0.206967997644564       0.208437001980029     
  0.209906006315494       0.211375010650959       0.212844014986425     
  0.185627374783223       0.187096379118689       0.188565383454153     
  0.190034387789618       0.191503392125083       0.192972396460548     
  0.194441400796012       0.195910405131478       0.197379409466942     
  0.198848413802408       0.200317418137872       0.201786422473337     
  0.203255426808802       0.204724431144267       0.206193435479732     
  0.207662439815197       0.209131444150662       0.210600448486127     
  0.212069452821591       0.213538457157057       0.215007461492521     
  0.216476465827986       0.217945470163451       0.219414474498916     
  0.220883478834381       0.222352483169845       0.193966077579200     
  0.195435081914664       0.196904086250130       0.198373090585595     
  0.199842094921060       0.201311099256525       0.202780103591990     
  0.204249107927454       0.205718112262919       0.207187116598384     
  0.208656120933849       0.210125125269314       0.211594129604779     
  0.213063133940244       0.214532138275709       0.216001142611173     
  0.217470146946638       0.218939151282103       0.220408155617568     
  0.221877159953033       0.223346164288498       0.224815168623963     
  0.226284172959428       0.227753177294893       0.229222181630357     
  0.230691185965822       0.200992337470967       0.202461341806431     
  0.203930346141897       0.205399350477362       0.206868354812826     
  0.208337359148291       0.209806363483756       0.211275367819221     
  0.212744372154686       0.214213376490151       0.215682380825616     
  0.217151385161081       0.218620389496545       0.220089393832010     
  0.221558398167475       0.223027402502940       0.224496406838405     
  0.225965411173870       0.227434415509335       0.228903419844800     
  0.230372424180265       0.231841428515730       0.233310432851195     
  0.234779437186660       0.236248441522124       0.237717445857589     
  0.206585933203728       0.208054937539193       0.209523941874658     
  0.210992946210123       0.212461950545588       0.213930954881053     
  0.215399959216518       0.216868963551982       0.218337967887448     
  0.219806972222912       0.221275976558377       0.222744980893842     
  0.224213985229307       0.225682989564772       0.227151993900237     
  0.228620998235702       0.230090002571167       0.231559006906631     
  0.233028011242096       0.234497015577561       0.235966019913026     
  0.237435024248491       0.238904028583956       0.240373032919421     
  0.241842037254886       0.243311041590351       0.210651156803660     
  0.212120161139124       0.213589165474589       0.215058169810054     
  0.216527174145519       0.217996178480984       0.219465182816449     
  0.220934187151913       0.222403191487379       0.223872195822844     
  0.225341200158308       0.226810204493774       0.228279208829238     
  0.229748213164703       0.231217217500168       0.232686221835633     
  0.234155226171098       0.235624230506563       0.237093234842028     
  0.238562239177492       0.240031243512958       0.241500247848423     
  0.242969252183887       0.244438256519352       0.245907260854817     
  0.247376265190282       0.213118451167873       0.214587455503337     
  0.216056459838803       0.217525464174267       0.218994468509732     
  0.220463472845197       0.221932477180663       0.223401481516127     
  0.224870485851592       0.226339490187057       0.227808494522522     
  0.229277498857987       0.230746503193451       0.232215507528916     
  0.233684511864381       0.235153516199846       0.236622520535311     
  0.238091524870775       0.239560529206241       0.241029533541705     
  0.242498537877170       0.243967542212635       0.245436546548101     
  0.246905550883565       0.248374555219030       0.249843559554495     
  0.213945600205732       0.215414604541197       0.216883608876663     
  0.218352613212127       0.219821617547592       0.221290621883057     
  0.222759626218521       0.224228630553987       0.225697634889452     
  0.227166639224917       0.228635643560382       0.230104647895847     
  0.231573652231311       0.233042656566776       0.234511660902241     
  0.235980665237706       0.237449669573171       0.238918673908636     
  0.240387678244100       0.241856682579566       0.243325686915030     
  0.244794691250495       0.246263695585961       0.247732699921425     
  0.249201704256890       0.250670708592355     
  0.121039667039993       0.120186420849677       0.119333174659361     
  0.118479928469045       0.117626682278729       0.116773436088412     
  0.115920189898096       0.115066943707780       0.114213697517464     
  0.113360451327148       0.112507205136831       0.111653958946515     
  0.110800712756199       0.109947466565883       0.109094220375567     
  0.108240974185250       0.107387727994934       0.106534481804618     
  0.105681235614302       0.104827989423986       0.103974743233669     
  0.103121497043353       0.102268250853037       0.101415004662721     
  0.100561758472405       9.970851228208844E-002  0.122463740814342     
  0.121610494624025       0.120757248433709       0.119904002243393     
  0.119050756053077       0.118197509862761       0.117344263672444     
  0.116491017482128       0.115637771291812       0.114784525101496     
  0.113931278911180       0.113078032720863       0.112224786530547     
  0.111371540340231       0.110518294149915       0.109665047959599     
  0.108811801769282       0.107958555578966       0.107105309388650     
  0.106252063198334       0.105398817008018       0.104545570817702     
  0.103692324627385       0.102839078437069       0.101985832246753     
  0.101132586056437       0.126711595840279       0.125858349649963     
  0.125005103459647       0.124151857269331       0.123298611079015     
  0.122445364888699       0.121592118698383       0.120738872508066     
  0.119885626317750       0.119032380127434       0.118179133937118     
  0.117325887746801       0.116472641556485       0.115619395366169     
  0.114766149175853       0.113912902985537       0.113059656795220     
  0.112206410604904       0.111353164414588       0.110499918224272     
  0.109646672033956       0.108793425843639       0.107940179653323     
  0.107086933463007       0.106233687272691       0.105380441082375     
  0.133710550140586       0.132857303950269       0.132004057759953     
  0.131150811569637       0.130297565379321       0.129444319189004     
  0.128591072998688       0.127737826808372       0.126884580618056     
  0.126031334427740       0.125178088237424       0.124324842047107     
  0.123471595856791       0.122618349666475       0.121765103476159     
  0.120911857285843       0.120058611095527       0.119205364905210     
  0.118352118714894       0.117498872524578       0.116645626334262     
  0.115792380143945       0.114939133953629       0.114085887763313     
  0.113232641572997       0.112379395382680       0.143340849666704     
  0.142487603476388       0.141634357286072       0.140781111095756     
  0.139927864905440       0.139074618715123       0.138221372524807     
  0.137368126334491       0.136514880144175       0.135661633953858     
  0.134808387763542       0.133955141573226       0.133101895382910     
  0.132248649192594       0.131395403002277       0.130542156811961     
  0.129688910621645       0.128835664431329       0.127982418241013     
  0.127129172050696       0.126275925860381       0.125422679670064     
  0.124569433479748       0.123716187289432       0.122862941099116     
  0.122009694908799       0.155437717323721       0.154584471133405     
  0.153731224943088       0.152877978752772       0.152024732562456     
  0.151171486372140       0.150318240181823       0.149464993991508     
  0.148611747801191       0.147758501610875       0.146905255420559     
  0.146052009230243       0.145198763039927       0.144345516849610     
  0.143492270659294       0.142639024468978       0.141785778278662     
  0.140932532088345       0.140079285898029       0.139226039707713     
  0.138372793517397       0.137519547327081       0.136666301136765     
  0.135813054946448       0.134959808756132       0.134106562565816     
  0.169794172352138       0.168940926161822       0.168087679971506     
  0.167234433781189       0.166381187590873       0.165527941400557     
  0.164674695210241       0.163821449019925       0.162968202829609     
  0.162114956639292       0.161261710448976       0.160408464258660     
  0.159555218068343       0.158701971878028       0.157848725687711     
  0.156995479497395       0.156142233307079       0.155288987116763     
  0.154435740926446       0.153582494736130       0.152729248545814     
  0.151876002355498       0.151022756165182       0.150169509974865     
  0.149316263784549       0.148463017594233       0.186164571826059     
  0.185311325635742       0.184458079445426       0.183604833255110     
  0.182751587064794       0.181898340874478       0.181045094684162     
  0.180191848493845       0.179338602303529       0.178485356113213     
  0.177632109922897       0.176778863732580       0.175925617542264     
  0.175072371351948       0.174219125161632       0.173365878971315     
  0.172512632780999       0.171659386590683       0.170806140400367     
  0.169952894210051       0.169099648019735       0.168246401829418     
  0.167393155639102       0.166539909448786       0.165686663258470     
  0.164833417068154       0.204268813671751       0.203415567481435     
  0.202562321291119       0.201709075100803       0.200855828910486     
  0.200002582720170       0.199149336529854       0.198296090339538     
  0.197442844149222       0.196589597958905       0.195736351768589     
  0.194883105578273       0.194029859387957       0.193176613197641     
  0.192323367007324       0.191470120817008       0.190616874626692     
  0.189763628436376       0.188910382246059       0.188057136055744     
  0.187203889865427       0.186350643675111       0.185497397484795     
  0.184644151294479       0.183790905104163       0.182937658913846     
  0.223797129291792       0.222943883101476       0.222090636911160     
  0.221237390720844       0.220384144530528       0.219530898340211     
  0.218677652149895       0.217824405959579       0.216971159769263     
  0.216117913578946       0.215264667388630       0.214411421198314     
  0.213558175007998       0.212704928817682       0.211851682627365     
  0.210998436437049       0.210145190246733       0.209291944056417     
  0.208438697866100       0.207585451675784       0.206732205485469     
  0.205878959295152       0.205025713104836       0.204172466914520     
  0.203319220724203       0.202465974533887       0.244415383791651     
  0.243562137601334       0.242708891411018       0.241855645220702     
  0.241002399030386       0.240149152840070       0.239295906649753     
  0.238442660459437       0.237589414269121       0.236736168078805     
  0.235882921888489       0.235029675698172       0.234176429507856     
  0.233323183317540       0.232469937127224       0.231616690936907     
  0.230763444746591       0.229910198556275       0.229056952365959     
  0.228203706175643       0.227350459985326       0.226497213795011     
  0.225643967604694       0.224790721414378       0.223937475224062     
  0.223084229033746       0.265770793120374       0.264917546930058     
  0.264064300739741       0.263211054549425       0.262357808359109     
  0.261504562168793       0.260651315978477       0.259798069788161     
  0.258944823597844       0.258091577407528       0.257238331217212     
  0.256385085026896       0.255531838836580       0.254678592646263     
  0.253825346455947       0.252972100265631       0.252118854075315     
  0.251265607884998       0.250412361694682       0.249559115504366     
  0.248705869314050       0.247852623123733       0.246999376933418     
  0.246146130743101       0.245292884552785       0.244439638362469     
  0.287497960303509       0.286644714113193       0.285791467922877     
  0.284938221732560       0.284084975542244       0.283231729351929     
  0.282378483161612       0.281525236971296       0.280671990780979     
  0.279818744590664       0.278965498400348       0.278112252210031     
  0.277259006019715       0.276405759829399       0.275552513639082     
  0.274699267448766       0.273846021258450       0.272992775068134     
  0.272139528877818       0.271286282687502       0.270433036497185     
  0.269579790306869       0.268726544116553       0.267873297926236     
  0.267020051735921       0.266166805545605       0.309225127486645     
  0.308371881296329       0.307518635106012       0.306665388915696     
  0.305812142725379       0.304958896535064       0.304105650344747     
  0.303252404154431       0.302399157964115       0.301545911773798     
  0.300692665583483       0.299839419393166       0.298986173202850     
  0.298132927012534       0.297279680822218       0.296426434631902     
  0.295573188441586       0.294719942251269       0.293866696060953     
  0.293013449870636       0.292160203680321       0.291306957490004     
  0.290453711299688       0.289600465109372       0.288747218919056     
  0.287893972728740       0.330580536815368       0.329727290625052     
  0.328874044434736       0.328020798244419       0.327167552054103     
  0.326314305863787       0.325461059673471       0.324607813483155     
  0.323754567292839       0.322901321102522       0.322048074912206     
  0.321194828721890       0.320341582531573       0.319488336341257     
  0.318635090150941       0.317781843960625       0.316928597770309     
  0.316075351579992       0.315222105389677       0.314368859199360     
  0.313515613009044       0.312662366818727       0.311809120628411     
  0.310955874438095       0.310102628247779       0.309249382057463     
  0.351198791315226       0.350345545124910       0.349492298934594     
  0.348639052744278       0.347785806553962       0.346932560363645     
  0.346079314173329       0.345226067983013       0.344372821792697     
  0.343519575602381       0.342666329412064       0.341813083221748     
  0.340959837031432       0.340106590841116       0.339253344650799     
  0.338400098460483       0.337546852270167       0.336693606079850     
  0.335840359889535       0.334987113699219       0.334133867508902     
  0.333280621318586       0.332427375128270       0.331574128937954     
  0.330720882747638       0.329867636557321       0.370727106935267     
  0.369873860744951       0.369020614554634       0.368167368364319     
  0.367314122174002       0.366460875983686       0.365607629793370     
  0.364754383603054       0.363901137412737       0.363047891222422     
  0.362194645032106       0.361341398841789       0.360488152651472     
  0.359634906461157       0.358781660270840       0.357928414080524     
  0.357075167890207       0.356221921699892       0.355368675509576     
  0.354515429319259       0.353662183128943       0.352808936938627     
  0.351955690748311       0.351102444557995       0.350249198367679     
  0.349395952177362       0.388831348780960       0.387978102590643     
  0.387124856400328       0.386271610210012       0.385418364019695     
  0.384565117829379       0.383711871639062       0.382858625448747     
  0.382005379258430       0.381152133068114       0.380298886877798     
  0.379445640687482       0.378592394497166       0.377739148306849     
  0.376885902116533       0.376032655926216       0.375179409735901     
  0.374326163545585       0.373472917355268       0.372619671164952     
  0.371766424974636       0.370913178784320       0.370059932594004     
  0.369206686403687       0.368353440213371       0.367500194023055     
  0.405201748254880       0.404348502064564       0.403495255874248     
  0.402642009683931       0.401788763493616       0.400935517303300     
  0.400082271112983       0.399229024922667       0.398375778732350     
  0.397522532542035       0.396669286351719       0.395816040161402     
  0.394962793971086       0.394109547780770       0.393256301590453     
  0.392403055400138       0.391549809209822       0.390696563019505     
  0.389843316829189       0.388990070638873       0.388136824448556     
  0.387283578258240       0.386430332067924       0.385577085877608     
  0.384723839687292       0.383870593496975       0.419558203283298     
  0.418704957092981       0.417851710902665       0.416998464712349     
  0.416145218522032       0.415291972331717       0.414438726141401     
  0.413585479951084       0.412732233760768       0.411878987570452     
  0.411025741380135       0.410172495189820       0.409319248999503     
  0.408466002809187       0.407612756618871       0.406759510428555     
  0.405906264238238       0.405053018047922       0.404199771857606     
  0.403346525667290       0.402493279476974       0.401640033286657     
  0.400786787096341       0.399933540906026       0.399080294715708     
  0.398227048525393       0.431655070940314       0.430801824749998     
  0.429948578559681       0.429095332369366       0.428242086179049     
  0.427388839988733       0.426535593798417       0.425682347608101     
  0.424829101417785       0.423975855227468       0.423122609037152     
  0.422269362846836       0.421416116656519       0.420562870466204     
  0.419709624275887       0.418856378085571       0.418003131895255     
  0.417149885704938       0.416296639514623       0.415443393324306     
  0.414590147133990       0.413736900943674       0.412883654753358     
  0.412030408563041       0.411177162372725       0.410323916182409     
  0.441285370466433       0.440432124276117       0.439578878085800     
  0.438725631895484       0.437872385705168       0.437019139514852     
  0.436165893324536       0.435312647134220       0.434459400943903     
  0.433606154753587       0.432752908563271       0.431899662372955     
  0.431046416182639       0.430193169992322       0.429339923802007     
  0.428486677611690       0.427633431421374       0.426780185231058     
  0.425926939040741       0.425073692850425       0.424220446660109     
  0.423367200469793       0.422513954279477       0.421660708089160     
  0.420807461898844       0.419954215708528       0.448284324766739     
  0.447431078576423       0.446577832386107       0.445724586195791     