 Title = "Wing and Wake"
 VARIABLES = "X" "Y" "Z" "GAM"
 Zone I=   26 J=   25 K=1  T="Blade"
 DATAPACKING=BLOCK
 VARLOCATION=([4]=CELLCENTERED)
  7.833152672568326E-002  7.917722678953464E-002  8.002292685338599E-002
  8.086862691723735E-002  8.171432698108880E-002  8.256002704494005E-002
  8.340572710879143E-002  8.425142717264254E-002  8.509712723649404E-002
  8.594282730034523E-002  8.678852736419676E-002  8.763422742804801E-002
  8.847992749189948E-002  8.932562755575066E-002  9.017132761960191E-002
  9.101702768345318E-002  9.186272774730452E-002  9.270842781115596E-002
  9.355412787500728E-002  9.439982793885852E-002  9.524552800270983E-002
  9.609122806656115E-002  9.693692813041253E-002  9.778262819426370E-002
  9.862832825811521E-002  9.947402832196647E-002  7.975982442754578E-002
  8.060552449139712E-002  8.145122455524853E-002  8.229692461909979E-002
  8.314262468295110E-002  8.398832474680225E-002  8.483402481065384E-002
  8.567972487450512E-002  8.652542493835633E-002  8.737112500220767E-002
  8.821682506605889E-002  8.906252512991041E-002  8.990822519376168E-002
  9.075392525761301E-002  9.159962532146433E-002  9.244532538531551E-002
  9.329102544916702E-002  9.413672551301835E-002  9.498242557686962E-002
  9.582812564072110E-002  9.667382570457204E-002  9.751952576842368E-002
  9.836522583227474E-002  9.921092589612637E-002  0.100056625959977     
  0.100902326023829       8.402027896345500E-002  8.486597902730623E-002
  8.571167909115761E-002  8.655737915500898E-002  8.740307921886031E-002
  8.824877928271156E-002  8.909447934656306E-002  8.994017941041399E-002
  9.078587947426568E-002  9.163157953811706E-002  9.247727960196826E-002
  9.332297966581948E-002  9.416867972967082E-002  9.501437979352223E-002
  9.586007985737349E-002  9.670577992122475E-002  9.755147998507610E-002
  9.839718004892736E-002  9.924288011277890E-002  0.100088580176630     
  0.100934280240481       0.101779980304333       0.102625680368184     
  0.103471380432036       0.104317080495887       0.105162780559738     
  9.103999277508058E-002  9.188569283893198E-002  9.273139290278319E-002
  9.357709296663468E-002  9.442279303048598E-002  9.526849309433723E-002
  9.611419315818868E-002  9.695989322203985E-002  9.780559328589133E-002
  9.865129334974269E-002  9.949699341359380E-002  0.100342693477445     
  0.101188393541297       0.102034093605148       0.102879793668999     
  0.103725493732850       0.104571193796702       0.105416893860553     
  0.106262593924404       0.107108293988256       0.107953994052107     
  0.108799694115958       0.109645394179810       0.110491094243661     
  0.111336794307512       0.112182494371364       0.100698856612874     
  0.101544556676724       0.102390256740576       0.103235956804427     
  0.104081656868279       0.104927356932130       0.105773056995981     
  0.106618757059833       0.107464457123684       0.108310157187535     
  0.109155857251386       0.110001557315238       0.110847257379089     
  0.111692957442940       0.112538657506792       0.113384357570643     
  0.114230057634494       0.115075757698346       0.115921457762197     
  0.116767157826048       0.117612857889900       0.118458557953751     
  0.119304258017602       0.120149958081454       0.120995658145305     
  0.121841358209156       0.112831604638625       0.113677304702477     
  0.114523004766328       0.115368704830180       0.116214404894031     
  0.117060104957882       0.117905805021733       0.118751505085585     
  0.119597205149436       0.120442905213287       0.121288605277139     
  0.122134305340990       0.122980005404841       0.123825705468693     
  0.124671405532544       0.125517105596395       0.126362805660247     
  0.127208505724098       0.128054205787949       0.128899905851800     
  0.129745605915652       0.130591305979503       0.131437006043354     
  0.132282706107206       0.133128406171057       0.133974106234909     
  0.127230642169783       0.128076342233634       0.128922042297486     
  0.129767742361337       0.130613442425188       0.131459142489040     
  0.132304842552891       0.133150542616742       0.133996242680594     
  0.134841942744445       0.135687642808296       0.136533342872147     
  0.137379042935999       0.138224742999850       0.139070443063701     
  0.139916143127553       0.140761843191404       0.141607543255255     
  0.142453243319107       0.143298943382958       0.144144643446810     
  0.144990343510661       0.145836043574512       0.146681743638363     
  0.147527443702214       0.148373143766066       0.143649597682021     
  0.144495297745872       0.145340997809724       0.146186697873575     
  0.147032397937426       0.147878098001278       0.148723798065129     
  0.149569498128980       0.150415198192832       0.151260898256683     
  0.152106598320534       0.152952298384385       0.153797998448237     
  0.154643698512088       0.155489398575940       0.156335098639791     
  0.157180798703642       0.158026498767493       0.158872198831345     
  0.159717898895196       0.160563598959047       0.161409299022899     
  0.162254999086750       0.163100699150601       0.163946399214452     
  0.164792099278304       0.161807538294330       0.162653238358181     
  0.163498938422032       0.164344638485884       0.165190338549735     
  0.166036038613586       0.166881738677438       0.167727438741289     
  0.168573138805140       0.169418838868992       0.170264538932843     
  0.171110238996694       0.171955939060546       0.172801639124397     
  0.173647339188248       0.174493039252100       0.175338739315951     
  0.176184439379802       0.177030139443653       0.177875839507505     
  0.178721539571356       0.179567239635207       0.180412939699059     
  0.181258639762910       0.182104339826762       0.182950039890613     
  0.181393776608501       0.182239476672353       0.183085176736204     
  0.183930876800055       0.184776576863906       0.185622276927758     
  0.186467976991609       0.187313677055460       0.188159377119312     
  0.189005077183163       0.189850777247014       0.190696477310866     
  0.191542177374717       0.192387877438568       0.193233577502419     
  0.194079277566271       0.194924977630122       0.195770677693973     
  0.196616377757825       0.197462077821676       0.198307777885527     
  0.199153477949379       0.199999178013230       0.200844878077081     
  0.201690578140933       0.202536278204784       0.202073186656648     
  0.202918886720499       0.203764586784351       0.204610286848202     
  0.205455986912053       0.206301686975905       0.207147387039756     
  0.207993087103607       0.208838787167459       0.209684487231310     
  0.210530187295161       0.211375887359012       0.212221587422864     
  0.213067287486715       0.213912987550566       0.214758687614418     
  0.215604387678269       0.216450087742120       0.217295787805972     
  0.218141487869823       0.218987187933674       0.219832887997526     
  0.220678588061377       0.221524288125228       0.222369988189080     
  0.223215688252931       0.223491937999431       0.224337638063283     
  0.225183338127133       0.226029038190985       0.226874738254836     
  0.227720438318688       0.228566138382539       0.229411838446390     
  0.230257538510242       0.231103238574093       0.231948938637945     
  0.232794638701797       0.233640338765648       0.234486038829498     
  0.235331738893350       0.236177438957201       0.237023139021052     
  0.237868839084904       0.238714539148755       0.239560239212606     
  0.240405939276458       0.241251639340309       0.242097339404161     
  0.242943039468012       0.243788739531863       0.244634439595715     
  0.245283549862976       0.246129249926827       0.246974949990679     
  0.247820650054530       0.248666350118381       0.249512050182233     
  0.250357750246084       0.251203450309935       0.252049150373787     
  0.252894850437638       0.253740550501489       0.254586250565341     
  0.255431950629191       0.256277650693044       0.257123350756895     
  0.257969050820746       0.258814750884597       0.259660450948448     
  0.260506151012300       0.261351851076151       0.262197551140002     
  0.263043251203853       0.263888951267705       0.264734651331557     
  0.265580351395408       0.266426051459260       0.267075161726521     
  0.267920861790373       0.268766561854224       0.269612261918075     
  0.270457961981926       0.271303662045778       0.272149362109628     
  0.272995062173480       0.273840762237331       0.274686462301182     
  0.275532162365034       0.276377862428885       0.277223562492736     
  0.278069262556589       0.278914962620439       0.279760662684291     
  0.280606362748142       0.281452062811993       0.282297762875845     
  0.283143462939696       0.283989163003547       0.284834863067398     
  0.285680563131250       0.286526263195102       0.287371963258953     
  0.288217663322804       0.288493913069304       0.289339613133156     
  0.290185313197007       0.291031013260858       0.291876713324710     
  0.292722413388560       0.293568113452412       0.294413813516264     
  0.295259513580115       0.296105213643966       0.296950913707818     
  0.297796613771669       0.298642313835520       0.299488013899371     
  0.300333713963222       0.301179414027074       0.302025114090925     
  0.302870814154777       0.303716514218628       0.304562214282479     
  0.305407914346331       0.306253614410181       0.307099314474033     
  0.307945014537884       0.308790714601736       0.309636414665587     
  0.309173323117451       0.310019023181303       0.310864723245154     
  0.311710423309005       0.312556123372857       0.313401823436708     
  0.314247523500559       0.315093223564410       0.315938923628262     
  0.316784623692113       0.317630323755964       0.318476023819816     
  0.319321723883667       0.320167423947519       0.321013124011369     
  0.321858824075221       0.322704524139072       0.323550224202923     
  0.324395924266775       0.325241624330626       0.326087324394477     
  0.326933024458329       0.327778724522181       0.328624424586032     
  0.329470124649883       0.330315824713734       0.328759561431622     
  0.329605261495474       0.330450961559325       0.331296661623176     
  0.332142361687027       0.332988061750879       0.333833761814730     
  0.334679461878581       0.335525161942433       0.336370862006285     
  0.337216562070136       0.338062262133987       0.338907962197838     
  0.339753662261690       0.340599362325541       0.341445062389393     
  0.342290762453243       0.343136462517095       0.343982162580946     
  0.344827862644798       0.345673562708649       0.346519262772500     
  0.347364962836351       0.348210662900203       0.349056362964054     
  0.349902063027906       0.346917502043931       0.347763202107782     
  0.348608902171634       0.349454602235485       0.350300302299336     
  0.351146002363188       0.351991702427040       0.352837402490890     
  0.353683102554742       0.354528802618593       0.355374502682445     
  0.356220202746296       0.357065902810147       0.357911602873999     
  0.358757302937849       0.359603003001700       0.360448703065552     
  0.361294403129404       0.362140103193256       0.362985803257107     
  0.363831503320958       0.364677203384810       0.365522903448660     
  0.366368603512511       0.367214303576363       0.368060003640215     
  0.363336457556169       0.364182157620021       0.365027857683872     
  0.365873557747723       0.366719257811574       0.367564957875426     
  0.368410657939277       0.369256358003128       0.370102058066979     
  0.370947758130832       0.371793458194682       0.372639158258533     
  0.373484858322385       0.374330558386236       0.375176258450088     
  0.376021958513940       0.376867658577791       0.377713358641642     
  0.378559058705493       0.379404758769344       0.380250458833196     
  0.381096158897047       0.381941858960898       0.382787559024749     
  0.383633259088601       0.384478959152452       0.377735495087327     
  0.378581195151178       0.379426895215030       0.380272595278881     
  0.381118295342732       0.381963995406583       0.382809695470435     
  0.383655395534286       0.384501095598137       0.385346795661989     
  0.386192495725840       0.387038195789692       0.387883895853543     
  0.388729595917394       0.389575295981245       0.390420996045097     
  0.391266696108947       0.392112396172799       0.392958096236650     
  0.393803796300502       0.394649496364353       0.395495196428204     
  0.396340896492056       0.397186596555907       0.398032296619758     
  0.398877996683609       0.389868243113079       0.390713943176930     
  0.391559643240782       0.392405343304633       0.393251043368484     
  0.394096743432335       0.394942443496186       0.395788143560038     
  0.396633843623889       0.397479543687740       0.398325243751592     
  0.399170943815444       0.400016643879294       0.400862343943146     
  0.401708044006998       0.402553744070849       0.403399444134700     
  0.404245144198551       0.405090844262403       0.405936544326254     
  0.406782244390106       0.407627944453957       0.408473644517808     
  0.409319344581659       0.410165044645510       0.411010744709362     
  0.399527106950871       0.400372807014723       0.401218507078574     
  0.402064207142425       0.402909907206277       0.403755607270128     
  0.404601307333980       0.405447007397830       0.406292707461682     
  0.407138407525534       0.407984107589385       0.408829807653236     
  0.409675507717088       0.410521207780938       0.411366907844790     
  0.412212607908641       0.413058307972493       0.413904008036344     
  0.414749708100195       0.415595408164047       0.416441108227898     
  0.417286808291750       0.418132508355601       0.418978208419452     
  0.419823908483303       0.420669608547155       0.406546820762497     
  0.407392520826348       0.408238220890200       0.409083920954051     
  0.409929621017902       0.410775321081754       0.411621021145605     
  0.412466721209456       0.413312421273308       0.414158121337160     
  0.415003821401010       0.415849521464862       0.416695221528713     
  0.417540921592564       0.418386621656416       0.419232321720267     
  0.420078021784119       0.420923721847970       0.421769421911821     
  0.422615121975672       0.423460822039524       0.424306522103375     
  0.425152222167226       0.425997922231078       0.426843622294928     
  0.427689322358780       0.410807275298407       0.411652975362258     
  0.412498675426110       0.413344375489960       0.414190075553811     
  0.415035775617664       0.415881475681514       0.416727175745365     
  0.417572875809217       0.418418575873068       0.419264275936920     
  0.420109976000771       0.420955676064622       0.421801376128473     
  0.422647076192325       0.423492776256176       0.424338476320027     
  0.425184176383878       0.426029876447730       0.426875576511582     
  0.427721276575432       0.428566976639284       0.429412676703136     
  0.430258376766987       0.431104076830837       0.431949776894690     
  0.412235573000268       0.413081273064120       0.413926973127972     
  0.414772673191823       0.415618373255673       0.416464073319526     
  0.417309773383376       0.418155473447228       0.419001173511080     
  0.419846873574931       0.420692573638782       0.421538273702634     
  0.422383973766485       0.423229673830336       0.424075373894187     
  0.424921073958039       0.425766774021890       0.426612474085742     
  0.427458174149592       0.428303874213444       0.429149574277294     
  0.429995274341147       0.430840974404998       0.431686674468849     
  0.432532374532701       0.433378074596551     
  9.454190563355264E-002  9.306854410259521E-002  9.159518257163753E-002
  9.012182104068009E-002  8.864845950972249E-002  8.717509797876484E-002
  8.570173644780731E-002  8.422837491684960E-002  8.275501338589211E-002
  8.128165185493455E-002  7.980829032397704E-002  7.833492879301940E-002
  7.686156726206184E-002  7.538820573110427E-002  7.391484420014653E-002
  7.244148266918908E-002  7.096812113823138E-002  6.949475960727383E-002
  6.802139807631633E-002  6.654803654535867E-002  6.507467501440097E-002
  6.360131348344361E-002  6.212795195248576E-002  6.065459042152826E-002
  5.918122889057086E-002  5.770786735961320E-002  9.536173934868891E-002
  9.388837781773128E-002  9.241501628677386E-002  9.094165475581616E-002
  8.946829322485861E-002  8.799493169390103E-002  8.652157016294336E-002
  8.504820863198589E-002  8.357484710102821E-002  8.210148557007065E-002
  8.062812403911311E-002  7.915476250815547E-002  7.768140097719796E-002
  7.620803944624038E-002  7.473467791528281E-002  7.326131638432511E-002
  7.178795485336756E-002  7.031459332241002E-002  6.884123179145255E-002
  6.736787026049489E-002  6.589450872953730E-002  6.442114719857982E-002
  6.294778566762223E-002  6.147442413666458E-002  6.000106260570687E-002
  5.852770107474942E-002  9.780721291193051E-002  9.633385138097296E-002
  9.486048985001541E-002  9.338712831905785E-002  9.191376678810036E-002
  9.044040525714270E-002  8.896704372618520E-002  8.749368219522748E-002
  8.602032066426994E-002  8.454695913331227E-002  8.307359760235473E-002
  8.160023607139714E-002  8.012687454043954E-002  7.865351300948208E-002
  7.718015147852451E-002  7.570678994756688E-002  7.423342841660933E-002
  7.276006688565174E-002  7.128670535469409E-002  6.981334382373648E-002
  6.833998229277891E-002  6.686662076182143E-002  6.539325923086396E-002
  6.391989769990625E-002  6.244653616894856E-002  6.097317463799105E-002
  0.101836483592597       0.100363122061640       9.888976053068203E-002
  9.741639899972478E-002  9.594303746876715E-002  9.446967593780954E-002
  9.299631440685195E-002  9.152295287589417E-002  9.004959134493683E-002
  8.857622981397942E-002  8.710286828302162E-002  8.562950675206399E-002
  8.415614522110658E-002  8.268278369014886E-002  8.120942215919132E-002
  7.973606062823373E-002  7.826269909727625E-002  7.678933756631842E-002
  7.531597603536094E-002  7.384261450440335E-002  7.236925297344579E-002
  7.089589144248828E-002  6.942252991153067E-002  6.794916838057306E-002
  6.647580684961540E-002  6.500244531865784E-002  0.107380609452218     
  0.105907247921261       0.104433886390303       0.102960524859345     
  0.101487163328388       0.100013801797430       9.854044026647273E-002
  9.706707873551511E-002  9.559371720455766E-002  9.412035567359998E-002
  9.264699414264255E-002  9.117363261168483E-002  8.970027108072716E-002
  8.822690954976965E-002  8.675354801881197E-002  8.528018648785446E-002
  8.380682495689681E-002  8.233346342593942E-002  8.086010189498179E-002
  7.938674036402409E-002  7.791337883306682E-002  7.644001730210898E-002
  7.496665577115139E-002  7.349329424019399E-002  7.201993270923659E-002
  7.054657117827877E-002  0.114344728960213       0.112871367429255     
  0.111398005898298       0.109924644367340       0.108451282836382     
  0.106977921305425       0.105504559774467       0.104031198243510     
  0.102557836712552       0.101084475181595       9.961111365063681E-002
  9.813775211967939E-002  9.666439058872198E-002  9.519102905776421E-002
  9.371766752680667E-002  9.224430599584907E-002  9.077094446489141E-002
  8.929758293393406E-002  8.782422140297622E-002  8.635085987201889E-002
  8.487749834106113E-002  8.340413681010375E-002  8.193077527914613E-002
  8.045741374818863E-002  7.898405221723068E-002  7.751069068627352E-002
  0.122609684100981       0.121136322570023       0.119662961039066     
  0.118189599508108       0.116716237977150       0.115242876446193     
  0.113769514915235       0.112296153384278       0.110822791853320     
  0.109349430322363       0.107876068791405       0.106402707260447     
  0.104929345729490       0.103455984198532       0.101982622667574     
  0.100509261136617       9.903589960565957E-002  9.756253807470182E-002
  9.608917654374423E-002  9.461581501278694E-002  9.314245348182935E-002
  9.166909195087151E-002  9.019573041991404E-002  8.872236888895625E-002
  8.724900735799872E-002  8.577564582704128E-002  0.132034059200585     
  0.130560697669627       0.129087336138670       0.127613974607712     
  0.126140613076755       0.124667251545797       0.123193890014840     
  0.121720528483882       0.120247166952924       0.118773805421967     
  0.117300443891009       0.115827082360052       0.114353720829094     
  0.112880359298136       0.111406997767179       0.109933636236221     
  0.108460274705264       0.106986913174306       0.105513551643349     
  0.104040190112391       0.102566828581433       0.101093467050476     
  9.962010551951839E-002  9.814674398856071E-002  9.667338245760321E-002
  9.520002092664556E-002  0.142456600588141       0.140983239057184     
  0.139509877526226       0.138036515995268       0.136563154464311     
  0.135089792933353       0.133616431402395       0.132143069871438     
  0.130669708340480       0.129196346809523       0.127722985278565     
  0.126249623747608       0.124776262216650       0.123302900685692     
  0.121829539154735       0.120356177623777       0.118882816092820     
  0.117409454561862       0.115936093030904       0.114462731499947     
  0.112989369968990       0.111516008438032       0.110042646907074     
  0.108569285376117       0.107095923845159       0.105622562314202     
  0.153698975690833       0.152225614159876       0.150752252628918     
  0.149278891097960       0.147805529567003       0.146332168036045     
  0.144858806505088       0.143385444974130       0.141912083443173     
  0.140438721912215       0.138965360381257       0.137491998850300     
  0.136018637319342       0.134545275788384       0.133071914257427     
  0.131598552726469       0.130125191195512       0.128651829664554     
  0.127178468133596       0.125705106602639       0.124231745071682     
  0.122758383540724       0.121285022009766       0.119811660478809     
  0.118338298947851       0.116864937416894       0.165568824353679     
  0.164095462822721       0.162622101291764       0.161148739760806     
  0.159675378229849       0.158202016698891       0.156728655167934     
  0.155255293636976       0.153781932106019       0.152308570575061     
  0.150835209044103       0.149361847513146       0.147888485982188     
  0.146415124451231       0.144941762920273       0.143468401389315     
  0.141995039858358       0.140521678327400       0.139048316796443     
  0.137574955265485       0.136101593734527       0.134628232203570     
  0.133154870672612       0.131681509141654       0.130208147610697     
  0.128734786079739       0.177863050175114       0.176389688644157     
  0.174916327113198       0.173442965582241       0.171969604051284     
  0.170496242520326       0.169022880989368       0.167549519458411     
  0.166076157927453       0.164602796396496       0.163129434865538     
  0.161656073334581       0.160182711803623       0.158709350272665     
  0.157235988741708       0.155762627210750       0.154289265679792     
  0.152815904148835       0.151342542617877       0.149869181086920     
  0.148395819555962       0.146922458025005       0.145449096494047     
  0.143975734963089       0.142502373432132       0.141029011901175     
  0.190371295542729       0.188897934011772       0.187424572480814     
  0.185951210949857       0.184477849418899       0.183004487887942     
  0.181531126356984       0.180057764826026       0.178584403295069     
  0.177111041764111       0.175637680233154       0.174164318702196     
  0.172690957171238       0.171217595640281       0.169744234109323     
  0.168270872578366       0.166797511047408       0.165324149516450     
  0.163850787985493       0.162377426454535       0.160904064923578     
  0.159430703392620       0.157957341861662       0.156483980330704     
  0.155010618799748       0.153537257268790       0.202879540910345     
  0.201406179379388       0.199932817848430       0.198459456317472     
  0.196986094786514       0.195512733255557       0.194039371724599     
  0.192566010193642       0.191092648662684       0.189619287131726     
  0.188145925600769       0.186672564069811       0.185199202538854     
  0.183725841007897       0.182252479476939       0.180779117945981     
  0.179305756415023       0.177832394884066       0.176359033353108     
  0.174885671822150       0.173412310291193       0.171938948760235     
  0.170465587229278       0.168992225698321       0.167518864167363     
  0.166045502636405       0.215173766731780       0.213700405200822     
  0.212227043669864       0.210753682138907       0.209280320607950     
  0.207806959076992       0.206333597546034       0.204860236015077     
  0.203386874484119       0.201913512953162       0.200440151422204     
  0.198966789891247       0.197493428360289       0.196020066829331     
  0.194546705298374       0.193073343767416       0.191599982236458     
  0.190126620705501       0.188653259174543       0.187179897643585     
  0.185706536112628       0.184233174581671       0.182759813050713     
  0.181286451519755       0.179813089988798       0.178339728457840     
  0.227043615394626       0.225570253863668       0.224096892332710     
  0.222623530801754       0.221150169270796       0.219676807739837     
  0.218203446208880       0.216730084677923       0.215256723146965     
  0.213783361616007       0.212310000085050       0.210836638554092     
  0.209363277023135       0.207889915492177       0.206416553961219     
  0.204943192430262       0.203469830899304       0.201996469368346     
  0.200523107837389       0.199049746306432       0.197576384775474     
  0.196103023244516       0.194629661713559       0.193156300182601     
  0.191682938651643       0.190209577120686       0.238285990497318     
  0.236812628966360       0.235339267435402       0.233865905904445     
  0.232392544373487       0.230919182842530       0.229445821311572     
  0.227972459780614       0.226499098249657       0.225025736718700     
  0.223552375187742       0.222079013656784       0.220605652125826     
  0.219132290594869       0.217658929063911       0.216185567532954     
  0.214712206001996       0.213238844471039       0.211765482940081     
  0.210292121409123       0.208818759878165       0.207345398347208     
  0.205872036816251       0.204398675285293       0.202925313754336     
  0.201451952223378       0.248708531884873       0.247235170353916     
  0.245761808822959       0.244288447292001       0.242815085761043     
  0.241341724230085       0.239868362699128       0.238395001168171     
  0.236921639637212       0.235448278106255       0.233974916575298     
  0.232501555044340       0.231028193513383       0.229554831982425     
  0.228081470451467       0.226608108920510       0.225134747389552     
  0.223661385858595       0.222188024327637       0.220714662796680     
  0.219241301265722       0.217767939734765       0.216294578203807     
  0.214821216672849       0.213347855141891       0.211874493610934     
  0.258132906984478       0.256659545453520       0.255186183922563     
  0.253712822391604       0.252239460860648       0.250766099329691     
  0.249292737798732       0.247819376267775       0.246346014736817     
  0.244872653205860       0.243399291674902       0.241925930143945     
  0.240452568612987       0.238979207082029       0.237505845551072     
  0.236032484020114       0.234559122489157       0.233085760958199     
  0.231612399427241       0.230139037896284       0.228665676365327     
  0.227192314834369       0.225718953303411       0.224245591772453     
  0.222772230241496       0.221298868710539       0.266397862125246     
  0.264924500594288       0.263451139063330       0.261977777532373     
  0.260504416001415       0.259031054470458       0.257557692939501     
  0.256084331408543       0.254610969877585       0.253137608346627     
  0.251664246815670       0.250190885284713       0.248717523753755     
  0.247244162222797       0.245770800691840       0.244297439160882     
  0.242824077629925       0.241350716098967       0.239877354568010     
  0.238403993037052       0.236930631506094       0.235457269975136     
  0.233983908444179       0.232510546913222       0.231037185382264     
  0.229563823851306       0.273361981633240       0.271888620102283     
  0.270415258571325       0.268941897040368       0.267468535509410     
  0.265995173978453       0.264521812447495       0.263048450916537     
  0.261575089385579       0.260101727854622       0.258628366323664     
  0.257155004792707       0.255681643261749       0.254208281730792     
  0.252734920199834       0.251261558668877       0.249788197137919     
  0.248314835606961       0.246841474076004       0.245368112545046     
  0.243894751014089       0.242421389483132       0.240948027952173     
  0.239474666421216       0.238001304890258       0.236527943359301     
  0.278906107492861       0.277432745961903       0.275959384430946     
  0.274486022899988       0.273012661369031       0.271539299838073     
  0.270065938307115       0.268592576776158       0.267119215245200     
  0.265645853714243       0.264172492183285       0.262699130652328     
  0.261225769121370       0.259752407590412       0.258279046059456     
  0.256805684528497       0.255332322997540       0.253858961466583     
  0.252385599935625       0.250912238404667       0.249438876873710     
  0.247965515342752       0.246492153811794       0.245018792280836     
  0.243545430749879       0.242072069218922       0.282935378173528     
  0.281462016642571       0.279988655111613       0.278515293580656     