 Title = "Wing and Wake"
 VARIABLES = "X" "Y" "Z" "GAM"
 Zone I=   26 J=   25 K=1  T="Blade"
 DATAPACKING=BLOCK
 VARLOCATION=([4]=CELLCENTERED)
 -1.144652881002908E-002 -9.806762518358767E-003 -8.166996226688468E-003
 -6.527229935018241E-003 -4.887463643347864E-003 -3.247697351677542E-003
 -1.607931060007274E-003  3.183523166297507E-005  1.671601523333238E-003
  3.311367815003503E-003  4.951134106673858E-003  6.590900398344133E-003
  8.230666690014425E-003  9.870432981684685E-003  1.151019927335502E-002
  1.314996556502529E-002  1.478973185669553E-002  1.642949814836588E-002
  1.806926444003613E-002  1.970903073170643E-002  2.134879702337668E-002
  2.298856331504700E-002  2.462832960671729E-002  2.626809589838752E-002
  2.790786219005783E-002  2.954762848172816E-002 -1.101607251166954E-002
 -9.376306219999212E-003 -7.736539928328921E-003 -6.096773636658634E-003
 -4.457007344988352E-003 -2.817241053318179E-003 -1.177474761647755E-003
  4.622915300224823E-004  2.102057821692799E-003  3.741824113363046E-003
  5.381590405033253E-003  7.021356696703722E-003  8.661122988373944E-003
  1.030088928004418E-002  1.194065557171454E-002  1.358042186338484E-002
  1.522018815505512E-002  1.685995444672537E-002  1.849972073839562E-002
  2.013948703006604E-002  2.177925332173618E-002  2.341901961340652E-002
  2.505878590507677E-002  2.669855219674715E-002  2.833831848841737E-002
  2.997808478008766E-002 -9.732068843201028E-003 -8.092302551530707E-003
 -6.452536259860392E-003 -4.812769968190165E-003 -3.173003676519908E-003
 -1.533237384849560E-003  1.065289068207215E-004  1.746295198490943E-003
  3.386061490161299E-003  5.025827781831704E-003  6.665594073501909E-003
  8.305360365172106E-003  9.945126656842477E-003  1.158489294851278E-002
  1.322465924018301E-002  1.486442553185324E-002  1.650419182352357E-002
  1.814395811519380E-002  1.978372440686421E-002  2.142349069853442E-002
  2.306325699020466E-002  2.470302328187499E-002  2.634278957354519E-002
  2.798255586521558E-002  2.962232215688582E-002  3.126208844855624E-002
 -7.616487463384028E-003 -5.976721171713851E-003 -4.336954880043428E-003
 -2.697188588373171E-003 -1.057422296702885E-003  5.823439949674142E-004
  2.222110286637740E-003  3.861876578307998E-003  5.501642869978338E-003
  7.141409161648492E-003  8.781175453318751E-003  1.042094174498912E-002
  1.206070803665944E-002  1.370047432832972E-002  1.534024061999988E-002
  1.698000691167022E-002  1.861977320334062E-002  2.025953949501083E-002
  2.189930578668117E-002  2.353907207835138E-002  2.517883837002163E-002
  2.681860466169204E-002  2.845837095336220E-002  3.009813724503255E-002
  3.173790353670295E-002  3.337766982837319E-002 -4.705526556177148E-003
 -3.065760264507055E-003 -1.425993972836599E-003  2.137723188336613E-004
  1.853538610503930E-003  3.493304902174210E-003  5.133071193844517E-003
  6.772837485514859E-003  8.412603777185073E-003  1.005237006885518E-002
  1.169213636052564E-002  1.333190265219585E-002  1.497166894386617E-002
  1.661143523553660E-002  1.825120152720671E-002  1.989096781887708E-002
  2.153073411054725E-002  2.317050040221757E-002  2.481026669388791E-002
  2.645003298555819E-002  2.808979927722849E-002  2.972956556889881E-002
  3.136933186056902E-002  3.300909815223930E-002  3.464886444390953E-002
  3.628863073557993E-002 -1.048993469773808E-003  5.907728218965181E-004
  2.230539113566839E-003  3.870305405237193E-003  5.510071696907305E-003
  7.149837988577715E-003  8.789604280247989E-003  1.042937057191824E-002
  1.206913686358859E-002  1.370890315525878E-002  1.534866944692904E-002
  1.698843573859951E-002  1.862820203026951E-002  2.026796832194007E-002
  2.190773461361020E-002  2.354750090528047E-002  2.518726719695092E-002
  2.682703348862103E-002  2.846679978029149E-002  3.010656607196168E-002
  3.174633236363192E-002  3.338609865530211E-002  3.502586494697245E-002
  3.666563123864276E-002  3.830539753031307E-002  3.994516382198336E-002
  3.290547500935445E-003  4.930313792605807E-003  6.570080084276018E-003
  8.209846375946295E-003  9.849612667616530E-003  1.148937895928715E-002
  1.312914525095716E-002  1.476891154262741E-002  1.640867783429773E-002
  1.804844412596790E-002  1.968821041763824E-002  2.132797670930862E-002
  2.296774300097894E-002  2.460750929264904E-002  2.624727558431949E-002
  2.788704187598974E-002  2.952680816765997E-002  3.116657445933038E-002
  3.280634075100069E-002  3.444610704267091E-002  3.608587333434117E-002
  3.772563962601148E-002  3.936540591768176E-002  4.100517220935207E-002
  4.264493850102226E-002  4.428470479269262E-002  8.238845606793692E-003
  9.878611898464097E-003  1.151837819013427E-002  1.315814448180450E-002
  1.479791077347469E-002  1.643767706514516E-002  1.807744335681546E-002
  1.971720964848555E-002  2.135697594015606E-002  2.299674223182624E-002
  2.463650852349658E-002  2.627627481516675E-002  2.791604110683709E-002
  2.955580739850754E-002  3.119557369017771E-002  3.283533998184802E-002
  3.447510627351820E-002  3.611487256518847E-002  3.775463885685884E-002
  3.939440514852899E-002  4.103417144019929E-002  4.267393773186955E-002
  4.431370402353988E-002  4.595347031521012E-002  4.759323660688040E-002
  4.923300289855083E-002  1.371123409528193E-002  1.535100038695226E-002
  1.699076667862258E-002  1.863053297029297E-002  2.027029926196311E-002
  2.191006555363373E-002  2.354983184530381E-002  2.518959813697407E-002
  2.682936442864434E-002  2.846913072031473E-002  3.010889701198492E-002
  3.174866330365526E-002  3.338842959532540E-002  3.502819588699575E-002
  3.666796217866616E-002  3.830772847033654E-002  3.994749476200652E-002
  4.158726105367681E-002  4.322702734534720E-002  4.486679363701751E-002
  4.650655992868775E-002  4.814632622035799E-002  4.978609251202841E-002
  5.142585880369873E-002  5.306562509536895E-002  5.470539138703933E-002
  1.961407888213002E-002  2.125384517380027E-002  2.289361146547064E-002
  2.453337775714088E-002  2.617314404881127E-002  2.781291034048130E-002
  2.945267663215169E-002  3.109244292382207E-002  3.273220921549212E-002
  3.437197550716265E-002  3.601174179883294E-002  3.765150809050302E-002
  3.929127438217336E-002  4.093104067384363E-002  4.257080696551391E-002
  4.421057325718439E-002  4.585033954885453E-002  4.749010584052499E-002
  4.912987213219507E-002  5.076963842386533E-002  5.240940471553565E-002
  5.404917100720592E-002  5.568893729887624E-002  5.732870359054663E-002
  5.896846988221689E-002  6.060823617388699E-002  2.584638065645649E-002
  2.748614694812683E-002  2.912591323979719E-002  3.076567953146754E-002
  3.240544582313765E-002  3.404521211480815E-002  3.568497840647833E-002
  3.732474469814848E-002  3.896451098981899E-002  4.060427728148917E-002
  4.224404357315959E-002  4.388380986482959E-002  4.552357615650018E-002
  4.716334244817020E-002  4.880310873984072E-002  5.044287503151110E-002
  5.208264132318114E-002  5.372240761485150E-002  5.536217390652180E-002
  5.700194019819209E-002  5.864170648986233E-002  6.028147278153262E-002
  6.192123907320291E-002  6.356100536487337E-002  6.520077165654334E-002
  6.684053794821369E-002  3.230150300698297E-002  3.394126929865306E-002
  3.558103559032350E-002  3.722080188199361E-002  3.886056817366396E-002
  4.050033446533430E-002  4.214010075700469E-002  4.377986704867499E-002
  4.541963334034520E-002  4.705939963201523E-002  4.869916592368571E-002
  5.033893221535626E-002  5.197869850702650E-002  5.361846479869659E-002
  5.525823109036678E-002  5.689799738203717E-002  5.853776367370760E-002
  6.017752996537779E-002  6.181729625704798E-002  6.345706254871848E-002
  6.509682884038885E-002  6.673659513205889E-002  6.837636142372920E-002
  7.001612771539964E-002  7.165589400706983E-002  7.329566029874014E-002
  3.886899700059301E-002  4.050876329226345E-002  4.214852958393395E-002
  4.378829587560384E-002  4.542806216727419E-002  4.706782845894454E-002
  4.870759475061485E-002  5.034736104228510E-002  5.198712733395554E-002
  5.362689362562551E-002  5.526665991729575E-002  5.690642620896625E-002
  5.854619250063632E-002  6.018595879230684E-002  6.182572508397713E-002
  6.346549137564739E-002  6.510525766731756E-002  6.674502395898779E-002
  6.838479025065826E-002  7.002455654232853E-002  7.166432283399866E-002
  7.330408912566909E-002  7.494385541733942E-002  7.658362170900986E-002
  7.822338800067995E-002  7.986315429235040E-002  4.543649099420321E-002
  4.707625728587354E-002  4.871602357754403E-002  5.035578986921427E-002
  5.199555616088437E-002  5.363532245255516E-002  5.527508874422472E-002
  5.691485503589522E-002  5.855462132756554E-002  6.019438761923578E-002
  6.183415391090603E-002  6.347392020257644E-002  6.511368649424655E-002
  6.675345278591724E-002  6.839321907758715E-002  7.003298536925777E-002
  7.167275166092818E-002  7.331251795259788E-002  7.495228424426878E-002
  7.659205053593902E-002  7.823181682760892E-002  7.987158311927942E-002
  8.151134941094966E-002  8.315111570261999E-002  8.479088199429043E-002
  8.643064828596042E-002  5.189161334472956E-002  5.353137963639985E-002
  5.517114592807065E-002  5.681091221974036E-002  5.845067851141054E-002
  6.009044480308081E-002  6.173021109475130E-002  6.336997738642171E-002
  6.500974367809174E-002  6.664950996976232E-002  6.828927626143268E-002
  6.992904255310259E-002  7.156880884477300E-002  7.320857513644310E-002
  7.484834142811340E-002  7.648810771978411E-002  7.812787401145410E-002
  7.976764030312482E-002  8.140740659479480E-002  8.304717288646515E-002
  8.468693917813540E-002  8.632670546980506E-002  8.796647176147597E-002
  8.960623805314605E-002  9.124600434481640E-002  9.288577063648674E-002
  5.812391511905644E-002  5.976368141072667E-002  6.140344770239672E-002
  6.304321399406704E-002  6.468298028573728E-002  6.632274657740776E-002
  6.796251286907788E-002  6.960227916074813E-002  7.124204545241881E-002
  7.288181174408910E-002  7.452157803575885E-002  7.616134432742955E-002
  7.780111061909978E-002  7.944087691077005E-002  8.108064320244013E-002
  8.272040949411041E-002  8.436017578578078E-002  8.599994207745119E-002
  8.763970836912136E-002  8.927947466079170E-002  9.091924095246200E-002
  9.255900724413232E-002  9.419877353580250E-002  9.583853982747288E-002
  9.747830611914311E-002  9.911807241081315E-002  6.402675990590426E-002
  6.566652619757445E-002  6.730629248924482E-002  6.894605878091499E-002
  7.058582507258511E-002  7.222559136425555E-002  7.386535765592575E-002
  7.550512394759609E-002  7.714489023926638E-002  7.878465653093707E-002
  8.042442282260716E-002  8.206418911427739E-002  8.370395540594743E-002
  8.534372169761781E-002  8.698348798928823E-002  8.862325428095898E-002
  9.026302057262865E-002  9.190278686429937E-002  9.354255315596928E-002
  9.518231944763986E-002  9.682208573931016E-002  9.846185203098028E-002
  0.100101618322650       0.101741384614321       0.103381150905991     
  0.105020917197661       6.949914839439254E-002  7.113891468606280E-002
  7.277868097773262E-002  7.441844726940335E-002  7.605821356107376E-002
  7.769797985274388E-002  7.933774614441429E-002  8.097751243608446E-002
  8.261727872775503E-002  8.425704501942535E-002  8.589681131109565E-002
  8.753657760276562E-002  8.917634389443585E-002  9.081611018610640E-002
  9.245587647777648E-002  9.409564276944668E-002  9.573540906111706E-002
  9.737517535278745E-002  9.901494164445793E-002  0.100654707936128     
  0.102294474227798       0.103934240519469       0.105574006811139     
  0.107213773102809       0.108853539394480       0.110493305686150     
  7.444744650025062E-002  7.608721279192131E-002  7.772697908359134E-002
  7.936674537526188E-002  8.100651166693232E-002  8.264627795860208E-002
  8.428604425027209E-002  8.592581054194288E-002  8.756557683361313E-002
  8.920534312528355E-002  9.084510941695315E-002  9.248487570862378E-002
  9.412464200029433E-002  9.576440829196446E-002  9.740417458363511E-002
  9.904394087530501E-002  0.100683707166975       0.102323473458646     
  0.103963239750316       0.105603006041987       0.107242772333656     
  0.108882538625327       0.110522304916997       0.112162071208667     
  0.113801837500338       0.115441603792007       7.878698747096029E-002
  8.042675376262999E-002  8.206652005430069E-002  8.370628634597094E-002
  8.534605263764138E-002  8.698581892931161E-002  8.862558522098184E-002
  9.026535151265165E-002  9.190511780432244E-002  9.354488409599261E-002
  9.518465038766284E-002  9.682441667933325E-002  9.846418297100346E-002
  0.100103949262674       0.101743715554344       0.103383481846014     
  0.105023248137685       0.106663014429355       0.108302780721025     
  0.109942547012696       0.111582313304366       0.113222079596036     
  0.114861845887707       0.116501612179376       0.118141378471047     
  0.119781144762717       8.244352055736352E-002  8.408328684903374E-002
  8.572305314070434E-002  8.736281943237466E-002  8.900258572404457E-002
  9.064235201571486E-002  9.228211830738481E-002  9.392188459905590E-002
  9.556165089072592E-002  9.720141718239596E-002  9.884118347406655E-002
  0.100480949765737       0.102120716057406       0.103760482349077     
  0.105400248640747       0.107040014932418       0.108679781224088     
  0.110319547515758       0.111959313807429       0.113599080099099     
  0.115238846390769       0.116878612682439       0.118518378974110     
  0.120158145265780       0.121797911557450       0.123437677849121     
  8.535448146457017E-002  8.699424775624078E-002  8.863401404791101E-002
  9.027378033958125E-002  9.191354663125141E-002  9.355331292292177E-002
  9.519307921459211E-002  9.683284550626192E-002  9.847261179793274E-002
  0.100112378089603       0.101752144381273       0.103391910672944     
  0.105031676964614       0.106671443256284       0.108311209547954     
  0.109950975839625       0.111590742131295       0.113230508422965     
  0.114870274714635       0.116510041006306       0.118149807297976     
  0.119789573589646       0.121429339881317       0.123069106172987     
  0.124708872464657       0.126348638756328       8.747006284438760E-002
  8.910982913605726E-002  9.074959542772799E-002  9.238936171939803E-002
  9.402912801106850E-002  9.566889430273863E-002  9.730866059440887E-002
  9.894842688607884E-002  0.100588193177750       0.102227959469420     
  0.103867725761090       0.105507492052760       0.107147258344431     
  0.108787024636100       0.110426790927771       0.112066557219442     
  0.113706323511112       0.115346089802782       0.116985856094452     
  0.118625622386123       0.120265388677793       0.121905154969463     
  0.123544921261133       0.125184687552804       0.126824453844474     
  0.128464220136145       8.875406651285594E-002  9.039383280452620E-002
  9.203359909619650E-002  9.367336538786646E-002  9.531313167953649E-002
  9.695289797120719E-002  9.859266426287773E-002  0.100232430554547     
  0.101872196846218       0.103511963137888       0.105151729429559     
  0.106791495721229       0.108431262012899       0.110071028304569     
  0.111710794596240       0.113350560887910       0.114990327179580     
  0.116630093471250       0.118269859762921       0.119909626054591     
  0.121549392346261       0.123189158637932       0.124828924929602     
  0.126468691221273       0.128108457512942       0.129748223804613     
  8.918452281121499E-002  9.082428910288555E-002  9.246405539455603E-002
  9.410382168622627E-002  9.574358797789623E-002  9.738335426956651E-002
  9.902312056123683E-002  0.100662886852907       0.102302653144577     
  0.103942419436248       0.105582185727918       0.107221952019588     
  0.108861718311258       0.110501484602929       0.112141250894599     
  0.113781017186269       0.115420783477940       0.117060549769610     
  0.118700316061280       0.120340082352951       0.121979848644621     
  0.123619614936291       0.125259381227961       0.126899147519632     
  0.128538913811302       0.130178680102972     
  0.122241469960898       0.121797432453918       0.121353394946937     
  0.120909357439956       0.120465319932975       0.120021282425995     
  0.119577244919014       0.119133207412033       0.118689169905052     
  0.118245132398072       0.117801094891091       0.117357057384110     
  0.116913019877129       0.116468982370149       0.116024944863168     
  0.115580907356187       0.115136869849206       0.114692832342226     
  0.114248794835245       0.113804757328264       0.113360719821283     
  0.112916682314303       0.112472644807322       0.112028607300341     
  0.111584569793361       0.111140532286380       0.123831082813395     
  0.123387045306414       0.122943007799433       0.122498970292452     
  0.122054932785472       0.121610895278491       0.121166857771510     
  0.120722820264530       0.120278782757549       0.119834745250568     
  0.119390707743587       0.118946670236607       0.118502632729626     
  0.118058595222645       0.117614557715664       0.117170520208684     
  0.116726482701703       0.116282445194722       0.115838407687742     
  0.115394370180761       0.114950332673780       0.114506295166799     
  0.114062257659819       0.113618220152838       0.113174182645857     
  0.112730145138876       0.128572722654254       0.128128685147273     
  0.127684647640292       0.127240610133312       0.126796572626331     
  0.126352535119350       0.125908497612370       0.125464460105389     
  0.125020422598408       0.124576385091427       0.124132347584447     
  0.123688310077466       0.123244272570485       0.122800235063504     
  0.122356197556524       0.121912160049543       0.121468122542562     
  0.121024085035581       0.120580047528601       0.120136010021620     
  0.119691972514639       0.119247935007658       0.118803897500678     
  0.118359859993697       0.117915822486716       0.117471784979735     
  0.136385258711168       0.135941221204187       0.135497183697206     
  0.135053146190226       0.134609108683245       0.134165071176264     
  0.133721033669283       0.133276996162303       0.132832958655322     
  0.132388921148341       0.131944883641360       0.131500846134380     
  0.131056808627399       0.130612771120418       0.130168733613437     
  0.129724696106457       0.129280658599476       0.128836621092495     
  0.128392583585514       0.127948546078534       0.127504508571553     
  0.127060471064572       0.126616433557591       0.126172396050611     
  0.125728358543630       0.125284321036649       0.147135016326159     
  0.146690978819178       0.146246941312197       0.145802903805216     
  0.145358866298236       0.144914828791255       0.144470791284274     
  0.144026753777293       0.143582716270313       0.143138678763332     
  0.142694641256351       0.142250603749370       0.141806566242389     
  0.141362528735409       0.140918491228428       0.140474453721447     
  0.140030416214466       0.139586378707486       0.139142341200505     
  0.138698303693524       0.138254266186544       0.137810228679563     
  0.137366191172582       0.136922153665601       0.136478116158621     
  0.136034078651640       0.160638064166037       0.160194026659057     
  0.159749989152076       0.159305951645095       0.158861914138114     
  0.158417876631134       0.157973839124153       0.157529801617172     
  0.157085764110191       0.156641726603211       0.156197689096230     
  0.155753651589249       0.155309614082268       0.154865576575288     
  0.154421539068307       0.153977501561326       0.153533464054345     
  0.153089426547365       0.152645389040384       0.152201351533403     
  0.151757314026422       0.151313276519442       0.150869239012461     
  0.150425201505480       0.149981163998499       0.149537126491519     
  0.176663361338512       0.176219323831531       0.175775286324551     
  0.175331248817570       0.174887211310589       0.174443173803608     
  0.173999136296628       0.173555098789647       0.173111061282666     
  0.172667023775686       0.172222986268704       0.171778948761724     
  0.171334911254743       0.170890873747763       0.170446836240782     
  0.170002798733801       0.169558761226820       0.169114723719840     
  0.168670686212859       0.168226648705878       0.167782611198897     
  0.167338573691917       0.166894536184936       0.166450498677955     
  0.166006461170974       0.165562423663994       0.194936710565910     
  0.194492673058929       0.194048635551949       0.193604598044968     
  0.193160560537987       0.192716523031007       0.192272485524026     
  0.191828448017045       0.191384410510064       0.190940373003083     
  0.190496335496103       0.190052297989122       0.189608260482141     
  0.189164222975161       0.188720185468180       0.188276147961199     
  0.187832110454218       0.187388072947238       0.186944035440257     
  0.186499997933276       0.186055960426295       0.185611922919315     
  0.185167885412334       0.184723847905353       0.184279810398372     
  0.183835772891392       0.215145449776621       0.214701412269640     
  0.214257374762659       0.213813337255679       0.213369299748698     
  0.212925262241717       0.212481224734736       0.212037187227756     
  0.211593149720775       0.211149112213794       0.210705074706813     
  0.210261037199832       0.209816999692852       0.209372962185871     
  0.208928924678890       0.208484887171910       0.208040849664929     
  0.207596812157948       0.207152774650967       0.206708737143987     
  0.206264699637006       0.205820662130025       0.205376624623045     
  0.204932587116064       0.204488549609083       0.204044512102102     
  0.236943801839828       0.236499764332847       0.236055726825866     
  0.235611689318886       0.235167651811905       0.234723614304924     
  0.234279576797943       0.233835539290963       0.233391501783982     
  0.232947464277001       0.232503426770021       0.232059389263040     
  0.231615351756059       0.231171314249078       0.230727276742097     
  0.230283239235117       0.229839201728136       0.229395164221155     
  0.228951126714174       0.228507089207194       0.228063051700213     
  0.227619014193232       0.227174976686252       0.226730939179271     
  0.226286901672290       0.225842864165309       0.259958790908085     
  0.259514753401104       0.259070715894123       0.258626678387143     
  0.258182640880162       0.257738603373181       0.257294565866200     
  0.256850528359219       0.256406490852239       0.255962453345258     
  0.255518415838277       0.255074378331297       0.254630340824316     
  0.254186303317335       0.253742265810354       0.253298228303374     
  0.252854190796393       0.252410153289412       0.251966115782432     
  0.251522078275451       0.251078040768470       0.250634003261489     
  0.250189965754509       0.249745928247528       0.249301890740547     
  0.248857853233566       0.283796624137474       0.283352586630493     
  0.282908549123511       0.282464511616531       0.282020474109551     
  0.281576436602570       0.281132399095589       0.280688361588608     
  0.280244324081628       0.279800286574647       0.279356249067666     
  0.278912211560686       0.278468174053705       0.278024136546724     
  0.277580099039743       0.277136061532763       0.276692024025782     
  0.276247986518801       0.275803949011820       0.275359911504840     
  0.274915873997859       0.274471836490878       0.274027798983897     
  0.273583761476917       0.273139723969936       0.272695686462955     
  0.308049429592343       0.307605392085362       0.307161354578382     
  0.306717317071401       0.306273279564420       0.305829242057439     
  0.305385204550459       0.304941167043478       0.304497129536497     
  0.304053092029517       0.303609054522536       0.303165017015555     
  0.302720979508574       0.302276942001594       0.301832904494613     
  0.301388866987632       0.300944829480651       0.300500791973671     
  0.300056754466690       0.299612716959709       0.299168679452728     
  0.298724641945747       0.298280604438767       0.297836566931786     
  0.297392529424806       0.296948491917825       0.332302235047213     
  0.331858197540232       0.331414160033252       0.330970122526271     
  0.330526085019289       0.330082047512310       0.329638010005328     
  0.329193972498347       0.328749934991366       0.328305897484385     
  0.327861859977405       0.327417822470424       0.326973784963444     
  0.326529747456463       0.326085709949482       0.325641672442502     
  0.325197634935521       0.324753597428540       0.324309559921560     
  0.323865522414578       0.323421484907598       0.322977447400617     
  0.322533409893636       0.322089372386656       0.321645334879675     
  0.321201297372694       0.356140068276601       0.355696030769621     
  0.355251993262640       0.354807955755659       0.354363918248679     
  0.353919880741698       0.353475843234717       0.353031805727736     
  0.352587768220756       0.352143730713775       0.351699693206794     
  0.351255655699814       0.350811618192832       0.350367580685851     
  0.349923543178871       0.349479505671890       0.349035468164910     
  0.348591430657929       0.348147393150949       0.347703355643967     
  0.347259318136987       0.346815280630006       0.346371243123025     
  0.345927205616044       0.345483168109064       0.345039130602083     
  0.379155057344859       0.378711019837878       0.378266982330897     
  0.377822944823917       0.377378907316936       0.376934869809955     
  0.376490832302974       0.376046794795993       0.375602757289013     
  0.375158719782032       0.374714682275051       0.374270644768070     
  0.373826607261090       0.373382569754109       0.372938532247128     
  0.372494494740148       0.372050457233167       0.371606419726186     
  0.371162382219205       0.370718344712225       0.370274307205243     
  0.369830269698263       0.369386232191282       0.368942194684302     
  0.368498157177321       0.368054119670340       0.400953409408066     
  0.400509371901085       0.400065334394104       0.399621296887123     
  0.399177259380142       0.398733221873161       0.398289184366181     
  0.397845146859200       0.397401109352219       0.396957071845239     
  0.396513034338258       0.396068996831278       0.395624959324296     
  0.395180921817316       0.394736884310335       0.394292846803355     
  0.393848809296373       0.393404771789393       0.392960734282412     
  0.392516696775431       0.392072659268451       0.391628621761470     
  0.391184584254489       0.390740546747508       0.390296509240528     
  0.389852471733547       0.421162148618776       0.420718111111795     
  0.420274073604815       0.419830036097834       0.419385998590853     
  0.418941961083872       0.418497923576892       0.418053886069911     
  0.417609848562930       0.417165811055950       0.416721773548969     
  0.416277736041988       0.415833698535007       0.415389661028026     
  0.414945623521046       0.414501586014064       0.414057548507084     
  0.413613511000104       0.413169473493123       0.412725435986142     
  0.412281398479161       0.411837360972181       0.411393323465200     
  0.410949285958219       0.410505248451238       0.410061210944258     
  0.439435497846174       0.438991460339193       0.438547422832213     
  0.438103385325231       0.437659347818251       0.437215310311271     
  0.436771272804290       0.436327235297309       0.435883197790328     
  0.435439160283348       0.434995122776367       0.434551085269386     
  0.434107047762405       0.433663010255425       0.433218972748444     
  0.432774935241463       0.432330897734482       0.431886860227501     
  0.431442822720520       0.430998785213540       0.430554747706559     
  0.430110710199579       0.429666672692598       0.429222635185617     
  0.428778597678637       0.428334560171655       0.455460795018649     
  0.455016757511668       0.454572720004687       0.454128682497706     
  0.453684644990725       0.453240607483745       0.452796569976764     
  0.452352532469784       0.451908494962803       0.451464457455822     
  0.451020419948841       0.450576382441861       0.450132344934880     
  0.449688307427899       0.449244269920919       0.448800232413938     
  0.448356194906957       0.447912157399976       0.447468119892996     
  0.447024082386015       0.446580044879034       0.446136007372053     
  0.445691969865072       0.445247932358092       0.444803894851111     
  0.444359857344130       0.468963842858528       0.468519805351547     
  0.468075767844566       0.467631730337586       0.467187692830605     
  0.466743655323624       0.466299617816643       0.465855580309663     
  0.465411542802682       0.464967505295701       0.464523467788721     
  0.464079430281740       0.463635392774758       0.463191355267778     
  0.462747317760797       0.462303280253817       0.461859242746836     
  0.461415205239855       0.460971167732875       0.460527130225894     
  0.460083092718913       0.459639055211932       0.459195017704952     
  0.458750980197970       0.458306942690990       0.457862905184009     
  0.479713600473518       0.479269562966537       0.478825525459557     
  0.478381487952576       0.477937450445596       0.477493412938615     
  0.477049375431634       0.476605337924653       0.476161300417672     
  0.475717262910692       0.475273225403711       0.474829187896730     
  0.474385150389750       0.473941112882768       0.473497075375788     
  0.473053037868807       0.472609000361827       0.472164962854846     
  0.471720925347865       0.471276887840884       0.470832850333904     
  0.470388812826923       0.469944775319942       0.469500737812961     
  0.469056700305980       0.468612662799000       0.487526136530433     
  0.487082099023451       0.486638061516471       0.486194024009490     