 Title = "Wing and Wake"
 VARIABLES = "X" "Y" "Z" "GAM"
 Zone I=   26 J=   25 K=1  T="Blade"
 DATAPACKING=BLOCK
 VARLOCATION=([4]=CELLCENTERED)
  0.115104331561733       0.115100196218126       0.115096060874519     
  0.115091925530913       0.115087790187306       0.115083654843699     
  0.115079519500092       0.115075384156485       0.115071248812878     
  0.115067113469272       0.115062978125665       0.115058842782058     
  0.115054707438451       0.115050572094844       0.115046436751238     
  0.115042301407631       0.115038166064024       0.115034030720417     
  0.115029895376810       0.115025760033204       0.115021624689596     
  0.115017489345990       0.115013354002383       0.115009218658776     
  0.115005083315170       0.115000947971563       0.116751190868004     
  0.116747055524397       0.116742920180790       0.116738784837184     
  0.116734649493577       0.116730514149970       0.116726378806363     
  0.116722243462756       0.116718108119149       0.116713972775543     
  0.116709837431936       0.116705702088329       0.116701566744722     
  0.116697431401115       0.116693296057509       0.116689160713902     
  0.116685025370295       0.116680890026688       0.116676754683081     
  0.116672619339475       0.116668483995868       0.116664348652261     
  0.116660213308654       0.116656077965048       0.116651942621440     
  0.116647807277833       0.121663590567491       0.121659455223884     
  0.121655319880278       0.121651184536671       0.121647049193064     
  0.121642913849457       0.121638778505851       0.121634643162243     
  0.121630507818637       0.121626372475030       0.121622237131423     
  0.121618101787816       0.121613966444209       0.121609831100603     
  0.121605695756996       0.121601560413389       0.121597425069782     
  0.121593289726175       0.121589154382569       0.121585019038962     
  0.121580883695355       0.121576748351748       0.121572613008142     
  0.121568477664535       0.121564342320928       0.121560206977321     
  0.129757478139362       0.129753342795756       0.129749207452148     
  0.129745072108542       0.129740936764935       0.129736801421328     
  0.129732666077721       0.129728530734115       0.129724395390508     
  0.129720260046901       0.129716124703294       0.129711989359687     
  0.129707854016081       0.129703718672474       0.129699583328867     
  0.129695447985260       0.129691312641653       0.129687177298046     
  0.129683041954439       0.129678906610833       0.129674771267226     
  0.129670635923619       0.129666500580012       0.129662365236405     
  0.129658229892799       0.129654094549192       0.140894364923213     
  0.140890229579605       0.140886094235999       0.140881958892392     
  0.140877823548785       0.140873688205178       0.140869552861571     
  0.140865417517965       0.140861282174358       0.140857146830751     
  0.140853011487144       0.140848876143537       0.140844740799930     
  0.140840605456324       0.140836470112717       0.140832334769110     
  0.140828199425503       0.140824064081896       0.140819928738290     
  0.140815793394683       0.140811658051076       0.140807522707469     
  0.140803387363862       0.140799252020255       0.140795116676649     
  0.140790981333042       0.154883695698441       0.154879560354835     
  0.154875425011228       0.154871289667621       0.154867154324014     
  0.154863018980407       0.154858883636800       0.154854748293194     
  0.154850612949587       0.154846477605980       0.154842342262373     
  0.154838206918766       0.154834071575160       0.154829936231553     
  0.154825800887946       0.154821665544339       0.154817530200732     
  0.154813394857126       0.154809259513519       0.154805124169912     
  0.154800988826305       0.154796853482698       0.154792718139091     
  0.154788582795485       0.154784447451877       0.154780312108271     
  0.171486109136910       0.171481973793304       0.171477838449697     
  0.171473703106090       0.171469567762483       0.171465432418877     
  0.171461297075269       0.171457161731663       0.171453026388056     
  0.171448891044449       0.171444755700842       0.171440620357235     
  0.171436485013628       0.171432349670022       0.171428214326415     
  0.171424078982808       0.171419943639201       0.171415808295594     
  0.171411672951988       0.171407537608381       0.171403402264774     
  0.171399266921167       0.171395131577561       0.171390996233953     
  0.171386860890346       0.171382725546740       0.190417533341629     
  0.190413397998022       0.190409262654415       0.190405127310808     
  0.190400991967201       0.190396856623594       0.190392721279988     
  0.190388585936381       0.190384450592774       0.190380315249167     
  0.190376179905560       0.190372044561954       0.190367909218347     
  0.190363773874740       0.190359638531133       0.190355503187526     
  0.190351367843920       0.190347232500313       0.190343097156706     
  0.190338961813099       0.190334826469492       0.190330691125885     
  0.190326555782278       0.190322420438671       0.190318285095065     
  0.190314149751458       0.211354046395670       0.211349911052063     
  0.211345775708456       0.211341640364850       0.211337505021243     
  0.211333369677636       0.211329234334029       0.211325098990422     
  0.211320963646815       0.211316828303208       0.211312692959602     
  0.211308557615995       0.211304422272388       0.211300286928781     
  0.211296151585174       0.211292016241568       0.211287880897961     
  0.211283745554354       0.211279610210747       0.211275474867140     
  0.211271339523533       0.211267204179927       0.211263068836320     
  0.211258933492713       0.211254798149107       0.211250662805500     
  0.233937418755982       0.233933283412376       0.233929148068769     
  0.233925012725162       0.233920877381556       0.233916742037949     
  0.233912606694342       0.233908471350735       0.233904336007129     
  0.233900200663521       0.233896065319915       0.233891929976308     
  0.233887794632701       0.233883659289094       0.233879523945487     
  0.233875388601881       0.233871253258274       0.233867117914667     
  0.233862982571060       0.233858847227454       0.233854711883846     
  0.233850576540240       0.233846441196633       0.233842305853026     
  0.233838170509419       0.233834035165812       0.257781242660188     
  0.257777107316581       0.257772971972975       0.257768836629367     
  0.257764701285761       0.257760565942154       0.257756430598547     
  0.257752295254940       0.257748159911334       0.257744024567727     
  0.257739889224120       0.257735753880513       0.257731618536906     
  0.257727483193299       0.257723347849693       0.257719212506086     
  0.257715077162479       0.257710941818872       0.257706806475266     
  0.257702671131659       0.257698535788051       0.257694400444445     
  0.257690265100838       0.257686129757231       0.257681994413625     
  0.257677859070017       0.282477543670528       0.282473408326921     
  0.282469272983313       0.282465137639707       0.282461002296100     
  0.282456866952494       0.282452731608887       0.282448596265280     
  0.282444460921673       0.282440325578066       0.282436190234460     
  0.282432054890854       0.282427919547247       0.282423784203639     
  0.282419648860032       0.282415513516426       0.282411378172819     
  0.282407242829212       0.282403107485605       0.282398972141998     
  0.282394836798392       0.282390701454785       0.282386566111178     
  0.282382430767571       0.282378295423964       0.282374160080358     
  0.307603761229607       0.307599625886000       0.307595490542394     
  0.307591355198786       0.307587219855180       0.307583084511574     
  0.307578949167966       0.307574813824359       0.307570678480752     
  0.307566543137146       0.307562407793539       0.307558272449933     
  0.307554137106325       0.307550001762720       0.307545866419112     
  0.307541731075505       0.307537595731898       0.307533460388291     
  0.307529325044685       0.307525189701078       0.307521054357471     
  0.307516919013864       0.307512783670256       0.307508648326650     
  0.307504512983044       0.307500377639437       0.332729978788686     
  0.332725843445080       0.332721708101473       0.332717572757866     
  0.332713437414259       0.332709302070653       0.332705166727045     
  0.332701031383439       0.332696896039831       0.332692760696224     
  0.332688625352618       0.332684490009011       0.332680354665404     
  0.332676219321799       0.332672083978191       0.332667948634584     
  0.332663813290977       0.332659677947370       0.332655542603764     
  0.332651407260157       0.332647271916550       0.332643136572943     
  0.332639001229336       0.332634865885730       0.332630730542123     
  0.332626595198516       0.357426279799026       0.357422144455420     
  0.357418009111812       0.357413873768205       0.357409738424599     
  0.357405603080992       0.357401467737385       0.357397332393779     
  0.357393197050172       0.357389061706565       0.357384926362959     
  0.357380791019351       0.357376655675744       0.357372520332137     
  0.357368384988531       0.357364249644924       0.357360114301317     
  0.357355978957711       0.357351843614104       0.357347708270497     
  0.357343572926891       0.357339437583283       0.357335302239676     
  0.357331166896069       0.357327031552462       0.357322896208856     
  0.381270103703231       0.381265968359625       0.381261833016018     
  0.381257697672412       0.381253562328805       0.381249426985197     
  0.381245291641591       0.381241156297984       0.381237020954377     
  0.381232885610770       0.381228750267162       0.381224614923557     
  0.381220479579950       0.381216344236343       0.381212208892735     
  0.381208073549129       0.381203938205522       0.381199802861915     
  0.381195667518309       0.381191532174702       0.381187396831094     
  0.381183261487488       0.381179126143882       0.381174990800275     
  0.381170855456668       0.381166720113061       0.403853476063544     
  0.403849340719938       0.403845205376330       0.403841070032723     
  0.403836934689116       0.403832799345510       0.403828664001903     
  0.403824528658296       0.403820393314689       0.403816257971083     
  0.403812122627476       0.403807987283869       0.403803851940262     
  0.403799716596656       0.403795581253048       0.403791445909443     
  0.403787310565835       0.403783175222229       0.403779039878621     
  0.403774904535015       0.403770769191408       0.403766633847801     
  0.403762498504194       0.403758363160588       0.403754227816981     
  0.403750092473374       0.424789989117586       0.424785853773979     
  0.424781718430372       0.424777583086765       0.424773447743158     
  0.424769312399551       0.424765177055945       0.424761041712338     
  0.424756906368731       0.424752771025125       0.424748635681518     
  0.424744500337911       0.424740364994305       0.424736229650698     
  0.424732094307090       0.424727958963483       0.424723823619877     
  0.424719688276270       0.424715552932664       0.424711417589057     
  0.424707282245449       0.424703146901843       0.424699011558236     
  0.424694876214629       0.424690740871022       0.424686605527416     
  0.443721413322304       0.443717277978698       0.443713142635090     
  0.443709007291483       0.443704871947877       0.443700736604270     
  0.443696601260662       0.443692465917055       0.443688330573449     
  0.443684195229843       0.443680059886235       0.443675924542629     
  0.443671789199022       0.443667653855415       0.443663518511809     
  0.443659383168203       0.443655247824596       0.443651112480988     
  0.443646977137381       0.443642841793774       0.443638706450168     
  0.443634571106561       0.443630435762954       0.443626300419347     
  0.443622165075740       0.443618029732133       0.460323826760774     
  0.460319691417166       0.460315556073559       0.460311420729952     
  0.460307285386345       0.460303150042739       0.460299014699133     
  0.460294879355525       0.460290744011918       0.460286608668312     
  0.460282473324704       0.460278337981098       0.460274202637491     
  0.460270067293884       0.460265931950277       0.460261796606671     
  0.460257661263063       0.460253525919456       0.460249390575850     
  0.460245255232244       0.460241119888636       0.460236984545030     
  0.460232849201423       0.460228713857817       0.460224578514209     
  0.460220443170602       0.474313157536002       0.474309022192394     
  0.474304886848788       0.474300751505182       0.474296616161575     
  0.474292480817968       0.474288345474361       0.474284210130754     
  0.474280074787148       0.474275939443540       0.474271804099934     
  0.474267668756327       0.474263533412720       0.474259398069113     
  0.474255262725507       0.474251127381900       0.474246992038293     
  0.474242856694686       0.474238721351080       0.474234586007473     
  0.474230450663866       0.474226315320260       0.474222179976652     
  0.474218044633045       0.474213909289438       0.474209773945831     
  0.485450044319852       0.485445908976245       0.485441773632639     
  0.485437638289031       0.485433502945425       0.485429367601817     
  0.485425232258211       0.485421096914604       0.485416961570997     
  0.485412826227391       0.485408690883784       0.485404555540176     
  0.485400420196570       0.485396284852963       0.485392149509357     
  0.485388014165749       0.485383878822143       0.485379743478536     
  0.485375608134929       0.485371472791322       0.485367337447716     
  0.485363202104109       0.485359066760502       0.485354931416896     
  0.485350796073289       0.485346660729682       0.493543931891723     
  0.493539796548116       0.493535661204509       0.493531525860903     
  0.493527390517296       0.493523255173689       0.493519119830082     
  0.493514984486474       0.493510849142869       0.493506713799262     
  0.493502578455654       0.493498443112048       0.493494307768440     
  0.493490172424834       0.493486037081228       0.493481901737621     
  0.493477766394014       0.493473631050407       0.493469495706800     
  0.493465360363193       0.493461225019586       0.493457089675980     
  0.493452954332373       0.493448818988766       0.493444683645158     
  0.493440548301552       0.498456331591211       0.498452196247603     
  0.498448060903997       0.498443925560389       0.498439790216783     
  0.498435654873177       0.498431519529569       0.498427384185962     
  0.498423248842356       0.498419113498748       0.498414978155142     
  0.498410842811535       0.498406707467928       0.498402572124321     
  0.498398436780715       0.498394301437108       0.498390166093500     
  0.498386030749894       0.498381895406288       0.498377760062681     
  0.498373624719073       0.498369489375467       0.498365354031861     
  0.498361218688253       0.498357083344645       0.498352948001041     
  0.500103190897481       0.500099055553874       0.500094920210268     
  0.500090784866660       0.500086649523053       0.500082514179448     
  0.500078378835840       0.500074243492234       0.500070108148627     
  0.500065972805020       0.500061837461414       0.500057702117807     
  0.500053566774200       0.500049431430592       0.500045296086986     
  0.500041160743379       0.500037025399773       0.500032890056166     
  0.500028754712558       0.500024619368952       0.500020484025344     
  0.500016348681739       0.500012213338131       0.500008077994525     
  0.500003942650918       0.499999807307310     
  4.271993510911180E-002  4.102111619650322E-002  3.932229728389432E-002
  3.762347837128580E-002  3.592465945867696E-002  3.422584054606831E-002
  3.252702163345954E-002  3.082820272085082E-002  2.912938380824207E-002
  2.743056489563349E-002  2.573174598302468E-002  2.403292707041595E-002
  2.233410815780723E-002  2.063528924519858E-002  1.893647033258976E-002
  1.723765141998119E-002  1.553883250737233E-002  1.384001359476362E-002
  1.214119468215492E-002  1.044237576954616E-002  8.743556856937366E-003
  7.044737944328917E-003  5.345919031719971E-003  3.647100119111365E-003
  1.948281206502676E-003  2.494622938939547E-004  4.271592624798305E-002
  4.101710733537428E-002  3.931828842276570E-002  3.761946951015690E-002
  3.592065059754818E-002  3.422183168493961E-002  3.252301277233072E-002
  3.082419385972207E-002  2.912537494711336E-002  2.742655603450461E-002
  2.572773712189601E-002  2.402891820928717E-002  2.233009929667842E-002
  2.063128038406985E-002  1.893246147146110E-002  1.723364255885234E-002
  1.553482364624358E-002  1.383600473363480E-002  1.213718582102631E-002
  1.043836690841742E-002  8.739547995808880E-003  7.040729083200031E-003
  5.341910170591502E-003  3.643091257982606E-003  1.944272345373873E-003
  2.454534327652842E-004  4.270396825732226E-002  4.100514934471347E-002
  3.930633043210479E-002  3.760751151949610E-002  3.590869260688747E-002
  3.420987369427872E-002  3.251105478166991E-002  3.081223586906136E-002
  2.911341695645238E-002  2.741459804384358E-002  2.571577913123507E-002
  2.401696021862631E-002  2.231814130601765E-002  2.061932239340895E-002
  1.892050348080029E-002  1.722168456819153E-002  1.552286565558293E-002
  1.382404674297423E-002  1.212522783036518E-002  1.042640891775666E-002
  8.727590005147992E-003  7.028771092539301E-003  5.329952179930647E-003
  3.631133267321750E-003  1.932314354713019E-003  2.334954421043767E-004
  4.268426574166491E-002  4.098544682905637E-002  3.928662791644745E-002
  3.758780900383880E-002  3.588899009123010E-002  3.419017117862132E-002
  3.249135226601260E-002  3.079253335340383E-002  2.909371444079523E-002
  2.739489552818658E-002  2.569607661557774E-002  2.399725770296895E-002
  2.229843879036037E-002  2.059961987775146E-002  1.890080096514309E-002
  1.720198205253411E-002  1.550316313992552E-002  1.380434422731673E-002
  1.210552531470810E-002  1.040670640209935E-002  8.707887489490657E-003
  7.009068576881995E-003  5.310249664273192E-003  3.611430751664467E-003
  1.912611839055695E-003  2.137929264469492E-004  4.265715581651667E-002
  4.095833690390799E-002  3.925951799129910E-002  3.756069907869024E-002
  3.586188016608192E-002  3.416306125347277E-002  3.246424234086417E-002
  3.076542342825547E-002  2.906660451564680E-002  2.736778560303826E-002
  2.566896669042965E-002  2.397014777782068E-002  2.227132886521192E-002
  2.057250995260318E-002  1.887369103999456E-002  1.717487212738571E-002
  1.547605321477705E-002  1.377723430216851E-002  1.207841538955985E-002
  1.037959647695091E-002  8.680777564342317E-003  6.981958651733495E-003
  5.283139739124819E-003  3.584320826516234E-003  1.885501913907658E-003
  1.866830012987291E-004  4.262310234021272E-002  4.092428342760404E-002
  3.922546451499530E-002  3.752664560238655E-002  3.582782668977787E-002
  3.412900777716922E-002  3.243018886456048E-002  3.073136995195169E-002
  2.903255103934295E-002  2.733373212673429E-002  2.563491321412540E-002
  2.393609430151671E-002  2.223727538890824E-002  2.053845647629939E-002
  1.883963756369075E-002  1.714081865108199E-002  1.544199973847308E-002
  1.374318082586459E-002  1.204436191325584E-002  1.034554300064737E-002
  8.646724088038397E-003  6.947905175429826E-003  5.249086262821241E-003
  3.550267350212409E-003  1.851448437603429E-003  1.526295249949715E-004
  4.258268797717440E-002  4.088386906456579E-002  3.918505015195706E-002
  3.748623123934825E-002  3.578741232673954E-002  3.408859341413068E-002
  3.238977450152215E-002  3.069095558891359E-002  2.899213667630487E-002
  2.729331776369609E-002  2.559449885108738E-002  2.389567993847855E-002
  2.219686102586967E-002  2.049804211326130E-002  1.879922320065225E-002
  1.710040428804376E-002  1.540158537543507E-002  1.370276646282635E-002
  1.200394755021758E-002  1.030512863760895E-002  8.606309725000415E-003
  6.907490812391458E-003  5.208671899782774E-003  3.509852987173898E-003
  1.811034074565397E-003  1.122151619565283E-004  4.253660422835837E-002
  4.083778531574943E-002  3.913896640314080E-002  3.744014749053220E-002
  3.574132857792366E-002  3.404250966531479E-002  3.234369075270590E-002
  3.064487184009748E-002  2.894605292748831E-002  2.724723401487995E-002
  2.554841510227094E-002  2.384959618966247E-002  2.215077727705359E-002
  2.045195836444467E-002  1.875313945183611E-002  1.705432053922744E-002
  1.535550162661884E-002  1.365668271401024E-002  1.195786380140127E-002
  1.025904488879276E-002  8.560225976184114E-003  6.861407063575227E-003
  5.162588150966763E-003  3.463769238358049E-003  1.764950325749337E-003
  6.613141314030503E-005  4.248563959948345E-002  4.078682068687477E-002
  3.908800177426577E-002  3.738918286165689E-002  3.569036394904833E-002
  3.399154503643954E-002  3.229272612383077E-002  3.059390721122215E-002
  2.889508829861349E-002  2.719626938600454E-002  2.549745047339601E-002
  2.379863156078740E-002  2.209981264817882E-002  2.040099373556986E-002
  1.870217482296121E-002  1.700335591035224E-002  1.530453699774386E-002
  1.360571808513514E-002  1.190689917252623E-002  1.020808025991767E-002
  8.509261347308974E-003  6.810442434700255E-003  5.111623522091402E-003
  3.412804609482842E-003  1.713985696874059E-003  1.516678426511236E-005
  4.243066610947944E-002  4.073184719687068E-002  3.903302828426199E-002
  3.733420937165332E-002  3.563539045904460E-002  3.393657154643610E-002
  3.223775263382727E-002  3.053893372121831E-002  2.884011480860993E-002
  2.714129589600099E-002  2.544247698339219E-002  2.374365807078381E-002
  2.204483915817486E-002  2.034602024556614E-002  1.864720133295749E-002
  1.694838242034861E-002  1.524956350774020E-002  1.355074459513140E-002
  1.185192568252248E-002  1.015310676991383E-002  8.454287857305339E-003
  6.755468944696486E-003  5.056650032087725E-003  3.357831119478906E-003
  1.659012206870341E-003 -3.980670573841919E-005  4.237262437000255E-002
  4.067380545739348E-002  3.897498654478476E-002  3.727616763217638E-002
  3.557734871956782E-002  3.387852980695896E-002  3.217971089435010E-002
  3.048089198174138E-002  2.878207306913275E-002  2.708325415652411E-002
  2.538443524391509E-002  2.368561633130687E-002  2.198679741869754E-002
  2.028797850608925E-002  1.858915959348045E-002  1.689034068087144E-002
  1.519152176826296E-002  1.349270285565429E-002  1.179388394304558E-002
  1.009506503043692E-002  8.396246117828096E-003  6.697427205219306E-003
  4.998608292610790E-003  3.299789380001887E-003  1.600970467393472E-003
 -9.784844521557867E-005  4.231250749130658E-002  4.061368857869830E-002
  3.891486966608932E-002  3.721605075348064E-002  3.551723184087213E-002
  3.381841292826360E-002  3.211959401565453E-002  3.042077510304558E-002
  2.872195619043709E-002  2.702313727782869E-002  2.532431836521991E-002
  2.362549945261072E-002  2.192668054000232E-002  2.022786162739347E-002
  1.852904271478510E-002  1.683022380217614E-002  1.513140488956724E-002
  1.343258597695833E-002  1.173376706434989E-002  1.003494815174136E-002
  8.336129239132453E-003  6.637310326523860E-003  4.938491413915313E-003
  3.239672501306167E-003  1.540853588697747E-003 -1.579653239111354E-004
  4.225134408985481E-002  4.055252517724626E-002  3.885370626463656E-002
  3.715488735202854E-002  3.545606843942010E-002  3.375724952681112E-002
  3.205843061420260E-002  3.035961170159395E-002  2.866079278898467E-002
  2.696197387637651E-002  2.526315496376787E-002  2.356433605115875E-002
  2.186551713855033E-002  2.016669822594154E-002  1.846787931333266E-002
  1.676906040072380E-002  1.507024148811529E-002  1.337142257550656E-002
  1.167260366289784E-002  9.973784750289314E-003  8.274965837680505E-003
  6.576146925071766E-003  4.877328012462794E-003  3.178509099853869E-003
  1.479690187245390E-003 -2.191287253634411E-004  4.219018068840224E-002
  4.049136177579407E-002  3.879254286318547E-002  3.709372395057642E-002
  3.539490503796727E-002  3.369608612535872E-002  3.199726721275045E-002
  3.029844830014156E-002  2.859962938753291E-002  2.690081047492388E-002
  2.520199156231554E-002  2.350317264970688E-002  2.180435373709867E-002
  2.010553482448918E-002  1.840671591188054E-002  1.670789699927175E-002
  1.500907808666264E-002  1.331025917405479E-002  1.161144026144555E-002
  9.912621348836628E-003  8.213802436228469E-003  6.514983523619456E-003
  4.816164611010837E-003  3.117345698401996E-003  1.418526785793510E-003
 -2.802921268153101E-004  4.213006380970678E-002  4.043124489709819E-002
  3.873242598448896E-002  3.703360707188073E-002  3.533478815927201E-002
  3.363596924666404E-002  3.193715033405476E-002  3.023833142144610E-002
  2.853951250883750E-002  2.684069359622878E-002  2.514187468361969E-002
  2.344305577101156E-002  2.174423685840214E-002  2.004541794579365E-002
  1.834659903318530E-002  1.664778012057588E-002  1.494896120796737E-002
  1.325014229535804E-002  1.155132338275005E-002  9.852504470141178E-003
  8.153685557532375E-003  6.454866644924378E-003  4.756047732315383E-003
  3.057228819706607E-003  1.358409907097665E-003 -3.404090055108123E-004
  4.207202207022984E-002  4.037320315762111E-002  3.867438424501227E-002
  3.697556533240400E-002  3.527674641979518E-002  3.357792750718619E-002
  3.187910859457761E-002  3.018028968196905E-002  2.848147076935986E-002
  2.678265185675107E-002  2.508383294414284E-002  2.338501403153389E-002
  2.168619511892533E-002  1.998737620631665E-002  1.828855729370762E-002
  1.658973838109928E-002  1.489091946849063E-002  1.319210055588169E-002
  1.149328164327278E-002  9.794462730664604E-003  8.095643818055763E-003
  6.396824905446826E-003  4.698005992838281E-003  2.999187080229555E-003
  1.300368167620286E-003 -3.984507449881555E-004  4.201704858022588E-002
  4.031822966761753E-002  3.861941075500777E-002  3.692059184239991E-002
  3.522177292979131E-002  3.352295401718235E-002  3.182413510457388E-002
  3.012531619196511E-002  2.842649727935597E-002  2.672767836674756E-002
  2.502885945413889E-002  2.333004054152969E-002  2.163122162892164E-002
  1.993240271631244E-002  1.823358380370379E-002  1.653476489109488E-002
  1.483594597848659E-002  1.313712706587767E-002  1.143830815326946E-002
  9.739489240660067E-003  8.040670328051421E-003  6.341851415442468E-003
  4.643032502834702E-003  2.944213590225606E-003  1.245394677616479E-003
 -4.534242349920880E-004  4.196608395135110E-002  4.026726503874231E-002
  3.856844612613401E-002  3.686962721352496E-002  3.517080830091664E-002
  3.347198938830708E-002  3.177317047569837E-002  3.007435156309049E-002
  2.837553265048073E-002  2.667671373787245E-002  2.497789482526381E-002
  2.327907591265565E-002  2.158025700004701E-002  1.988143808743766E-002
  1.818261917482940E-002  1.648380026222033E-002  1.478498134961157E-002
  1.308616243700292E-002  1.138734352439413E-002  9.688524611785352E-003
  7.989705699176916E-003  6.290886786568062E-003  4.592067873959414E-003
  2.893248961350698E-003  1.194430048741475E-003 -5.043888638673930E-004
  4.192000020253471E-002  4.022118128992545E-002  3.852236237731759E-002
  3.682354346470790E-002  3.512472455210042E-002  3.342590563949165E-002
  3.172708672688265E-002  3.002826781427368E-002  2.832944890166497E-002
  2.663062998905644E-002  2.493181107644799E-002  2.323299216383928E-002
  2.153417325123012E-002  1.983535433862159E-002  1.813653542601260E-002
  1.643771651340399E-002  1.473889760079560E-002  1.304007868818640E-002
  1.134125977557788E-002  9.642440862969356E-003  7.943621950360850E-003
  6.244803037751910E-003  4.545984125143234E-003  2.847165212534184E-003
  1.148346299925381E-003 -5.504726126823839E-004  4.187958583949609E-002
  4.018076692688824E-002  3.848194801427877E-002  3.678312910167028E-002
  3.508431018906083E-002  3.338549127645259E-002  3.168667236384445E-002
  2.998785345123570E-002  2.828903453862691E-002  2.659021562601780E-002
  2.489139671340927E-002  2.319257780080085E-002  2.149375888819169E-002
  1.979493997558326E-002  1.809612106297463E-002  1.639730215036590E-002
  1.469848323775743E-002  1.299966432514859E-002  1.130084541254006E-002
  9.602026499931004E-003  7.903207587321933E-003  6.204388674713224E-003
  4.505569762104285E-003  2.806750849496261E-003  1.107931936887085E-003
 -5.908869757211462E-004  4.184553236319249E-002  4.014671345058416E-002
  3.844789453797544E-002  3.674907562536638E-002  3.505025671275774E-002
  3.335143780014938E-002  3.165261888754073E-002  2.995379997493161E-002
  2.825498106232324E-002  2.655616214971421E-002  2.485734323710528E-002
  2.315852432449702E-002  2.145970541188839E-002  1.976088649927914E-002
  1.806206758667067E-002  1.636324867406180E-002  1.466442976145319E-002
  1.296561084884457E-002  1.126679193623598E-002  9.567973023627189E-003
  7.869154111017964E-003  6.170335198409811E-003  4.471516285800448E-003
  2.772697373192384E-003  1.073878460583648E-003 -6.249404520247422E-004
  4.181842243804418E-002  4.011960352543529E-002  3.842078461282655E-002
  3.672196570021803E-002  3.502314678760993E-002  3.332432787500080E-002
  3.162550896239144E-002  2.992669004978390E-002  2.822787113717438E-002
  2.652905222456590E-002  2.483023331195732E-002  2.313141439934857E-002
  2.143259548673929E-002  1.973377657413095E-002  1.803495766152250E-002
  1.633613874891360E-002  1.463731983630501E-002  1.293850092369664E-002
  1.123968201108757E-002  9.540863098478812E-003  7.842044185870657E-003
  6.143225273260459E-003  4.444406360652446E-003  2.745587448043281E-003
  1.046768535435170E-003 -6.520503771735789E-004  4.179871992238678E-002
  4.009990100977888E-002  3.840108209716968E-002  3.670226318456122E-002