 Title = "Wing and Wake"
 VARIABLES = "X" "Y" "Z" "GAM"
 Zone I=   26 J=   25 K=1  T="Blade"
 DATAPACKING=BLOCK
 VARLOCATION=([4]=CELLCENTERED)
  0.100128602182924       0.100564223064340       0.100999843945756     
  0.101435464827171       0.101871085708587       0.102306706590003     
  0.102742327471418       0.103177948352833       0.103613569234249     
  0.104049190115665       0.104484810997081       0.104920431878496     
  0.105356052759912       0.105791673641327       0.106227294522743     
  0.106662915404158       0.107098536285574       0.107534157166990     
  0.107969778048405       0.108405398929821       0.108841019811236     
  0.109276640692652       0.109712261574068       0.110147882455483     
  0.110583503336899       0.111019124218314       0.101720402045905     
  0.102156022927321       0.102591643808736       0.103027264690152     
  0.103462885571567       0.103898506452983       0.104334127334399     
  0.104769748215814       0.105205369097230       0.105640989978645     
  0.106076610860061       0.106512231741477       0.106947852622892     
  0.107383473504308       0.107819094385723       0.108254715267139     
  0.108690336148555       0.109125957029970       0.109561577911386     
  0.109997198792801       0.110432819674217       0.110868440555633     
  0.111304061437048       0.111739682318464       0.112175303199879     
  0.112610924081295       0.106468565497861       0.106904186379276     
  0.107339807260692       0.107775428142107       0.108211049023523     
  0.108646669904939       0.109082290786354       0.109517911667770     
  0.109953532549185       0.110389153430601       0.110824774312017     
  0.111260395193432       0.111696016074848       0.112131636956263     
  0.112567257837679       0.113002878719095       0.113438499600510     
  0.113874120481926       0.114309741363341       0.114745362244757     
  0.115180983126172       0.115616604007588       0.116052224889004     
  0.116487845770420       0.116923466651835       0.117359087533251     
  0.114291850145689       0.114727471027105       0.115163091908520     
  0.115598712789936       0.116034333671351       0.116469954552767     
  0.116905575434182       0.117341196315598       0.117776817197014     
  0.118212438078430       0.118648058959845       0.119083679841260     
  0.119519300722676       0.119954921604092       0.120390542485507     
  0.120826163366923       0.121261784248339       0.121697405129754     
  0.122133026011170       0.122568646892585       0.123004267774001     
  0.123439888655416       0.123875509536832       0.124311130418248     
  0.124746751299663       0.125182372181079       0.125056397420041     
  0.125492018301456       0.125927639182872       0.126363260064288     
  0.126798880945703       0.127234501827119       0.127670122708535     
  0.128105743589950       0.128541364471366       0.128976985352781     
  0.129412606234197       0.129848227115613       0.130283847997028     
  0.130719468878444       0.131155089759859       0.131590710641275     
  0.132026331522690       0.132461952404106       0.132897573285522     
  0.133333194166937       0.133768815048353       0.134204435929769     
  0.134640056811184       0.135075677692600       0.135511298574015     
  0.135946919455431       0.138578022932556       0.139013643813972     
  0.139449264695388       0.139884885576804       0.140320506458219     
  0.140756127339635       0.141191748221050       0.141627369102465     
  0.142062989983881       0.142498610865297       0.142934231746712     
  0.143369852628128       0.143805473509544       0.144241094390959     
  0.144676715272375       0.145112336153790       0.145547957035206     
  0.145983577916622       0.146419198798037       0.146854819679453     
  0.147290440560868       0.147726061442284       0.148161682323699     
  0.148597303205115       0.149032924086530       0.149468544967947     
  0.154625367921813       0.155060988803229       0.155496609684645     
  0.155932230566060       0.156367851447475       0.156803472328892     
  0.157239093210307       0.157674714091723       0.158110334973138     
  0.158545955854554       0.158981576735969       0.159417197617385     
  0.159852818498800       0.160288439380216       0.160724060261631     
  0.161159681143047       0.161595302024463       0.162030922905878     
  0.162466543787294       0.162902164668710       0.163337785550125     
  0.163773406431541       0.164209027312957       0.164644648194372     
  0.165080269075787       0.165515889957203       0.172923857865881     
  0.173359478747297       0.173795099628713       0.174230720510128     
  0.174666341391543       0.175101962272959       0.175537583154375     
  0.175973204035790       0.176408824917206       0.176844445798621     
  0.177280066680037       0.177715687561453       0.178151308442868     
  0.178586929324284       0.179022550205700       0.179458171087115     
  0.179893791968531       0.180329412849946       0.180765033731362     
  0.181200654612777       0.181636275494193       0.182071896375609     
  0.182507517257024       0.182943138138440       0.183378759019855     
  0.183814379901271       0.193160400528517       0.193596021409932     
  0.194031642291348       0.194467263172763       0.194902884054179     
  0.195338504935595       0.195774125817010       0.196209746698426     
  0.196645367579841       0.197080988461257       0.197516609342672     
  0.197952230224088       0.198387851105503       0.198823471986919     
  0.199259092868335       0.199694713749751       0.200130334631166     
  0.200565955512581       0.201001576393997       0.201437197275413     
  0.201872818156828       0.202308439038244       0.202744059919660     
  0.203179680801075       0.203615301682491       0.204050922563907     
  0.214988743054132       0.215424363935548       0.215859984816963     
  0.216295605698379       0.216731226579795       0.217166847461210     
  0.217602468342626       0.218038089224042       0.218473710105457     
  0.218909330986873       0.219344951868288       0.219780572749704     
  0.220216193631119       0.220651814512535       0.221087435393950     
  0.221523056275366       0.221958677156782       0.222394298038197     
  0.222829918919613       0.223265539801029       0.223701160682444     
  0.224136781563860       0.224572402445275       0.225008023326691     
  0.225443644208107       0.225879265089522       0.238035396450156     
  0.238471017331571       0.238906638212987       0.239342259094402     
  0.239777879975818       0.240213500857234       0.240649121738649     
  0.241084742620064       0.241520363501481       0.241955984382896     
  0.242391605264311       0.242827226145727       0.243262847027142     
  0.243698467908558       0.244134088789974       0.244569709671390     
  0.245005330552805       0.245440951434221       0.245876572315637     
  0.246312193197052       0.246747814078467       0.247183434959883     
  0.247619055841299       0.248054676722714       0.248490297604130     
  0.248925918485545       0.261906026087241       0.262341646968657     
  0.262777267850071       0.263212888731487       0.263648509612903     
  0.264084130494319       0.264519751375734       0.264955372257150     
  0.265390993138565       0.265826614019981       0.266262234901397     
  0.266697855782813       0.267133476664228       0.267569097545644     
  0.268004718427059       0.268440339308475       0.268875960189890     
  0.269311581071306       0.269747201952721       0.270182822834137     
  0.270618443715553       0.271054064596968       0.271489685478384     
  0.271925306359799       0.272360927241215       0.272796548122631     
  0.286192198874108       0.286627819755524       0.287063440636940     
  0.287499061518355       0.287934682399771       0.288370303281187     
  0.288805924162601       0.289241545044017       0.289677165925433     
  0.290112786806849       0.290548407688264       0.290984028569680     
  0.291419649451095       0.291855270332512       0.292290891213927     
  0.292726512095342       0.293162132976758       0.293597753858173     
  0.294033374739589       0.294468995621005       0.294904616502420     
  0.295340237383836       0.295775858265251       0.296211479146667     
  0.296647100028083       0.297082720909499       0.310478371660976     
  0.310913992542393       0.311349613423807       0.311785234305223     
  0.312220855186638       0.312656476068055       0.313092096949469     
  0.313527717830885       0.313963338712300       0.314398959593716     
  0.314834580475132       0.315270201356547       0.315705822237963     
  0.316141443119380       0.316577064000794       0.317012684882210     
  0.317448305763626       0.317883926645041       0.318319547526457     
  0.318755168407872       0.319190789289288       0.319626410170703     
  0.320062031052119       0.320497651933535       0.320933272814950     
  0.321368893696366       0.334349001298061       0.334784622179477     
  0.335220243060893       0.335655863942308       0.336091484823724     
  0.336527105705139       0.336962726586555       0.337398347467971     
  0.337833968349386       0.338269589230802       0.338705210112218     
  0.339140830993633       0.339576451875048       0.340012072756463     
  0.340447693637879       0.340883314519295       0.341318935400711     
  0.341754556282127       0.342190177163542       0.342625798044958     
  0.343061418926374       0.343497039807788       0.343932660689204     
  0.344368281570620       0.344803902452035       0.345239523333451     
  0.357395654694085       0.357831275575500       0.358266896456915     
  0.358702517338332       0.359138138219747       0.359573759101162     
  0.360009379982578       0.360445000863994       0.360880621745409     
  0.361316242626825       0.361751863508240       0.362187484389656     
  0.362623105271072       0.363058726152487       0.363494347033902     
  0.363929967915318       0.364365588796734       0.364801209678149     
  0.365236830559565       0.365672451440981       0.366108072322395     
  0.366543693203812       0.366979314085228       0.367414934966644     
  0.367850555848059       0.368286176729474       0.379223997219700     
  0.379659618101116       0.380095238982531       0.380530859863947     
  0.380966480745362       0.381402101626778       0.381837722508194     
  0.382273343389609       0.382708964271025       0.383144585152441     
  0.383580206033857       0.384015826915272       0.384451447796687     
  0.384887068678104       0.385322689559518       0.385758310440935     
  0.386193931322349       0.386629552203766       0.387065173085181     
  0.387500793966597       0.387936414848012       0.388372035729428     
  0.388807656610843       0.389243277492259       0.389678898373675     
  0.390114519255090       0.399460539882335       0.399896160763751     
  0.400331781645166       0.400767402526583       0.401203023407998     
  0.401638644289413       0.402074265170829       0.402509886052245     
  0.402945506933660       0.403381127815076       0.403816748696492     
  0.404252369577907       0.404687990459323       0.405123611340739     
  0.405559232222153       0.405994853103569       0.406430473984985     
  0.406866094866401       0.407301715747817       0.407737336629232     
  0.408172957510647       0.408608578392064       0.409044199273479     
  0.409479820154894       0.409915441036310       0.410351061917726     
  0.417759029826403       0.418194650707819       0.418630271589234     
  0.419065892470650       0.419501513352066       0.419937134233482     
  0.420372755114897       0.420808375996312       0.421243996877728     
  0.421679617759144       0.422115238640559       0.422550859521975     
  0.422986480403391       0.423422101284806       0.423857722166222     
  0.424293343047638       0.424728963929053       0.425164584810469     
  0.425600205691884       0.426035826573299       0.426471447454715     
  0.426907068336131       0.427342689217546       0.427778310098962     
  0.428213930980378       0.428649551861793       0.433806374815661     
  0.434241995697075       0.434677616578491       0.435113237459907     
  0.435548858341322       0.435984479222738       0.436420100104155     
  0.436855720985570       0.437291341866985       0.437726962748401     
  0.438162583629816       0.438598204511232       0.439033825392648     
  0.439469446274063       0.439905067155479       0.440340688036895     
  0.440776308918309       0.441211929799725       0.441647550681141     
  0.442083171562557       0.442518792443972       0.442954413325388     
  0.443390034206804       0.443825655088220       0.444261275969634     
  0.444696896851050       0.447328000328176       0.447763621209591     
  0.448199242091007       0.448634862972423       0.449070483853838     
  0.449506104735254       0.449941725616669       0.450377346498085     
  0.450812967379501       0.451248588260916       0.451684209142332     
  0.452119830023747       0.452555450905162       0.452991071786579     
  0.453426692667994       0.453862313549410       0.454297934430825     
  0.454733555312240       0.455169176193657       0.455604797075072     
  0.456040417956488       0.456476038837904       0.456911659719319     
  0.457347280600734       0.457782901482150       0.458218522363565     
  0.458092547602528       0.458528168483944       0.458963789365359     
  0.459399410246774       0.459835031128190       0.460270652009605     
  0.460706272891021       0.461141893772436       0.461577514653852     
  0.462013135535268       0.462448756416684       0.462884377298099     
  0.463319998179515       0.463755619060930       0.464191239942346     
  0.464626860823762       0.465062481705178       0.465498102586593     
  0.465933723468009       0.466369344349424       0.466804965230840     
  0.467240586112256       0.467676206993671       0.468111827875087     
  0.468547448756502       0.468983069637918       0.465915832250356     
  0.466351453131771       0.466787074013187       0.467222694894603     
  0.467658315776018       0.468093936657434       0.468529557538850     
  0.468965178420264       0.469400799301681       0.469836420183097     
  0.470272041064511       0.470707661945928       0.471143282827343     
  0.471578903708758       0.472014524590175       0.472450145471590     
  0.472885766353006       0.473321387234421       0.473757008115837     
  0.474192628997252       0.474628249878668       0.475063870760084     
  0.475499491641499       0.475935112522915       0.476370733404329     
  0.476806354285746       0.470663995702312       0.471099616583727     
  0.471535237465144       0.471970858346558       0.472406479227974     
  0.472842100109391       0.473277720990805       0.473713341872220     
  0.474148962753637       0.474584583635052       0.475020204516468     
  0.475455825397884       0.475891446279299       0.476327067160714     
  0.476762688042130       0.477198308923545       0.477633929804961     
  0.478069550686377       0.478505171567793       0.478940792449208     
  0.479376413330623       0.479812034212039       0.480247655093456     
  0.480683275974870       0.481118896856285       0.481554517737702     
  0.472255795565292       0.472691416446707       0.473127037328124     
  0.473562658209539       0.473998279090954       0.474433899972371     
  0.474869520853785       0.475305141735202       0.475740762616617     
  0.476176383498032       0.476612004379449       0.477047625260864     
  0.477483246142280       0.477918867023695       0.478354487905111     
  0.478790108786526       0.479225729667943       0.479661350549358     
  0.480096971430772       0.480532592312189       0.480968213193603     
  0.481403834075020       0.481839454956435       0.482275075837851     
  0.482710696719267       0.483146317600681     
  7.105112965248116E-002  6.940910734855889E-002  6.776708504463647E-002
  6.612506274071428E-002  6.448304043679182E-002  6.284101813286948E-002
  6.119899582894710E-002  5.955697352502462E-002  5.791495122110238E-002
  5.627292891718007E-002  5.463090661325772E-002  5.298888430933528E-002
  5.134686200541293E-002  4.970483970149057E-002  4.806281739756812E-002
  4.642079509364583E-002  4.477877278972341E-002  4.313675048580104E-002
  4.149472818187872E-002  3.985270587795635E-002  3.821068357403386E-002
  3.656866127011169E-002  3.492663896618912E-002  3.328461666226688E-002
  3.164259435834459E-002  3.000057205442220E-002  7.147342675386185E-002
  6.983140444993947E-002  6.818938214601722E-002  6.654735984209480E-002
  6.490533753817240E-002  6.326331523425011E-002  6.162129293032766E-002
  5.997927062640538E-002  5.833724832248296E-002  5.669522601856064E-002
  5.505320371463832E-002  5.341118141071585E-002  5.176915910679346E-002
  5.012713680287122E-002  4.848511449894886E-002  4.684309219502644E-002
  4.520106989110400E-002  4.355904758718164E-002  4.191702528325950E-002
  4.027500297933698E-002  3.863298067541474E-002  3.699095837149233E-002
  3.534893606757007E-002  3.370691376364756E-002  3.206489145972515E-002
  3.042286915580289E-002  7.273309243751629E-002  7.109107013359388E-002
  6.944904782967158E-002  6.780702552574926E-002  6.616500322182690E-002
  6.452298091790452E-002  6.288095861398220E-002  6.123893631005983E-002
  5.959691400613733E-002  5.795489170221492E-002  5.631286939829262E-002
  5.467084709437028E-002  5.302882479044796E-002  5.138680248652566E-002
  4.974478018260331E-002  4.810275787868090E-002  4.646073557475863E-002
  4.481871327083625E-002  4.317669096691367E-002  4.153466866299142E-002
  3.989264635906906E-002  3.825062405514675E-002  3.660860175122450E-002
  3.496657944730198E-002  3.332455714337958E-002  3.168253483945725E-002
  7.480857347435191E-002  7.316655117042972E-002  7.152452886650706E-002
  6.988250656258486E-002  6.824048425866248E-002  6.659846195474006E-002
  6.495643965081772E-002  6.331441734689533E-002  6.167239504297310E-002
  6.003037273905087E-002  5.838835043512829E-002  5.674632813120589E-002
  5.510430582728363E-002  5.346228352336119E-002  5.182026121943896E-002
  5.017823891551647E-002  4.853621661159427E-002  4.689419430767168E-002
  4.525217200374949E-002  4.361014969982709E-002  4.196812739590471E-002
  4.032610509198239E-002  3.868408278805991E-002  3.704206048413758E-002
  3.540003818021516E-002  3.375801587629283E-002  7.766435780839662E-002
  7.602233550447413E-002  7.438031320055175E-002  7.273829089662914E-002
  7.109626859270723E-002  6.945424628878440E-002  6.781222398486217E-002
  6.617020168093973E-002  6.452817937701753E-002  6.288615707309524E-002
  6.124413476917297E-002  5.960211246525044E-002  5.796009016132803E-002
  5.631806785740565E-002  5.467604555348327E-002  5.303402324956086E-002
  5.139200094563846E-002  4.974997864171635E-002  4.810795633779396E-002
  4.646593403387139E-002  4.482391172994935E-002  4.318188942602675E-002
  4.153986712210445E-002  3.989784481818218E-002  3.825582251426003E-002
  3.661380021033745E-002  8.125158217792121E-002  7.960955987399884E-002
  7.796753757007641E-002  7.632551526615414E-002  7.468349296223172E-002
  7.304147065830945E-002  7.139944835438693E-002  6.975742605046463E-002
  6.811540374654232E-002  6.647338144261983E-002  6.483135913869742E-002
  6.318933683477509E-002  6.154731453085294E-002  5.990529222693049E-002
  5.826326992300808E-002  5.662124761908571E-002  5.497922531516321E-002
  5.333720301124109E-002  5.169518070731859E-002  5.005315840339655E-002
  4.841113609947397E-002  4.676911379555167E-002  4.512709149162943E-002
  4.348506918770703E-002  4.184304688378433E-002  4.020102457986234E-002
  8.550886817939719E-002  8.386684587547484E-002  8.222482357155264E-002
  8.058280126763012E-002  7.894077896370774E-002  7.729875665978540E-002
  7.565673435586312E-002  7.401471205194096E-002  7.237268974801860E-002
  7.073066744409608E-002  6.908864514017370E-002  6.744662283625129E-002
  6.580460053232871E-002  6.416257822840681E-002  6.252055592448391E-002
  6.087853362056187E-002  5.923651131663957E-002  5.759448901271720E-002
  5.595246670879477E-002  5.431044440487260E-002  5.266842210095028E-002
  5.102639979702769E-002  4.938437749310540E-002  4.774235518918288E-002
  4.610033288526064E-002  4.445831058133824E-002  9.036337246899703E-002
  8.872135016507429E-002  8.707932786115211E-002  8.543730555722971E-002
  8.379528325330750E-002  8.215326094938512E-002  8.051123864546265E-002
  7.886921634154045E-002  7.722719403761782E-002  7.558517173369567E-002
  7.394314942977301E-002  7.230112712585098E-002  7.065910482192840E-002
  6.901708251800584E-002  6.737506021408368E-002  6.573303791016122E-002
  6.409101560623920E-002  6.244899330231681E-002  6.080697099839422E-002
  5.916494869447207E-002  5.752292639054967E-002  5.588090408662724E-002
  5.423888178270505E-002  5.259685947878252E-002  5.095483717486036E-002
  4.931281487093775E-002  9.573203313240211E-002  9.409001082847963E-002
  9.244798852455705E-002  9.080596622063464E-002  8.916394391671226E-002
  8.752192161278996E-002  8.587989930886740E-002  8.423787700494519E-002
  8.259585470102290E-002  8.095383239710026E-002  7.931181009317807E-002
  7.766978778925579E-002  7.602776548533355E-002  7.438574318141100E-002
  7.274372087748864E-002  7.110169857356632E-002  6.945967626964399E-002
  6.781765396572159E-002  6.617563166179900E-002  6.453360935787684E-002
  6.289158705395460E-002  6.124956475003217E-002  5.960754244610979E-002
  5.796552014218741E-002  5.632349783826511E-002  5.468147553434263E-002
  0.101522990897187       9.988096859326509E-002  9.823894628934263E-002
  9.659692398542018E-002  9.495490168149798E-002  9.331287937757571E-002
  9.167085707365316E-002  9.002883476973068E-002  8.838681246580875E-002
  8.674479016188609E-002  8.510276785796375E-002  8.346074555404162E-002
  8.181872325011898E-002  8.017670094619662E-002  7.853467864227419E-002
  7.689265633835188E-002  7.525063403442979E-002  7.360861173050717E-002
  7.196658942658470E-002  7.032456712266245E-002  6.868254481874025E-002
  6.704052251481775E-002  6.539850021089536E-002  6.375647790697291E-002
  6.211445560305076E-002  6.047243329912828E-002  0.107637160870441     
  0.105995138566519       0.104353116262596       0.102711093958674     
  0.101069071654752       9.942704935082955E-002  9.778502704690714E-002
  9.614300474298464E-002  9.450098243906241E-002  9.285896013514026E-002
  9.121693783121747E-002  8.957491552729557E-002  8.793289322337264E-002
  8.629087091945077E-002  8.464884861552814E-002  8.300682631160580E-002
  8.136480400768342E-002  7.972278170376117E-002  7.808075939983890E-002
  7.643873709591646E-002  7.479671479199398E-002  7.315469248807167E-002
  7.151267018414935E-002  6.987064788022671E-002  6.822862557630480E-002
  6.658660327238207E-002  0.113969927908753       0.112327905604831     
  0.110685883300908       0.109043860996986       0.107401838693064     
  0.105759816389141       0.104117794085219       0.102475771781296     
  0.100833749477374       9.919172717345191E-002  9.754970486952987E-002
  9.590768256560706E-002  9.426566026168495E-002  9.262363795776235E-002
  9.098161565384021E-002  8.933959334991762E-002  8.769757104599503E-002
  8.605554874207255E-002  8.441352643815034E-002  8.277150413422839E-002
  8.112948183030570E-002  7.948745952638346E-002  7.784543722246144E-002
  7.620341491853855E-002  7.456139261461643E-002  7.291937031069406E-002
  0.120412936612322       0.118770914308400       0.117128892004477     
  0.115486869700555       0.113844847396633       0.112202825092711     
  0.110560802788788       0.108918780484866       0.107276758180943     
  0.105634735877021       0.103992713573099       0.102350691269176     
  0.100708668965254       9.906664666133212E-002  9.742462435740938E-002
  9.578260205348688E-002  9.414057974956448E-002  9.249855744564214E-002
  9.085653514171989E-002  8.921451283779763E-002  8.757249053387516E-002
  8.593046822995280E-002  8.428844592603009E-002  8.264642362210753E-002
  8.100440131818566E-002  7.936237901426335E-002  0.126855945315891     
  0.125213923011970       0.123571900708047       0.121929878404124     
  0.120287856100202       0.118645833796280       0.117003811492357     
  0.115361789188435       0.113719766884513       0.112077744580590     
  0.110435722276668       0.108793699972746       0.107151677668824     
  0.105509655364901       0.103867633060979       0.102225610757056     
  0.100583588453133       9.894156614921176E-002  9.729954384528917E-002
  9.565752154136631E-002  9.401549923744465E-002  9.237347693352184E-002
  9.073145462959950E-002  8.908943232567740E-002  8.744741002175514E-002
  8.580538771783254E-002  0.133188712354203       0.131546690050281     
  0.129904667746358       0.128262645442436       0.126620623138514     
  0.124978600834592       0.123336578530669       0.121694556226747     
  0.120052533922825       0.118410511618902       0.116768489314980     
  0.115126467011058       0.113484444707135       0.111842422403212     
  0.110200400099291       0.108558377795368       0.106916355491446     
  0.105274333187523       0.103632310883601       0.101990288579678     
  0.100348266275756       9.870624397183426E-002  9.706422166791154E-002
  9.542219936398921E-002  9.378017706006658E-002  9.213815475614445E-002
  0.139302882327457       0.137660860023535       0.136018837719613     
  0.134376815415691       0.132734793111768       0.131092770807845     
  0.129450748503923       0.127808726200001       0.126166703896078     
  0.124524681592156       0.122882659288234       0.121240636984311     
  0.119598614680389       0.117956592376467       0.116314570072544     
  0.114672547768622       0.113030525464700       0.111388503160777     
  0.109746480856854       0.108104458552933       0.106462436249010     
  0.104820413945087       0.103178391641166       0.101536369337243     
  9.989434703332022E-002  9.825232472939835E-002  0.145093840092242     
  0.143451817788321       0.141809795484397       0.140167773180476     
  0.138525750876553       0.136883728572631       0.135241706268709     
  0.133599683964786       0.131957661660864       0.130315639356942     
  0.128673617053019       0.127031594749096       0.125389572445174     
  0.123747550141252       0.122105527837329       0.120463505533407     
  0.118821483229485       0.117179460925562       0.115537438621640     
  0.113895416317717       0.112253394013795       0.110611371709873     
  0.108969349405951       0.107327327102028       0.105685304798106     
  0.104043282494184       0.150462500755648       0.148820478451725     
  0.147178456147803       0.145536433843881       0.143894411539959     
  0.142252389236036       0.140610366932113       0.138968344628192     
  0.137326322324268       0.135684300020346       0.134042277716424     
  0.132400255412502       0.130758233108580       0.129116210804657     
  0.127474188500735       0.125832166196812       0.124190143892890     
  0.122548121588968       0.120906099285045       0.119264076981123     
  0.117622054677201       0.115980032373278       0.114338010069356     
  0.112695987765433       0.111053965461511       0.109411943157588     
  0.155317005045247       0.153674982741324       0.152032960437403     
  0.150390938133479       0.148748915829558       0.147106893525636     
  0.145464871221713       0.143822848917791       0.142180826613868     
  0.140538804309946       0.138896782006024       0.137254759702102     
  0.135612737398179       0.133970715094257       0.132328692790334     
  0.130686670486412       0.129044648182490       0.127402625878567     
  0.125760603574645       0.124118581270722       0.122476558966801     
  0.120834536662878       0.119192514358955       0.117550492055033     
  0.115908469751110       0.114266447447189       0.159574291046723     
  0.157932268742801       0.156290246438878       0.154648224134956     
  0.153006201831033       0.151364179527111       0.149722157223189     
  0.148080134919267       0.146438112615344       0.144796090311422     
  0.143154068007500       0.141512045703577       0.139870023399655     
  0.138228001095733       0.136585978791810       0.134943956487888     
  0.133301934183966       0.131659911880043       0.130017889576121     
  0.128375867272199       0.126733844968276       0.125091822664354     
  0.123449800360431       0.121807778056510       0.120165755752586     
  0.118523733448664       0.163161515416248       0.161519493112326     
  0.159877470808404       0.158235448504481       0.156593426200559     
  0.154951403896637       0.153309381592714       0.151667359288792     
  0.150025336984869       0.148383314680947       0.146741292377024     
  0.145099270073102       0.143457247769180       0.141815225465257     
  0.140173203161335       0.138531180857413       0.136889158553490     
  0.135247136249568       0.133605113945646       0.131963091641723     
  0.130321069337801       0.128679047033879       0.127037024729956     
  0.125395002426034       0.123752980122111       0.122110957818189     
  0.166017299750292       0.164375277446370       0.162733255142448     
  0.161091232838525       0.159449210534604       0.157807188230681     
  0.156165165926758       0.154523143622837       0.152881121318914     
  0.151239099014992       0.149597076711069       0.147955054407147     
  0.146313032103224       0.144671009799302       0.143028987495380     
  0.141386965191457       0.139744942887535       0.138102920583613     
  0.136460898279690       0.134818875975768       0.133176853671846     
  0.131534831367922       0.129892809064000       0.128250786760078     
  0.126608764456156       0.124966742152234       0.168092780787128     
  0.166450758483206       0.164808736179284       0.163166713875362     