 Title = "Wing and Wake"
 VARIABLES = "X" "Y" "Z" "GAM"
 Zone I=    9 J=   15 K=1  T="Blade"
 DATAPACKING=BLOCK
 VARLOCATION=([4]=CELLCENTERED)
  -1.15408349217208       -1.15380567998961       -1.15307586715939     
  -1.15120335853887       -1.14794609974812       -1.14414662137026     
  -1.14110735181815       -1.13925526612695       -1.13829608241535     
  -1.16480560155856       -1.16444475737453       -1.16349635882227     
  -1.16117632176672       -1.15723470620035       -1.15269390724431     
  -1.14908292666708       -1.14688844680890       -1.14575326959048     
  -1.17489372623010       -1.17444047923597       -1.17324848528744     
  -1.17055648305675       -1.16617843721551       -1.16125658554147     
  -1.15738846667329       -1.15505062913191       -1.15384433014648     
  -1.18462972089175       -1.18408356632529       -1.18264616456231     
  -1.17963498970517       -1.17496052213384       -1.16984958576559     
  -1.16588875781139       -1.16351090274880       -1.16228763204645     
  -1.19386543068517       -1.19331932120621       -1.19188216370510     
  -1.18884857508573       -1.18411601793795       -1.17892582346146     
  -1.17489719190329       -1.17247679753625       -1.17123121881465     
  -1.20279874312356       -1.20226290713391       -1.20085287075110     
  -1.19786769978021       -1.19320164909980       -1.18807830826935     
  -1.18409920560296       -1.18170797517652       -1.18047720293787     
  -1.21152150820356       -1.21100316221556       -1.20963920817979     
  -1.20675191888078       -1.20223924635937       -1.19728449212881     
  -1.19343638103428       -1.19112383173814       -1.18993362308541     
  -1.22013662340433       -1.21963875120744       -1.21832884861631     
  -1.21556318349760       -1.21124794095395       -1.20651490674421     
  -1.20284104232526       -1.20063377887673       -1.19949780444626     
  -1.22872912710561       -1.22825079678557       -1.22699230966714     
  -1.22434952221263       -1.22024027467208       -1.21574294023569     
  -1.21225591701037       -1.21016197000766       -1.20908459730659     
  -1.23730540880758       -1.23684614277611       -1.23563744990388     
  -1.23311850779165       -1.22922138643592       -1.22496961722170     
  -1.22167816065669       -1.21970324666267       -1.21868750083216     
  -1.24585429964033       -1.24541457170184       -1.24425750653734     
  -1.24186809478165       -1.23819443724432       -1.23420197557567     
  -1.23111739322474       -1.22926843949733       -1.22831790656103     
  -1.25436727378114       -1.25394875392214       -1.25284720373387     
  -1.25059663552257       -1.24716123723861       -1.24344483593934     
  -1.24058042753482       -1.23886539946746       -1.23798422898184     
  -1.26280940119995       -1.26241629749196       -1.26138155380384     
  -1.25929075279967       -1.25612370683058       -1.25271439319157     
  -1.25009347476034       -1.24852624423971       -1.24772139812465     
  -1.27122034094002       -1.27085419792537       -1.26989035720727     
  -1.26796794509855       -1.26508226668020       -1.26199423495603     
  -1.25962773692110       -1.25821476859288       -1.25748964361211     
  -1.27958711822717       -1.27925104467648       -1.27836632022456     
  -1.27662624622097       -1.27404079936569       -1.27129262212694     
  -1.26919417541757       -1.26794346336595       -1.26730216288658     
  0.409815947863810       0.410646899238742       0.412838030112857     
  0.416230684632182       0.420275542883097       0.423867556450375     
  0.426321006419295       0.427698073413853       0.428384052136190     
  0.414795785851555       0.415814145123865       0.418498910478137     
  0.422824793972579       0.428215628906057       0.433209477794440     
  0.436721470614407       0.438725973014006       0.439732814148447     
  0.420291898185035       0.421442412933963       0.424474974090395     
  0.429524075399539       0.436032083103899       0.442243650312542     
  0.446697878771827       0.449267635952476       0.450565201814965     
  0.426234843024327       0.427492658320784       0.430807716963931     
  0.436452643750878       0.443889636905877       0.451119736591912     
  0.456364386437230       0.459408985346775       0.460950856975673     
  0.433029004233000       0.434369265147898       0.437901436359773     
  0.443952096048394       0.451968979813766       0.459799061899544     
  0.465495170787854       0.468806938534466       0.470485295767001     
  0.440497019808358       0.441874000200375       0.445502560039691     
  0.451747036213680       0.460056376757910       0.468200479655100     
  0.474137776618365       0.477593477787085       0.479345880191643     
  0.448466327489966       0.449846338970897       0.453483039449009     
  0.459764927920441       0.468153076776416       0.476397552017902     
  0.482418247227552       0.485925736715420       0.487705072510035     
  0.456763475786907       0.458125473939437       0.461714369815261     
  0.467932951829676       0.476260565509927       0.484464510762518     
  0.490463815144694       0.493961518545498       0.495736524213095     
  0.465266045309625       0.466597472765403       0.470105828278674     
  0.476200135647646       0.484380351804172       0.492453873630954     
  0.498364410409242       0.501812317349329       0.503562554690376     
  0.473942376130883       0.475232753982522       0.478632942922860     
  0.484551447134863       0.492510567005803       0.500377541773781     
  0.506142153271533       0.509506488760155       0.511214723869118     
  0.482790143379550       0.484028906117123       0.487292869261446     
  0.492984128407498       0.500649492461473       0.508235528588463     
  0.513798356167132       0.517046211238944       0.518695556620452     
  0.491818909937607       0.492994539423244       0.496092398895121     
  0.501501593567159       0.508796385350857       0.516023107537817     
  0.521325607880108       0.524422514724041       0.525995390062394     
  0.501048074774101       0.502147580626744       0.505044782012566     
  0.510110164599301       0.516949167212987       0.523730492534780     
  0.528709012773515       0.531617385887045       0.533094825225903     
  0.510511969097560       0.511520455680267       0.514177681426699     
  0.518827718229779       0.525111252149478       0.531345769031322     
  0.535924618546211       0.538600204031203       0.539959430902442     
  0.520205496755562       0.521107981828847       0.523486174190179     
  0.527650457344277       0.533280834904440       0.538869989655384     
  0.542975902697268       0.545375485886073       0.546594503244440     
 -5.092571688033073E-002 -5.053255983311721E-002 -4.949354001841601E-002
 -4.850779478329272E-002 -4.819244179048335E-002 -4.867336378902900E-002
 -4.937450432390921E-002 -4.989072467892376E-002 -5.017856882061743E-002
 -6.278859693451849E-002 -6.232386694049186E-002 -6.109622124706867E-002
 -5.978264350923236E-002 -5.902710202989220E-002 -5.907353446255596E-002
 -5.945659784288581E-002 -5.978723722656605E-002 -5.998093075457008E-002
 -7.479419836465259E-002 -7.430740095832268E-002 -7.302203028836989E-002
 -7.147549557813954E-002 -7.024417487986451E-002 -6.969258191289611E-002
 -6.958126837291891E-002 -6.960617946682900E-002 -6.964043862978951E-002
 -8.675865519751490E-002 -8.626894651928572E-002 -8.497658552703738E-002
 -8.324880834241422E-002 -8.156605980890153E-002 -8.040548298260775E-002
 -7.977623898603682E-002 -7.947685135886211E-002 -7.934122378506998E-002
 -9.850135846645869E-002 -9.794947456834935E-002 -9.649327581233422E-002
 -9.447851434980940E-002 -9.240745839799351E-002 -9.086119393607009E-002
 -8.994858950861791E-002 -8.948353752173670E-002 -8.926376250426936E-002
 -0.109989934538548      -0.109401755524822      -0.107850153532792     
 -0.105648689763601      -0.103301410238751      -0.101462378565531     
 -0.100326436498217      -9.972843371378839E-002 -9.944042842032248E-002
 -0.121277217629931      -0.120672078299514      -0.119075673212820     
 -0.116763880171405      -0.114228505058243      -0.112172364078823     
 -0.110863651670885      -0.110160595901089      -0.109818254634293     
 -0.132407894417352      -0.131799151772168      -0.130193421379406     
 -0.127827286169586      -0.125171871619659      -0.122960231983114     
 -0.121521431033985      -0.120737405499488      -0.120352819835013     
 -0.143402723201141      -0.142800623412956      -0.141212451754966     
 -0.138836872915448      -0.136119698194719      -0.133808580134171     
 -0.132279902931967      -0.131438324069130      -0.131023233039367     
 -0.154280053185497      -0.153692894712566      -0.152144463406167     
 -0.149797464825484      -0.147068930341793      -0.144707428413153     
 -0.143124631862533      -0.142246158347723      -0.141811012360365     
 -0.165051309838425      -0.164486658096094      -0.162997576282492     
 -0.160713158263775      -0.158018512448750      -0.155651162716582     
 -0.154046858038437      -0.153150479950582      -0.152704997695580     
 -0.175716289112570      -0.175181423774258      -0.173770947923629     
 -0.171582611915084      -0.168967334737990      -0.166639149593863     
 -0.165046299754074      -0.164151310939532      -0.163705260409577     
 -0.186289680221643      -0.185790860850762      -0.184475559124965     
 -0.182412285858771      -0.179915352281430      -0.177665175479298     
 -0.176112189726197      -0.175235277628144      -0.174797111288646     
 -0.196712179890787      -0.196259336965119      -0.195065404763266     
 -0.193173873104992      -0.190859488237287      -0.188751840980152     
 -0.187286593898359      -0.186455687191242      -0.186039720924856     
 -0.206998817573274      -0.206600634297601      -0.205550616780283     
 -0.203872186759536      -0.201798146786801      -0.199891722512303     
 -0.198557995122454      -0.197798955885031      -0.197418325230512     
  3.298848840439960E-002  0.104074235397455       0.298473014432711     
  0.591272656107908       0.873644373547834        1.05596648821486     
   1.13809639156969        1.16157454462735       5.508398977305316E-002
  0.154471050187494       0.396652700497699       0.747497303376109     
   1.07622155616591        1.27559383987433        1.35983397941357     
   1.38374686624355       6.982566906925899E-002  0.182294685058086     
  0.432665938873647       0.782318906429840        1.10335053680481     
   1.29406681110319        1.37294952010911        1.39538296954283     
  7.068647427506776E-002  0.183398395650146       0.434832188018829     
  0.784991126865656        1.10370627632604        1.28999791533663     
   1.36574866458798        1.38717305585484       5.706342303047240E-002
  0.158040879270735       0.409646563024041       0.768581567328205     
   1.09758402472327        1.29097068157158        1.37051372972771     
   1.39332308460345       4.539060067834571E-002  0.135512051975418     
  0.383871951609621       0.746339497933200        1.08144420081359     
   1.27917804209454        1.36079609327419        1.38430818258457     
  3.612177654493140E-002  0.117020371842098       0.359795697287526     
  0.720292751068317        1.05560258862253        1.25377713694264     
   1.33560134121978        1.35921481649130       2.991269109484060E-002
  0.104055995604141       0.340307072427693       0.694853402190889     
   1.02560058557803        1.22103619006765        1.30163760607615     
   1.32490273458481       2.763460962360271E-002  9.843441924110280E-002
  0.328406015866403       0.674401496007184       0.997263423172421     
   1.18801053648184        1.26669802717683        1.28943227410664     
  2.922169454329075E-002  9.999375459968829E-002  0.324024532491532     
  0.659096861836049       0.971160151263361        1.15563654561022     
   1.23189435424328        1.25399212566788       3.327668886565083E-002
  0.105894202222912       0.322996582018475       0.643832560022209     
  0.941651461563891        1.11801445209744        1.19123774534881     
   1.21255072935163       3.647383506590963E-002  0.109429599624302     
  0.315501149432708       0.616483316870248       0.895545733915038     
   1.06176910906350        1.13138071862548        1.15176712241761     
  3.589321757421029E-002  0.104143374140158       0.290715001921451     
  0.561244368029732       0.813603255904583       0.967074597285467     
   1.03302991475172        1.05267361316480       2.478930426955374E-002
  7.434025290872008E-002  0.219468720403917       0.429387660899628     
  0.628564658298321       0.759524110194481       0.822342187465742     
  0.842333260764711     
 Zone I=  301 J=   15 K=1  T="NearWake"
 DATAPACKING=BLOCK
 VARLOCATION=([4]=CELLCENTERED)
  -1.13808827833994       -1.13309957828931       -1.12704238701488     
  -1.12062628507417       -1.11400349127474       -1.10721732729861     
  -1.10030030324643       -1.09328371631098       -1.08619896948893     
  -1.07907749481446       -1.07195044043145       -1.06484837379055     
  -1.05780106366406       -1.05083736255831       -1.04398519899309     
  -1.03727166073449       -1.03072311030210       -1.02436526009058     
  -1.01822315353610       -1.01232103085825       -1.00668208927910     
  -1.00132816877276      -0.996279400567692      -0.991553851511566     
 -0.987167188473945      -0.983132377450707      -0.979459427566534     
 -0.976155187529166      -0.973223200425314      -0.970663626300015     
 -0.968473244731322      -0.966645545786152      -0.965170907808717     
 -0.964036850056048      -0.963228343982388      -0.962728160734549     
 -0.962517215172566      -0.962574852778565      -0.962879035163729     
 -0.963406407067354      -0.964132256304368      -0.965030403268953     
 -0.966073075888226      -0.967230828914189      -0.968472541485544     
 -0.969765484525599      -0.971075420958967      -0.972366725352895     
 -0.973602577675840      -0.974745323950504      -0.975757054533123     
 -0.976600369292769      -0.977239242683420      -0.977639888659261     
 -0.977771538763908      -0.977607069050209      -0.977123436658433     
 -0.976301914128244      -0.975128135818478      -0.973591989450845     
 -0.971687392326452      -0.969411988411799      -0.966766795501005     
 -0.963755825530196      -0.960385697581884      -0.956665267133092     
 -0.952605301561432      -0.948218228640452      -0.943517980070783     
 -0.938519949331651      -0.933241071217255      -0.927700005414099     
 -0.921917375695874      -0.915915980449511      -0.909720860877720     
 -0.903359117276718      -0.896859413213007      -0.890251186451382     
 -0.883563669040366      -0.876824883185703      -0.870060800839117     
 -0.863294825734874      -0.856547684617004      -0.849837723751853     
 -0.843181528245520      -0.836594732454905      -0.830092876433371     
 -0.823692181956071      -0.817410149748953      -0.811265904562943     
 -0.805280262278659      -0.799475566497457      -0.793875371498914     
 -0.788504005140144      -0.783386024509795      -0.778545598750024     
 -0.774005845213815      -0.769788131625735      -0.765911374648544     
 -0.762391382618075      -0.759240286209723      -0.756466106017918     
 -0.754072497096759      -0.752058608957796      -0.750418914524244     
 -0.749143002295238      -0.748215553529348      -0.747616698209026     
 -0.747322726252444      -0.747307044483879      -0.747541348217266     
 -0.747997026372873      -0.748646693629469      -0.749465424797810     
 -0.750430989827896      -0.751522601439697      -0.752718454719038     
 -0.753993009407726      -0.755314980466134      -0.756646542515488     
 -0.757943769314657      -0.759158038946067      -0.760238048695528     
 -0.761132107630115      -0.761790405065720      -0.762166965163758     
 -0.762221045578085      -0.761917866283392      -0.761228733842508     
 -0.760130771519325      -0.758606505354093      -0.756643489192015     
 -0.754234038829377      -0.751375041037187      -0.748067716683833     
 -0.744317164381259      -0.740131558477348      -0.735521069403591     
 -0.730496856644343      -0.725070740621857      -0.719256289864229     
 -0.713071923655446      -0.706546013921196      -0.699722747501663     
 -0.692666000680317      -0.685457880732746      -0.678190609271796     
 -0.670954714778628      -0.663829112353975      -0.656876646090448     
 -0.650145062154036      -0.643672460123362      -0.637496606596044     
 -0.631665488043398      -0.626243214706363      -0.621306072440798     
 -0.616929376763892      -0.613171175767591      -0.610059527599896     
 -0.607585823334841      -0.605701047676092      -0.604312694611677     
 -0.603286073316334      -0.602452572270471      -0.601618235493869     
 -0.600579586001811      -0.599155626422500      -0.597180993774403     
 -0.594471057816034      -0.590867988864664      -0.586353977887402     
 -0.581125741971205      -0.575492538317852      -0.569766561258440     
 -0.564174246335189      -0.558832516774425      -0.553821407332706     
 -0.549208767823406      -0.545032043003175      -0.541304770045962     
 -0.538029134449241      -0.535205731825081      -0.532842484796444     
 -0.530956324672186      -0.529565484934219      -0.528677072405595     
 -0.528276650390111      -0.528324194358811      -0.528756417896862     
 -0.529492871187144      -0.530443137878168      -0.531513589449412     
 -0.532613118352227      -0.533657290257822      -0.534569974246581     
 -0.535282092370222      -0.535728899156007      -0.535848458161372     
 -0.535583363044778      -0.534885990821333      -0.533725696330057     
 -0.532094425514110      -0.530006446791257      -0.527490622698489     
 -0.524578467724289      -0.521292529119524      -0.517635673754629     
 -0.513580439635218      -0.509066343698678      -0.504018847568898     
 -0.498390757798324      -0.492209088776499      -0.485601950604574     
 -0.478778080662753      -0.471963352430840      -0.465345011831239     
 -0.459053804279886      -0.453171628170906      -0.447742692923713     
 -0.442779717605644      -0.438269326854246      -0.434179901378418     
 -0.430466646154616      -0.427064492155541      -0.423864615339878     
 -0.420684787504762      -0.417264581980511      -0.413326277664743     
 -0.408700805708100      -0.403423820999784      -0.397705234155165     
 -0.391808220886872      -0.385900630569140      -0.379991257338238     
 -0.373972320656050      -0.367638294711408      -0.360788656288744     
 -0.353504558105209      -0.346181795745815      -0.339165758945125     
 -0.332483191758500      -0.325935540624759      -0.319542146641505     
 -0.313755427576768      -0.308928924071443      -0.303805569161585     
 -0.298258430291825      -0.293522111465261      -0.290331678176199     
 -0.288571604022344      -0.287972141958844      -0.288458388734823     
 -0.289902878202513      -0.292280592914452      -0.295387578195863     
 -0.298560488013683      -0.301566370379076      -0.305842783524828     
 -0.314131212192410      -0.327491217786971      -0.344868584597481     
 -0.364338087862468      -0.385572788746902      -0.410591113711218     
 -0.456954905579967      -0.550028354175037      -0.577177007724263     
 -0.588726547454400      -0.595501269250500      -0.600872582194156     
 -0.605502599265057      -0.609394432352372      -0.612452026598284     
 -0.614591159160572      -0.615687086922242      -0.615480065068652     
 -0.613464978672599      -0.608737069666442      -0.599906674221026     
 -0.585995764556295      -0.569207409130020      -0.554158687170826     
 -0.542262785012310      -0.532249541467027      -0.523493007321291     
 -0.515623349333410      -0.507064142342895      -0.496592312343236     
 -0.484434861692970      -0.472289792943466      -0.462597995875455     
 -0.456724616587542      -0.454785790704218      -0.455801933555107     
 -0.457815959036241      -0.455317535910629      -0.430289381919047     
 -0.416301152506470      -0.421153862303402      -0.439986512373773     
 -0.441128296168741       -1.14554546551507       -1.13989088619071     
  -1.13233616000639       -1.12470734871100       -1.11693083406781     
  -1.10899859750269       -1.10092899307990       -1.09275145724312     
  -1.08450034759304       -1.07621219090141       -1.06792424013306     
  -1.05967361097753       -1.05149672936994       -1.04342897470473     
  -1.03550446590253       -1.02775597891449       -1.02021498433927     
  -1.01291174114423       -1.00587535012958      -0.999133702702037     
 -0.992713308923197      -0.986639022843077      -0.980933698398627     
 -0.975617805178360      -0.970709019226353      -0.966221810795890     
 -0.962167070067494      -0.958551799932997      -0.955378902257762     
 -0.952647106340633      -0.950351073262355      -0.948481650484623     
 -0.947026212945571      -0.945969049196010      -0.945291778284468     
 -0.944973758224722      -0.944992408765526      -0.945323369695211     
 -0.945940460647639      -0.946815469859462      -0.947917863773661     
 -0.949214561770602      -0.950669920645666      -0.952246006696049     
 -0.953903070820902      -0.955599962880146      -0.957294269042144     
 -0.958942320720096      -0.960499473410555      -0.961920841418019     
 -0.963162337983768      -0.964181769955368      -0.964939816974560     
 -0.965400823722739      -0.965533393392284      -0.965310796690525     
 -0.964711218240867      -0.963717863502994      -0.962318946790539     
 -0.960507574164410      -0.958281528508944      -0.955642963302117     
 -0.952598017222353      -0.949156368182052      -0.945330746260647     
 -0.941136435088260      -0.936590809012625      -0.931712956629750     
 -0.926523438376359      -0.921044211958763      -0.915298719963336     
 -0.909312082717970      -0.903111298273693      -0.896725327284077     
 -0.890184944640437      -0.883522277620814      -0.876770026168145     
 -0.869960442359555      -0.863124207032506      -0.856289378356722     
 -0.849480586911562      -0.842718619583826      -0.836020474299405     
 -0.829399891329008      -0.822868287875783      -0.816435938773075     
 -0.810113173622837      -0.803911344913061      -0.797843375863976     
 -0.791923798132139      -0.786168358109500      -0.780593446385731     
 -0.775215632616963      -0.770051427733723      -0.765117225208222     
 -0.760429265232529      -0.756003381500922      -0.751854414445747     
 -0.747995429392367      -0.744436956054658      -0.741186453392326     
 -0.738248186919048      -0.735623459349309      -0.733310791660070     
 -0.731305848297583      -0.729601577623384      -0.728188970048162     
 -0.727058066429074      -0.726198636524918      -0.725600351396816     
 -0.725252689116275      -0.725144954332130      -0.725266551601524     
 -0.725606964236058      -0.726154189699860      -0.726890872941695     
 -0.727789449164438      -0.728809116883140      -0.729896370911457     
 -0.730988466314982      -0.732018000700111      -0.732917175620198     
 -0.733621157504229      -0.734070486146285      -0.734212627986598     
 -0.734002801210243      -0.733404234645710      -0.732388047458628     
 -0.730932916730088      -0.729024627025376      -0.726655524071496     
 -0.723823881406181      -0.720533223861922      -0.716791665095049     
 -0.712611259201260      -0.708007383080822      -0.702998454234246     
 -0.697606629350962      -0.691859973992404      -0.685795606758030     
 -0.679461977953926      -0.672918168550828      -0.666229622277314     
 -0.659461787761617      -0.652674169211741      -0.645916885146146     
 -0.639230539131200      -0.632648721357745      -0.626201617707210     
 -0.619919794852359      -0.613838441410002      -0.608002629526542     
 -0.602473002188147      -0.597329679108402      -0.592671857095413     
 -0.588611646010300      -0.585262434796048      -0.582724569473904     
 -0.581072872569922      -0.580347759155995      -0.580544362357480     
 -0.581592965946197      -0.583339333656336      -0.585547100658081     
 -0.587895465304713      -0.589943771368960      -0.591177470074789     
 -0.591177684537112      -0.589727492734207      -0.586716628192676     
 -0.582192558211229      -0.576597548970551      -0.570614586835674     
 -0.564798169638144      -0.559360537308202      -0.554313979057918     
 -0.549648321629738      -0.545284608703276      -0.541056483628481     
 -0.536782002939944      -0.532360894400473      -0.527844784843864     
 -0.523438496305937      -0.519427707159774      -0.516076220866105     
 -0.513548952299225      -0.511887607220455      -0.511030722659306     
 -0.510853180134851      -0.511203105704197      -0.511926050659147     
 -0.512877283580999      -0.513925822637660      -0.514952791239733     
 -0.515845639828926      -0.516493867855890      -0.516793842982673     
 -0.516663339118354      -0.516057216349640      -0.514975195887096     
 -0.513458263156533      -0.511573887156376      -0.509390363438305     
 -0.506942446233630      -0.504201441513496      -0.501081021810663     
 -0.497505609038517      -0.493501700548206      -0.489208330907487     
 -0.484801929801815      -0.480434804167610      -0.476207704619146     
 -0.472167132815251      -0.468324185158082      -0.464679069400716     
 -0.461237509065601      -0.458017177755686      -0.455048660131162     
 -0.452373655233289      -0.450038968211203      -0.448084260846413     
 -0.446525003628432      -0.445334588176239      -0.444427229223528     
 -0.443642274540943      -0.442736629645979      -0.441396267190715     
 -0.439280574927898      -0.436104198096311      -0.431771440318336     
 -0.426663461122840      -0.421708620884451      -0.417672481744699     
 -0.414633242863626      -0.412090038713927      -0.409169510743051     
 -0.404991197195276      -0.399176463297844      -0.391836611164621     
 -0.383060632100873      -0.372602684650001      -0.359952239124624     
 -0.345631973424174      -0.332243179808952      -0.321828036072463     
 -0.313513831373713      -0.305319720785636      -0.297633457068350     
 -0.291237814678455      -0.285658028558903      -0.279739467752698     
 -0.272805451352635      -0.266143431457805      -0.263375363842083     
 -0.265385758654283      -0.269609645311433      -0.272999012808481     
 -0.274331163666216      -0.275155008793822      -0.277328134116018     
 -0.282686465608328      -0.293764462374392      -0.313314385617181     
 -0.339426999786684      -0.365099459497442      -0.388916097975576     
 -0.412835456015542      -0.446279048461570      -0.526412804880342     
 -0.564746939594674      -0.579159429559295      -0.588063469263591     
 -0.596663884036376      -0.606162979046690      -0.615683595622003     
 -0.623757713231055      -0.629374530410272      -0.631946090159901     
 -0.630800094922677      -0.624716605373507      -0.610769062457941     
 -0.582594066732803      -0.551131002064221      -0.522932310036048     
 -0.499386937162110      -0.473280963729783      -0.438932304226657     
 -0.411689516157759      -0.394492060574941      -0.383649060123167     
 -0.377236018694173      -0.374188776276808      -0.372967484858827     
 -0.369945580747471      -0.365325989043472      -0.360168090018350     
 -0.358208428778648      -0.362496076341098      -0.371127360846052     
 -0.382149905639194      -0.397985205376667       -1.15363652607107     
  -1.14734426718164       -1.13886185868239       -1.13027431813013     
  -1.12150264374430       -1.11254383141580       -1.10342056102381     
  -1.09416683724472       -1.08482225487998       -1.07542920235470     
  -1.06603128687711       -1.05667232561872       -1.04739563658568     
  -1.03824352199820       -1.02925689399331       -1.02047501392404     
  -1.01193535199919       -1.00367358883247      -0.995723705876888     
 -0.988118061284899      -0.980887399453009      -0.974060771099278     
 -0.967665337117756      -0.961726029090296      -0.956265052092851     
 -0.951301282407668      -0.946849667942833      -0.942920697207579     
 -0.939519999050292      -0.936648164280490      -0.934300805264507     
 -0.932468762407658      -0.931138370272633      -0.930291781641450     
 -0.929907356351454      -0.929960069958460      -0.930421867670595     
 -0.931261874137803      -0.932446383512003      -0.933938656652781     
 -0.935698720861125      -0.937683430175041      -0.939846927891622     
 -0.942141415073495      -0.944517786750483      -0.946925672151194     
 -0.949313122069583      -0.951626762183003      -0.953812735678565     
 -0.955818055955222      -0.957591938262743      -0.959086935818940     
 -0.960259856075310      -0.961072450762206      -0.961491864333391     
 -0.961490848001461      -0.961047787221701      -0.960146616853291     
 -0.958776683207079      -0.956932565321335      -0.954613827960470     
 -0.951824673192268      -0.948573483631319      -0.944872283398151     
 -0.940736159241246      -0.936182692821982      -0.931231461043480     
 -0.925903652817385      -0.920221841438561      -0.914209932919213     
 -0.907893272287488      -0.901298843538837      -0.894455454659726     
 -0.887393789400807      -0.880146237614559      -0.872746457198796     
 -0.865228667309229      -0.857626711375537      -0.849972963715739     
 -0.842297205502317      -0.834625645096579      -0.826980275054445     
 -0.819378731749367      -0.811834769002310      -0.804359377748092     
 -0.796962466781363      -0.789654860452434      -0.782450210836512     
 -0.775366376045721      -0.768425915596132      -0.761655591589112     
 -0.755085107519045      -0.748745515093083      -0.742667651839720     
 -0.736880862379492      -0.731412093102824      -0.726285080889717     
 -0.721519487990607      -0.717130446779108      -0.713128891633610     
 -0.709522480344842      -0.706316765269463      -0.703516024074150     