 Title = "Wing and Wake"
 VARIABLES = "X" "Y" "Z" "GAM"
 Zone I=    9 J=   15 K=1  T="Blade"
 DATAPACKING=BLOCK
 VARLOCATION=([4]=CELLCENTERED)
 -0.845656230233278      -0.845579697074840      -0.845380635738827     
 -0.844329920319589      -0.842052436213182      -0.839123041220382     
 -0.836678063982059      -0.835159541371738      -0.834366520364604     
 -0.836180961378548      -0.836066791508589      -0.835768716147987     
 -0.834496525734353      -0.831860717014027      -0.828529564086290     
 -0.825769283692635      -0.824060348836036      -0.823169055925422     
 -0.826196894578161      -0.826022333549033      -0.825564908395130     
 -0.824095935831860      -0.821294306467712      -0.817877065319823     
 -0.815087881734908      -0.813372509277422      -0.812480516036340     
 -0.815968801673555      -0.815727324183174      -0.815092919789740     
 -0.813449099736582      -0.810576074185930      -0.807216464612895     
 -0.804526033500297      -0.802885663103547      -0.802035875647034     
 -0.805446611657580      -0.805225149825924      -0.804643580263750     
 -0.803075625992658      -0.800284976143826      -0.796991440518667     
 -0.794342561461532      -0.792724367319388      -0.791885332369095     
 -0.794785250142346      -0.794582956256082      -0.794051855759446     
 -0.792579266761208      -0.789925964366096      -0.786775346768550     
 -0.784234418915012      -0.782680253303147      -0.781873960590417     
 -0.784034898932098      -0.783850829259661      -0.783367782994197     
 -0.782002137943858      -0.779521303224354      -0.776563585138505     
 -0.774173850180457      -0.772710910238379      -0.771951705111197     
 -0.773256178675959      -0.773088219476558      -0.772647645080814     
 -0.771388289665012      -0.769090221657220      -0.766344406126507     
 -0.764123736403818      -0.762763711852878      -0.762057692073424     
 -0.762504605528458      -0.762348783151664      -0.761940115162198     
 -0.760773534711324      -0.758645758017325      -0.756104050158850     
 -0.754048719701730      -0.752789949539429      -0.752136531927012     
 -0.751779031174903      -0.751632329756044      -0.751247255126802     
 -0.750161935711928      -0.748192729668788      -0.745846555716967     
 -0.743951444848199      -0.742791464415978      -0.742189499591099     
 -0.741067461437114      -0.740927795526741      -0.740561351012226     
 -0.739550517018080      -0.737733619144622      -0.735578701758291     
 -0.733841587550086      -0.732779352659374      -0.732228336034975     
 -0.730363817963122      -0.730230067541459      -0.729878903175853     
 -0.728938589038639      -0.727270187735497      -0.725304295109306     
 -0.723724296510229      -0.722759423513138      -0.722259246215054     
 -0.719637869680791      -0.719511096195739      -0.719178133484148     
 -0.718314305915674      -0.716803852393433      -0.715037160192414     
 -0.713622174773621      -0.712759431325839      -0.712312461203473     
 -0.708937722666484      -0.708815862531968      -0.708495674163448     
 -0.707699627444640      -0.706335991847281      -0.704758129684321     
 -0.703500753541887      -0.702735884791292      -0.702340001528312     
 -0.698248905558054      -0.698131438438775      -0.697822776861148     
 -0.697091405501692      -0.695869789231942      -0.694475457293112     
 -0.693371574399085      -0.692702106661987      -0.692356085342829     
  0.404789425692837       0.403844502653822       0.401352840557926     
  0.397494856185500       0.392895213094281       0.388810525977112     
  0.386020565612829       0.384454622804764       0.383674556583604     
  0.411246093915290       0.410088058478523       0.407035055963410     
  0.402115842756339       0.395985611455388       0.390306816028419     
  0.386313125147628       0.384033689122506       0.382888751628853     
  0.417115602390580       0.415807285290703       0.412358783981980     
  0.406617157820369       0.399216524518033       0.392152990909553     
  0.387087829193484       0.384165609147972       0.382690071691634     
  0.422477065910908       0.421046731130434       0.417276985532678     
  0.410857811636994       0.402400775058002       0.394179009051204     
  0.388215013298963       0.384752823162473       0.382999471439010     
  0.426870561890802       0.425346473412240       0.421329836510804     
  0.414449280182834       0.405332816332424       0.396428775514339     
  0.389951399480453       0.386185396152159       0.384276838726820     
  0.430497778958076       0.428931934630786       0.424805688626441     
  0.417704732323346       0.408255698894745       0.398994566785417     
  0.392242921792316       0.388313243415472       0.386320484927251     
  0.433554873452313       0.431985582297887       0.427850079100663     
  0.420706579102639       0.411167928168513       0.401792656840613     
  0.394946174860897       0.390957604980422       0.388934218971083     
  0.436239235576853       0.434690428423691       0.430609286614433     
  0.423537776063154       0.414067963190963       0.404738780865904     
  0.397916623637687       0.393939182084821       0.391920720114246     
  0.438690001302378       0.437175957862898       0.433186403174670     
  0.426256212535948       0.416954013943321       0.407773143665864     
  0.401051929232331       0.397131114125264       0.395140817656426     
  0.440943098747057       0.439475735195068       0.435609182995192     
  0.428878908330331       0.419828131157049       0.410882137528686     
  0.404326863201534       0.400501082042632       0.398558548749817     
  0.443001320102231       0.441592651092324       0.437881009151995     
  0.431409148041525       0.422692417658063       0.414065895664778     
  0.407740081544079       0.404046757027958       0.402171190662346     
  0.444853716637027       0.443516840112313       0.439994084299014     
  0.433842975073700       0.425547643927751       0.417329718671191     
  0.411299937761047       0.407778265236275       0.405989657395255     
  0.446478228657776       0.445227916734552       0.441933340877625     
  0.436173200330256       0.428396173504719       0.420684734875532     
  0.415023370545791       0.411716090668851       0.410036008642210     
  0.447835741931865       0.446688933303482       0.443667247674915     
  0.438379420925891       0.431234049793135       0.424144418779201     
  0.418937543227475       0.415894979674543       0.414349323906191     
  0.448932200035448       0.447905931876034       0.445201551305487     
  0.440466103225128       0.434063474099695       0.427707721823305     
  0.423038649785498       0.420309944463452       0.418923729070311     
  5.979227678338832E-002  5.994555883060119E-002  6.035205364530261E-002
  6.035842388042457E-002  5.950612687323416E-002  5.798827987468887E-002
  5.657888933980848E-002  5.566514398479291E-002  5.517927484310057E-002
  7.199969480915153E-002  7.217044980317949E-002  7.262307049660222E-002
  7.268787323443673E-002  7.188721471377685E-002  7.039918228111451E-002
  6.900229390078419E-002  6.809300451710391E-002  6.760866098909973E-002
  8.391519967692497E-002  8.406987208325407E-002  8.447981775320788E-002
  8.456880246343733E-002  8.392142316171286E-002  8.267989112868084E-002
  8.150537966865871E-002  8.073864357474909E-002  8.032980941178688E-002
  9.574301592401369E-002  9.586962460224446E-002  9.620501059449255E-002
  9.630323777911567E-002  9.583911131262939E-002  9.491253813892231E-002
  9.402778213549316E-002  9.344826976266694E-002  9.313879733645972E-002
  0.107546860735024       0.107711844633134       0.108148393389149     
  0.108416479851673       0.108173260803489       0.107459175265412     
  0.106727454692863       0.106236481679744       0.105971756697213     
  0.119410307742887       0.119600986756612       0.120105113748643     
  0.120503952517834       0.120452532042684       0.119940563715903     
  0.119362555783217       0.118962983567645       0.118745113861112     
  0.131330180949411       0.131536945279828       0.132083525366522     
  0.132581893407937       0.132695818521099       0.132371984500519     
  0.131942671908457       0.131633202678253       0.131461893945048     
  0.143312177241943       0.143527744887124       0.144097450279887     
  0.144668435489708       0.144919875039635       0.144763239676180     
  0.144470190625308       0.144244516159806       0.144116701824280     
  0.155370721538106       0.155588471326291       0.156163867984280     
  0.156780171823798       0.157135921544529       0.157116414605076     
  0.156938866807280       0.156785120670118       0.156694961699878     
  0.167496447851657       0.167711106324589       0.168277987630988     
  0.168916461211669       0.169347395695360       0.169437897624000     
  0.169356594174621       0.169263867689431       0.169205888676788     
  0.179678914278682       0.179885966021014       0.180432822834615     
  0.181074315853331       0.181556161668356       0.181733611400524     
  0.181732066078669       0.181690869166525       0.181660226421526     
  0.191915408084488       0.192110898422799       0.192627099273428     
  0.193253935281975       0.193763387459069       0.194005397603196     
  0.194067547442983       0.194068536257527       0.194060536787482     
  0.204185640055368       0.204367059426249       0.204846011152046     
  0.205447034418239       0.205969717995581       0.206262294797713     
  0.206378105550813       0.206415442648867       0.206427108988364     
  0.216538846684130       0.216700564609799       0.217127421811652     
  0.217676603469926       0.218177088337632       0.218484985594767     
  0.218628432676559       0.218686964383676       0.218710555650063     
  0.228961782081597       0.229099440357269       0.229462932874587     
  0.229939237895334       0.230387927868070       0.230680902142569     
  0.230829354532418       0.230895693769840       0.230924424424358     
  2.710242619601665E-002  8.893067227056212E-002  0.264007266041398     
  0.523655364534414       0.766254189035418       0.918356462243664     
  0.985936656990189        1.00514985734917       4.718298507581822E-002
  0.135052994487050       0.354269058607107       0.666901889413118     
  0.951388866653582        1.11920075033074        1.18902751965133     
   1.20871094507319       5.776753350655799E-002  0.154879838761355     
  0.379652352795296       0.690952422349263       0.969955441768403     
   1.13136081399606        1.19693152012704        1.21540770816157     
  5.262574359632295E-002  0.142476054237105       0.359533956812260     
  0.666314828260187       0.945161587277155        1.10699639225748     
   1.17239770583430        1.19083169341122       3.411908895141166E-002
  0.107123286577184       0.319313046186681       0.631585343575093     
  0.920074728867689        1.08944707974903        1.15895168774358     
   1.17885590416742       1.735050837572628E-002  7.419948813333664E-002
  0.278192254395698       0.590636178923651       0.884013329884602     
   1.05762387602773        1.12927619100045        1.14990551172856     
  2.498719323963161E-003  4.436219655465500E-002  0.237667903385319     
  0.544784230500948       0.837136416995062        1.01106518919683     
   1.08301323495014        1.10378106047152      -1.003153260071520E-002
  1.863525447514389E-002  0.199967789376400       0.497715594785676     
  0.784335802139212       0.955490441752183        1.02638086137792     
   1.04687346885470      -1.929678963418853E-002 -1.098123434550955E-003
  0.167904845449261       0.453161506135800       0.730235446738281     
  0.896250528352171       0.965141039268578       0.985084167727622     
 -2.517721706485723E-002 -1.459940547561492E-002  0.142005884911179     
  0.411988232598743       0.676057666788431       0.834771047208209     
  0.900751940652104       0.919889053992679      -2.788044431801595E-002
 -2.227624015475417E-002  0.121746101234326       0.373749336995190     
  0.621508029753950       0.770864898447947       0.833106970785130     
  0.851199787502812      -2.815257556674979E-002 -2.563206581560357E-002
  0.104878411444571       0.335709678261385       0.563841268874692     
  0.702030936254170       0.759872713296204       0.776732249158965     
 -2.670383261093251E-002 -2.624895833039027E-002  8.875127576452836E-002
  0.293833277563639       0.498356482937770       0.624349141851559     
  0.678147057030530       0.694045546210246      -2.591356041207924E-002
 -3.028290794140750E-002  6.001356071159433E-002  0.221838158822448     
  0.385191562227322       0.492553202999680       0.543038532807291     
  0.558902180553164     
 Zone I=  201 J=   15 K=1  T="NearWake"
 DATAPACKING=BLOCK
 VARLOCATION=([4]=CELLCENTERED)
 -0.834294350766590      -0.832213330724284      -0.829384544947728     
 -0.827205633664212      -0.825504011906351      -0.824225341164094     
 -0.823337099738925      -0.822812375758397      -0.822625506176080     
 -0.822750514106092      -0.823160473070001      -0.823827246192660     
 -0.824721390976294      -0.825812146203988      -0.827067485750225     
 -0.828454246002241      -0.829938308841837      -0.831484806312712     
 -0.833058333659561      -0.834623178073127      -0.836143571980034     
 -0.837583973949065      -0.838909377027005      -0.840085644165179     
 -0.841079869531608      -0.841860760128948      -0.842399025678231     
 -0.842667760137965      -0.842642798154245      -0.842303033311573     
 -0.841630688275370      -0.840611527109268      -0.839234998509417     
 -0.837494298159142      -0.835386340411768      -0.832911634840276     
 -0.830074073354024      -0.826880647150125      -0.823341122572808     
 -0.819467705854368      -0.815274723422886      -0.810778341128741     
 -0.805996336613552      -0.800947922051460      -0.795653605655282     
 -0.790135087222226      -0.784415178843899      -0.778517722881017     
 -0.772467476983380      -0.766289954796473      -0.760011227964235     
 -0.753657703593893      -0.747255899867019      -0.740832258055777     
 -0.734413040392614      -0.728024348694809      -0.721692250315115     
 -0.715442936691097      -0.709302800690777      -0.703298324923616     
 -0.697455721856535      -0.691800339122588      -0.686355915980330     
 -0.681143826844601      -0.676182451990095      -0.671486759482792     
 -0.667068104922949      -0.662934233820558      -0.659089506152410     
 -0.655535357565159      -0.652270904888083      -0.649293485329134     
 -0.646598950633431      -0.644181714729708      -0.642034740006314     
 -0.640149728183786      -0.638517623204916      -0.637129299369264     
 -0.635976327021971      -0.635051798710782      -0.634351127394169     
 -0.633872592638657      -0.633617228810496      -0.633587461291902     
 -0.633784046673940      -0.634201726212336      -0.634825127142106     
 -0.635626644405036      -0.636567001063768      -0.637597948805118     
 -0.638665965478894      -0.639715883668446      -0.640693787266199     
 -0.641548836841177      -0.642233863813523      -0.642704898706012     
 -0.642920325773897      -0.642840550162479      -0.642428567911537     
 -0.641651144935840      -0.640480049395832      -0.638892912379856     
 -0.636873513723465      -0.634411520810009      -0.631501965934334     
 -0.628144900529093      -0.624345562472359      -0.620115052846176     
 -0.615471189831355      -0.610439184091710      -0.605051953539033     
 -0.599350054906611      -0.593381361501404      -0.587200638524329     
 -0.580868955006375      -0.574452667602736      -0.568021853045107     
 -0.561648415839030      -0.555404137801098      -0.549358621667180     
 -0.543576915374441      -0.538116696013979      -0.533024884257217     
 -0.528333391827228      -0.524053713304927      -0.520170219240383     
 -0.516631966722585      -0.513343487700048      -0.510157606523215     
 -0.506876616591585      -0.503269634020454      -0.499115860565979     
 -0.494282651191803      -0.488808944267055      -0.482895069205805     
 -0.476750613890060      -0.470460122972119      -0.464049762796748     
 -0.457618052549475      -0.451333775594362      -0.445389108883051     
 -0.439976261871264      -0.435243847892665      -0.431251818884451     
 -0.427989524194340      -0.425409125592004      -0.423441197208978     
 -0.422000623443684      -0.420998999314476      -0.420354898431063     
 -0.420016105598115      -0.419984323049346      -0.420289860116878     
 -0.420958008336664      -0.422060860929904      -0.423779732634559     
 -0.426400485146728      -0.430274241489509      -0.435757436800248     
 -0.443100622202099      -0.452335417379528      -0.463301941594464     
 -0.475925641589506      -0.490652446136440      -0.508826757405880     
 -0.531552512943661      -0.554076266879967      -0.570695809731656     
 -0.581813913876118      -0.589486169264177      -0.594999495330403     
 -0.598960723982905      -0.601669954321495      -0.603329943145725     
 -0.604109612764974      -0.604144111819567      -0.603521252675964     
 -0.602270842574097      -0.600360545263524      -0.597699734744553     
 -0.594154933351931      -0.589587010500954      -0.583923323674663     
 -0.577252257759700      -0.569868678504850      -0.562193577094149     
 -0.554606226729894      -0.547317453587632      -0.540356122619059     
 -0.533635652128170      -0.527026300062217      -0.520404533441365     
 -0.513730126219494      -0.507202520267638      -0.501300805698107     
 -0.496216742234982      -0.491450724741300      -0.488729596430486     
 -0.487022201077018      -0.485397387736234      -0.482710129364820     
 -0.823096886327408      -0.821100783966978      -0.818006348831752     
 -0.815661226027630      -0.813905340232244      -0.812668710839900     
 -0.811906772987296      -0.811583665788972      -0.811666247624863     
 -0.812121620004339      -0.812916023604139      -0.814014350743805     
 -0.815379956237755      -0.816974609651652      -0.818758525806843     
 -0.820690499040504      -0.822728175642369      -0.824828409306363     
 -0.826947629094802      -0.829042203068568      -0.831068795615587     
 -0.832984713541049      -0.834748255024047      -0.836319086226464     
 -0.837658656071950      -0.838730634997271      -0.839501349153892     
 -0.839940185334361      -0.840019956794093      -0.839717230729801     
 -0.839012616758851      -0.837891007473595      -0.836341755226019     
 -0.834358767215788      -0.831940501255084      -0.829089845644343     
 -0.825813876618101      -0.822123514239274      -0.818033123293837     
 -0.813560099173528      -0.808724455898478      -0.803548434657274     
 -0.798056162596416      -0.792273377526201      -0.786227223197589     
 -0.779946115913787      -0.773459633268832      -0.766798353242790     
 -0.759993618996362      -0.753077233378637      -0.746081101232304     
 -0.739036850431019      -0.731975465960788      -0.724926997141984     
 -0.717920443508057      -0.710983921090521      -0.704145108289885     
 -0.697431819923352      -0.690872454984059      -0.684496053286173     
 -0.678331769000741      -0.672407708477354      -0.666749257904460     
 -0.661377210299980      -0.656306169732751      -0.651543740370782     
 -0.647090747709681      -0.642942359392483      -0.639089728270674     
 -0.635521639095314      -0.632225701902519      -0.629188835767704     
 -0.626396886632181      -0.623833566074752      -0.621479580662321     
 -0.619313326158224      -0.617313944611447      -0.615466276237434     
 -0.613766681504064      -0.612228089139656      -0.610881788932401     
 -0.609773800949940      -0.608955227328701      -0.608468533610371     
 -0.608334489721607      -0.608545060246451      -0.609064159198559     
 -0.609833906747902      -0.610782808662949      -0.611833563525913     
 -0.612909563535165      -0.613940001871439      -0.614863170069861     
 -0.615627211154118      -0.616187455285217      -0.616501698649474     
 -0.616526920937226      -0.616219582075308      -0.615538319963239     
 -0.614446975093018      -0.612917079445882      -0.610929776698157     
 -0.608477051097138      -0.605561861027241      -0.602196983159207     
 -0.598403039203599      -0.594206616718390      -0.589639126206358     
 -0.584736456410315      -0.579539125102565      -0.574092468039614     
 -0.568446435451337      -0.562654821027441      -0.556774059376982     
 -0.550861899462466      -0.544976273368829      -0.539174532297774     
 -0.533512946379027      -0.528046140177436      -0.522826155059321     
 -0.517900996223547      -0.513312456510156      -0.509092643523258     
 -0.505258509543577      -0.501804194068042      -0.498691592233222     
 -0.495839909199850      -0.493116093986964      -0.490331281871756     
 -0.487253829981013      -0.483654244795784      -0.479389573181548     
 -0.474499138509158      -0.469239002473723      -0.463987829123419     
 -0.459037080147269      -0.454400612639651      -0.449831980719487     
 -0.445065659816270      -0.440009773259002      -0.434712439421092     
 -0.429311788902314      -0.424052622576057      -0.419190076907750     
 -0.414899321929827      -0.411271883684468      -0.408283359065136     
 -0.405759538724737      -0.403417390480856      -0.400942831501433     
 -0.398129674262740      -0.395087325184853      -0.392312617912362     
 -0.390429986847243      -0.389778244185376      -0.390239900022411     
 -0.391441738816296      -0.393232226335817      -0.396033674353818     
 -0.400532876250316      -0.407307968436546      -0.416651334626672     
 -0.428400337056869      -0.441945867304090      -0.456523803559461     
 -0.471501135500747      -0.486763590666987      -0.502740600500766     
 -0.519592783860609      -0.536122239923573      -0.550770522398254     
 -0.562992634286779      -0.573094743083008      -0.581413818378920     
 -0.588123418892457      -0.593274468786447      -0.596877144796619     
 -0.598928363606222      -0.599390344470675      -0.598151089653568     
 -0.594978643143288      -0.589485023190339      -0.581197927642159     
 -0.569994628580257      -0.556817110076287      -0.543407564577046     
 -0.531129394446193      -0.520349526010753      -0.510982990425573     
 -0.502886003599164      -0.495816097863513      -0.488987569540919     
 -0.480830940349782      -0.470777396400438      -0.460596176866685     
 -0.452360002093040      -0.447986017133292      -0.447033757557004     
 -0.446596931893244      -0.443953402743977      -0.439039288773001     
 -0.812408346438326      -0.810464015998221      -0.807410701243257     
 -0.805120073944020      -0.803477020122535      -0.802424335733537     
 -0.801921090347478      -0.801931055172220      -0.802418455604630     
 -0.803346159689965      -0.804674884321152      -0.806362916093218     
 -0.808366129698073      -0.810638185360647      -0.813130817691646     
 -0.815794163622900      -0.818577174123404      -0.821428119371340     
 -0.824295069810075      -0.827126292812068      -0.829870576026966     
 -0.832477539125089      -0.834898030493578      -0.837084637992529     
 -0.838992252478968      -0.840578609310414      -0.841804759560954     
 -0.842635456270389      -0.843039475758360      -0.842989907641740     
 -0.842464436178907      -0.841445613524389      -0.839921099464392     
 -0.837883824799347      -0.835332035951422      -0.832269179359817     
 -0.828703596071933      -0.824648059053630      -0.820119251721503     
 -0.815137258844998      -0.809725060268585      -0.803908036239304     
 -0.797713564650727      -0.791170783594104      -0.784310523147990     
 -0.777165303292079      -0.769769269418480      -0.762158053984925     
 -0.754368559365290      -0.746438590348951      -0.738406306873304     
 -0.730309523546425      -0.722184921381910      -0.714067309918335     
 -0.705989164750467      -0.697980638286541      -0.690070075810915     
 -0.682284894962229      -0.674652575620620      -0.667201425370537     
 -0.659960827623580      -0.652960873695576      -0.646231408314063     
 -0.639800591696476      -0.633693254308772      -0.627929646710788     
 -0.622525373473723      -0.617492911830543      -0.612843693256971     
 -0.608587908414014      -0.604730665247609      -0.601266726332883     
 -0.598176123592100      -0.595422439173390      -0.592955517768356     
 -0.590719404009285      -0.588665857458635      -0.586770521202099     
 -0.585045476330035      -0.583542295406790      -0.582342513835924     
 -0.581537708938817      -0.581205731220166      -0.581390282225563     
 -0.582088859241234      -0.583251786628224      -0.584791890299747     
 -0.586600115219753      -0.588561095565270      -0.590565104164097     
 -0.592515621285497      -0.594333101118488      -0.595955182426448     
 -0.597332876909699      -0.598423549381196      -0.599184582199160     
 -0.599572068802433      -0.599544274555812      -0.599065914351978     
 -0.598110841296589      -0.596663409339993      -0.594719382874426     
 -0.592286398744240      -0.589383058748993      -0.586036274019170     
 -0.582278162428926      -0.578144122248598      -0.573672139766970     
 -0.568902342339443      -0.563876142181294      -0.558634896527425     
 -0.553218435362600      -0.547664016988716      -0.542006011173829     
 -0.536276216426706      -0.530504644419118      -0.524720665560027     
 -0.518954474207594      -0.513238699891834      -0.507609369448329     
 -0.502104367595920      -0.496757001464975      -0.491583772546958     
 -0.486568761815646      -0.481649219791017      -0.476706757096543     
 -0.471568792268605      -0.466027063008756      -0.459879744837166     
 -0.452997146972362      -0.445401989692751      -0.437341557614457     
 -0.429302625006155      -0.421922094675968      -0.415799192867472     
 -0.411287073930513      -0.408381213486319      -0.406715926193642     
 -0.405592779234665      -0.404105189731720      -0.401289415334951     
 -0.396512210354827      -0.389783431655283      -0.381715071454712     
 -0.373214982410534      -0.364989427680756      -0.357421692130307     
 -0.350609870814965      -0.344529648475556      -0.339240481402879     
 -0.335039754231736      -0.332508424132726      -0.331980662176357     
 -0.332996069223872      -0.334759335252806      -0.336751436193917     
 -0.338871161541887      -0.341320957319250      -0.344482911099797     
 -0.348853754965765      -0.355020685551982      -0.363622312551385     
 -0.375178245111097      -0.389605955880696      -0.405618934166122     
 -0.421181717760027      -0.435020867244613      -0.447048398396803     
 -0.457673743486408      -0.467244067871812      -0.475892915236933     
 -0.483592163761661      -0.490225370822167      -0.495657959920224     
 -0.499801521096231      -0.502643684417936      -0.504239599483392     
 -0.504685441208995      -0.504094487593421      -0.502583283179860     
 -0.500265077949406      -0.497244966533901      -0.493614939626375     
 -0.489448594183382      -0.484792272114886      -0.479651982606451     
 -0.473982350270795      -0.467670380246321      -0.460471068721960     
 -0.451861972428572      -0.441014613219464      -0.427647696427565     
 -0.412829144621142      -0.397623152105392      -0.382666391647926     
 -0.369783724212536      -0.362682489211624      -0.361241042043872     
 -0.360500021511628      -0.357781333167876      -0.352114787964864     
 -0.801963706049020      -0.800042464683931      -0.797113326612669     
 -0.794982656575358      -0.793556386646142      -0.792785512591315     
 -0.792632506858178      -0.793061877866480      -0.794036562624626     
 -0.795516383989495      -0.797457522306582      -0.799812547826519     
 -0.802530737137867      -0.805558566647002      -0.808840340171109     
 -0.812318819810583      -0.815935743960552      -0.819632311306910     
 -0.823349603205371      -0.827028893088516      -0.830611939912759     
 -0.834041377998985      -0.837261267641353      -0.840217756192675     
 -0.842859735508503      -0.845139407039666      -0.847012698519598     
 -0.848439538290155      -0.849384054384519      -0.849814771044816     
 -0.849704856953442      -0.849032452186379      -0.847781044800892     
 -0.845939811350537      -0.843503822235860      -0.840474026218199     
 -0.836856942923987      -0.832664102203099      -0.827911418273348     
 -0.822618622688041      -0.816808703471659      -0.810507362693657     
 -0.803742644034863      -0.796544850350304      -0.788946673475128     
 -0.780983281564670      -0.772692311363432      -0.764113855786211     
 -0.755290365666397      -0.746266314625496      -0.737087563310692     
 -0.727800455054107      -0.718450627875297      -0.709081666569468     
 -0.699733959346415      -0.690444000677909      -0.681244219863013     
 -0.672163402744349      -0.663227715060008      -0.654462299896092     
 -0.645893438373879      -0.637551236174982      -0.629472431232437     
 -0.621701941916829      -0.614291268947442      -0.607293460325680     
 -0.600757305108757      -0.594724131208568      -0.589226488330221     
 -0.584285584795705      -0.579908446355404      -0.576085384878807     
 -0.572786107929839      -0.569958898070097      -0.567538088318304     
 -0.565458544599542      -0.563673972960630      -0.562171821563799     
 -0.560978654590488      -0.560156172945491      -0.559787258342313     
 -0.559953319556937      -0.560710401659378      -0.562072119042748     
 -0.564002675916143      -0.566420199167433      -0.569209231357085     
 -0.572238320215764      -0.575376608011551      -0.578505516111578     
 -0.581525078085795      -0.584355660967053      -0.586935403437643     
 -0.589214152091765      -0.591146470744919      -0.592687278009563     
 -0.593792211115590      -0.594421646788783      -0.594545051503481     
 -0.594143704209300      -0.593212099276383      -0.591758290308436     