 Title = "Wing and Wake"
 VARIABLES = "X" "Y" "Z" "GAM"
 Zone I=    9 J=   15 K=1  T="Blade"
 DATAPACKING=BLOCK
 VARLOCATION=([4]=CELLCENTERED)
 -0.703377388316772      -0.703880415009560      -0.705209591692920     
 -0.706525135489082      -0.707068800148842      -0.706644710413916     
 -0.705910929693074      -0.705352863694983      -0.705038289126782     
 -0.708764018151432      -0.709360118660898      -0.710934574300593     
 -0.712679538043143      -0.713803650283643      -0.713955534277334     
 -0.713644747437277      -0.713333883692348      -0.713144827658270     
 -0.714001863798218      -0.714629747023757      -0.716287428416011     
 -0.718340029427122      -0.720077510401686      -0.720992622597120     
 -0.721310109343432      -0.721387053661916      -0.721400067742450     
 -0.719307403309472      -0.719943208495402      -0.721620942876861     
 -0.723914264066288      -0.726228284083542      -0.727911419037808     
 -0.728878949841859      -0.729362081907818      -0.729587696597343     
 -0.724912539693486      -0.725625863506185      -0.727507861228232     
 -0.730160032869137      -0.732960882237382      -0.735128558117044     
 -0.736452518048411      -0.737144167394619      -0.737475728579477     
 -0.730848494698345      -0.731606597022032      -0.733606291544315     
 -0.736489008754796      -0.739631184067390      -0.742160796632355     
 -0.743760928109756      -0.744616994571207      -0.745032941940766     
 -0.737045024171986      -0.737823464789209      -0.739876891356735     
 -0.742892646298932      -0.746262255359527      -0.749054773675646     
 -0.750864265441629      -0.751847678134727      -0.752329498198090     
 -0.743441911839341      -0.744223899255908      -0.746286455636055     
 -0.749364346148042      -0.752874500728479      -0.755850653333930     
 -0.757814290972765      -0.758893793599660      -0.759425778896884     
 -0.750009220817221      -0.750782023052489      -0.752820311720972     
 -0.755904299929882      -0.759481941148053      -0.762571235596045     
 -0.764638300166161      -0.765784325872215      -0.766351638285151     
 -0.756723651339886      -0.757476943853624      -0.759463383437914     
 -0.762506016059791      -0.766088020914731      -0.769228789837885     
 -0.771354296159009      -0.772540823397495      -0.773130293493452     
 -0.763571727205017      -0.764296055469936      -0.766206112386673     
 -0.769164734853499      -0.772694163353331      -0.775830243854233     
 -0.777973009529680      -0.779176041246633      -0.779775385994469     
 -0.770553970093617      -0.771240180587054      -0.773049666084732     
 -0.775882078191144      -0.779301541916488      -0.782376038128782     
 -0.784494350167626      -0.785689462608769      -0.786286311472016     
 -0.777653679043679      -0.778293772871932      -0.779981507946993     
 -0.782650609581041      -0.785910123901566      -0.788873171626592     
 -0.790930531926134      -0.792096278158782      -0.792679770888102     
 -0.784942835215863      -0.785524359601152      -0.787057494308731     
 -0.789504687470249      -0.792523599508697      -0.795294097292560     
 -0.797230310358466      -0.798331569966769      -0.798883700446883     
 -0.792403552351007      -0.792915537364050      -0.794265582724883     
 -0.796438654872065      -0.799144032262307      -0.801647942499446     
 -0.803407791977122      -0.804411950540991      -0.804916151677887     
  0.315736537422211       0.316353292133705       0.317979609064973     
  0.320497729525920       0.323499933335722       0.326166023504419     
  0.327987040802661       0.329009137380824       0.329518289446456     
  0.300864509808720       0.301620363758951       0.303613069627740     
  0.306823858016885       0.310825082329662       0.314531652802158     
  0.317138349395720       0.318626145597101       0.319373450472123     
  0.286375788772569       0.287229732112038       0.289480581484877     
  0.293228161806871       0.298058582136144       0.302668976266620     
  0.305975025779521       0.307882369453744       0.308845458129337     
  0.272218605259811       0.273152189984119       0.275612716675238     
  0.279802534872697       0.285322473470880       0.290688850109109     
  0.294581571873371       0.296841355993985       0.297985775054270     
  0.258693217688612       0.259687995793363       0.262309669338231     
  0.266800633530828       0.272750982712457       0.278562682606677     
  0.282790489551868       0.285248573650071       0.286494296037643     
  0.245667983156512       0.246690015455914       0.249383231261739     
  0.254018051321384       0.260185469878804       0.266230244560297     
  0.270637067854786       0.273201983253718       0.274502663981919     
  0.233014934976103       0.234039217032139       0.236738475041495     
  0.241401063525879       0.247626975755781       0.253746249521236     
  0.258214973262537       0.260818327360529       0.262138998783391     
  0.220605105301516       0.221616017375271       0.224279793508573     
  0.228895394218688       0.235076375594673       0.241165566899994     
  0.245618413787337       0.248214504385339       0.249531961870153     
  0.208347744847948       0.209335966519080       0.211939963404681     
  0.216463324092806       0.222534903017622       0.228527290508925     
  0.232914251666275       0.235473381976719       0.236772455735896     
  0.196219468472087       0.197177222010520       0.199700934723671     
  0.204093809527030       0.210001284775093       0.215840367421486     
  0.220119018866603       0.222616120172714       0.223884018732820     
  0.184218323159739       0.185137766556635       0.187560368778782     
  0.191784576113359       0.197474017804217       0.203104580150027     
  0.207233462082088       0.209644108454695       0.210868297457343     
  0.172351520457816       0.173224104637966       0.175523420196575     
  0.179538271606677       0.184952664479350       0.190316534245901     
  0.194252194222490       0.196550802714729       0.197718233571441     
  0.160633458808774       0.161449541958032       0.163599923627477     
  0.167359588356534       0.172435682110228       0.177468966209118     
  0.181164159340923       0.183322832970533       0.184419428632659     
  0.149089733485163       0.149838259656642       0.151810524879444     
  0.155261908670895       0.159925718451736       0.164553146453869     
  0.167951693103804       0.169937585423931       0.170946440577334     
  0.137716334552434       0.138386183520488       0.140151342575449     
  0.143242186796627       0.147421206162242       0.151569628837637     
  0.154617149173922       0.156398185082841       0.157302972922237     
 -2.749770601831581E-002 -2.803511650592502E-002 -2.944990484114883E-002
 -3.226353252699098E-002 -3.647794371150298E-002 -4.098149725166532E-002
 -4.443021238388857E-002 -4.648858535705947E-002 -4.754464476121426E-002
 -3.300200914840542E-002 -3.367772143076881E-002 -3.545669628419514E-002
 -3.898759785140334E-002 -4.426915568499806E-002 -4.990810988191045E-002
 -5.422419100477668E-002 -5.679963665849307E-002 -5.812087350696039E-002
 -3.922727312570304E-002 -4.002891654273054E-002 -4.213965669788026E-002
 -4.624751994650346E-002 -5.230440030156885E-002 -5.870902999589404E-002
 -6.358592698416125E-002 -6.648866303489924E-002 -6.797604292472254E-002
 -4.591171911625402E-002 -4.683061521923886E-002 -4.925072891854387E-002
 -5.384460395432403E-002 -6.049041061131054E-002 -6.742669269196415E-002
 -7.267083795113173E-002 -7.578104201277504E-002 -7.737212881000680E-002
 -5.332767348137035E-002 -5.427672373322544E-002 -5.677614013877898E-002
 -6.153740389307714E-002 -6.844431222119947E-002 -7.566681619006368E-002
 -8.113318189995899E-002 -8.437691918865177E-002 -8.603670632072588E-002
 -6.124413806375046E-002 -6.219801468354969E-002 -6.470997174743448E-002
 -6.950158479933238E-002 -7.645978665343969E-002 -8.374118968315639E-002
 -8.925431995063417E-002 -9.252629489856695E-002 -9.420077361418094E-002
 -6.952077079551698E-002 -7.046108156071237E-002 -7.293735208525121E-002
 -7.766053322553305E-002 -8.451889550557543E-002 -9.169559441646467E-002
 -9.712935054300932E-002 -0.100354269314936      -0.102004574277474     
 -7.800786695079906E-002 -7.892440159797136E-002 -8.133781130010752E-002
 -8.593575450669490E-002 -9.260628509287616E-002 -9.958209653931385E-002
 -0.104861808920802      -0.107994798664719      -0.109598009998027     
 -8.658916264727431E-002 -8.747810457668699E-002 -8.981887730672966E-002
 -9.426820393807839E-002 -0.100711906511427      -0.107442180679519     
 -0.112532607561115      -0.115552277813845      -0.117097246177387     
 -9.524762479981842E-002 -9.610553732937265E-002 -9.836491660683848E-002
 -0.102645944696013      -0.108830685743357      -0.115279267698326     
 -0.120152156128206      -0.123041341560011      -0.124519217419902     
 -0.103991929104754      -0.104814545524809      -0.106980717470448     
 -0.111069838449741      -0.116959496297265      -0.123087612305616     
 -0.127713018417648      -0.130453854947659      -0.131855444990802     
 -0.112832653909781      -0.113614354937827      -0.115673116324105     
 -0.119542440370273      -0.125096469619513      -0.130861360981722     
 -0.135206686131208      -0.137779867722630      -0.139095252061611     
 -0.121806212985959      -0.122538710490752      -0.124467932611744     
 -0.128077290415039      -0.133239233150871      -0.138583340897640     
 -0.142605710629095      -0.144985833395234      -0.146202224861268     
 -0.130891823057963      -0.131568366160747      -0.133350213393073     
 -0.136666174513823      -0.141388606535806      -0.146262882867189     
 -0.149925407197706      -0.152090840666548      -0.153197048184323     
 -0.140098660299188      -0.140711153863576      -0.142324431299228     
 -0.145309507262005      -0.149540826091658      -0.153893595935174     
 -0.157158006887529      -0.159086217806943      -0.160070742818934     
  1.518613605567591E-002  5.974746827866410E-002  0.202335103969913     
  0.424746543362845       0.642199066390213       0.782913427818351     
  0.846091678262343       0.864105114861942       3.141145737973777E-002
  9.783935492156942E-002  0.280703894005515       0.554048699876149     
  0.814074137713630       0.973340966783635        1.04106721186816     
   1.06034159658093       4.398618471417538E-002  0.122506055227338     
  0.316101592309626       0.594654922179027       0.854496937090630     
   1.01075498091078        1.07604537958554        1.09471358024627     
  4.553198109225235E-002  0.125701433550664       0.323883345206072     
  0.608660426260247       0.872092281383355        1.02767903092865     
   1.09143257444050        1.10953837771717       3.466719459915618E-002
  0.106197604214551       0.307965283584236       0.605147787923039     
  0.881727627842272        1.04572263052080        1.11356913946708     
   1.13308615432521       2.516049461135315E-002  8.844249893615040E-002
  0.290398794246724       0.594934003858571       0.880616980406060     
   1.05047672808607        1.12091592488212        1.14126044139095     
  1.747766404978761E-002  7.361607375894343E-002  0.273286093370810     
  0.579892572947710       0.869184694843010        1.04136768477956     
   1.11274853187645        1.13339578545111       1.224466797958071E-002
  6.312602421598339E-002  0.259263444396380       0.563961711405948     
  0.852302829351475        1.02384209886536        1.09485650492359     
   1.11539909845674       1.031671943417607E-002  5.873161158336855E-002
  0.251144165228071       0.551124883777854       0.835153293803569     
   1.00409910807407        1.07404998210826        1.09430255583394     
  1.181742743022517E-002  6.063795880843893E-002  0.249312607331414     
  0.541953102994864       0.818564160169754       0.983175945482467     
   1.05144840041014        1.07126732188451       1.593405871209295E-002
  6.714094900400699E-002  0.251138760144514       0.533037727084310     
  0.798576248191366       0.956792987568832        1.02264842439721     
   1.04183885579428       2.012551392272646E-002  7.309890735971225E-002
  0.249023018837536       0.514917920801540       0.764891385218244     
  0.914581125225441       0.977373812721578       0.995774616158120     
  2.175667903719809E-002  7.277020110069454E-002  0.233514891302167     
  0.474009298348851       0.701165942768123       0.839881079993728     
  0.899540530739775       0.917313073157043       1.466856835344965E-002
  5.193495804303269E-002  0.178407024666581       0.366694719570764     
  0.547231294032288       0.666163795553265       0.723152583555916     
  0.741278656862062     
 Zone I=  101 J=   15 K=1  T="NearWake"
 DATAPACKING=BLOCK
 VARLOCATION=([4]=CELLCENTERED)
 -0.705356663441235      -0.705921177772536      -0.705649488619765     
 -0.704925854798111      -0.703857501268315      -0.702442129039337     
 -0.700670740436209      -0.698536884155035      -0.696038128414405     
 -0.693176182864715      -0.689956725779907      -0.686389157154231     
 -0.682486321012634      -0.678264219992884      -0.673741749031745     
 -0.668940441794218      -0.663884186126366      -0.658598877988163     
 -0.653112013378490      -0.647452226375616      -0.641648780390764     
 -0.635731022926566      -0.629727821142608      -0.623667001973238     
 -0.617574824507777      -0.611475515392745      -0.605390902830906     
 -0.599340194339359      -0.593339955954490      -0.587404352619556     
 -0.581545688599451      -0.575775243883739      -0.570104347699614     
 -0.564545574030096      -0.559113880883963      -0.553827423191027     
 -0.548707703655646      -0.543778886738576      -0.539066510680846     
 -0.534596117080380      -0.530392215898377      -0.526477747930882     
 -0.522874044417415      -0.519601001805622      -0.516676852833816     
 -0.514117085256193      -0.511932712988413      -0.510128606613429     
 -0.508702587629114      -0.507645548124871      -0.506942801326113     
 -0.506577106611866      -0.506533632166181      -0.506806164277365     
 -0.507402287778755      -0.508344665027355      -0.509666830359229     
 -0.511404235714790      -0.513583013640235      -0.516209447206608     
 -0.519262605283678      -0.522691502701659      -0.526417192411801     
 -0.530339437171888      -0.534346506121137      -0.538325493957746     
 -0.542170582645267      -0.545788297343235      -0.549100565228971     
 -0.552046578381444      -0.554583584575750      -0.556686199613797     
 -0.558344032515773      -0.559557933313132      -0.560335566405615     
 -0.560687153032577      -0.560622131779105      -0.560147185238329     
 -0.559265634200136      -0.557977696926748      -0.556280897025301     
 -0.554170257034763      -0.551638383245808      -0.548675644977827     
 -0.545270516013572      -0.541409965875182      -0.537079725299563     
 -0.532264339828466      -0.526946706038061      -0.521106001560853     
 -0.514713254777591      -0.507728481157982      -0.500112267215238     
 -0.491874389475150      -0.483191094521976      -0.474607312625209     
 -0.467192140930132      -0.462209187279940      -0.460030588138965     
 -0.459227938200061      -0.457111774667358      -0.713463201972723     
 -0.714563494141113      -0.713650891041886      -0.712629830637023     
 -0.711349830994824      -0.709723118165002      -0.707701325100056     
 -0.705258379864537      -0.702381735686566      -0.699068107723582     
 -0.695321295244760      -0.691150936547635      -0.686571685140643     
 -0.681602570433714      -0.676266431072034      -0.670589409078015     
 -0.664600525646720      -0.658331290895326      -0.651815279653288     
 -0.645087650833665      -0.638184605068663      -0.631142774076190     
 -0.623998537697358      -0.616787274794208      -0.609542573183961     
 -0.602295450168764      -0.595073668562233      -0.587901275703537     
 -0.580798536288504      -0.573782440103114      -0.566867899051420     
 -0.560069589650409      -0.553404183225105      -0.546892514591034     
 -0.540561120065587      -0.534442431000975      -0.528572865464887     
 -0.522988892558024      -0.517722602286017      -0.512798731835960     
 -0.508234308063566      -0.504040855331418      -0.500227460300613     
 -0.496802214597850      -0.493771309028872      -0.491136999726677     
 -0.488895631805721      -0.487036376268093      -0.485541594405413     
 -0.484389807492287      -0.483561201958079      -0.483044362449583     
 -0.482842154953784      -0.482974526676795      -0.483477112420039     
 -0.484396540074726      -0.485784155818335      -0.487688200688915     
 -0.490142547936463      -0.493151742834775      -0.496676400883183     
 -0.500625651988514      -0.504862062521563      -0.509219578904678     
 -0.513528787605970      -0.517640313765711      -0.521439033694842     
 -0.524847303067829      -0.527820207918803      -0.530337161195216     
 -0.532393247268074      -0.533992378874076      -0.535142918397192     
 -0.535855305558493      -0.536140787581302      -0.536010488456984     
 -0.535474438915233      -0.534540488536554      -0.533213272722311     
 -0.531493416341431      -0.529376851994067      -0.526854419562486     
 -0.523912796540706      -0.520537390413973      -0.516715823659413     
 -0.512439185456626      -0.507699538919916      -0.502484956765143     
 -0.496773695764314      -0.490528173207619      -0.483689202168604     
 -0.476170774757046      -0.467863701723670      -0.458679345261492     
 -0.448742826649305      -0.438927061210083      -0.431089610262979     
 -0.426365586567507      -0.423570184149746      -0.420831575297368     
 -0.419013166921553      -0.721718442056903      -0.723377094606610     
 -0.722785715340613      -0.721974287103163      -0.720802769964090     
 -0.719198064123119      -0.717117550275896      -0.714536134113592     
 -0.711440624283306      -0.707826949772382      -0.703698598583870     
 -0.699065589690969      -0.693943694291919      -0.688353789642000     
 -0.682321266626207      -0.675875432481927      -0.669048932992317     
 -0.661877279740303      -0.654398438797708      -0.646652378109205     
 -0.638680552139460      -0.630525311401361      -0.622229207797589     
 -0.613834164506166      -0.605380492770635      -0.596905776528059     
 -0.588443720993509      -0.580023172837304      -0.571667648315500     
 -0.563395791993591      -0.555223145295131      -0.547165366827076     
 -0.539242612806969      -0.531484202959414      -0.523932004667892     
 -0.516640132138298      -0.509668462880755      -0.503070612996794     
 -0.496882785717819      -0.491121979113190      -0.485795108559469     
 -0.480911264521525      -0.476487736247692      -0.472546614074901     
 -0.469105920796684      -0.466171761748704      -0.463735940477698     
 -0.461778996715306      -0.460275663002830      -0.459200823064800     
 -0.458535476449833      -0.458271058585027      -0.458410559178880     
 -0.458967465434434      -0.459965706421407      -0.461443036547471     
 -0.463454895312494      -0.466069283976396      -0.469345803965206     
 -0.473303806629112      -0.477892223479200      -0.482973592504652     
 -0.488333110655081      -0.493716546641514      -0.498884037624228     
 -0.503653962842135      -0.507918208499436      -0.511630431184378     
 -0.514782392281005      -0.517382360314911      -0.519441626107597     
 -0.520968901284578      -0.521969737382201      -0.522448143601248     
 -0.522408783858727      -0.521858800971492      -0.520808596008316     
 -0.519271489553065      -0.517262722325051      -0.514798332464498     
 -0.511893958242800      -0.508563371816296      -0.504817581026027     
 -0.500665669895435      -0.496116725711505      -0.491180755917765     
 -0.485867057258671      -0.480176783254466      -0.474086462010051     
 -0.467528723628586      -0.460376844794861      -0.452434928896059     
 -0.443450691642268      -0.433184095973116      -0.421554141921611     
 -0.408972171679434      -0.397118219087970      -0.389066600888630     
 -0.387025347904182      -0.390103916924643      -0.395590795039602     
 -0.729906070911796      -0.732142632538536      -0.732095669320268     
 -0.731701650976506      -0.730840853490841      -0.729451067412815     
 -0.727495590518779      -0.724952744528300      -0.721811415036911     
 -0.718068825207047      -0.713729285415039      -0.708803463974588     
 -0.703307917720612      -0.697264641129578      -0.690700558949424     
 -0.683647009261624      -0.676139189589717      -0.668215573240732     
 -0.659917437781656      -0.651288441219423      -0.642374129420779     
 -0.633221374451685      -0.623877715947011      -0.614390553649860     
 -0.604806141205485      -0.595168366588343      -0.585517396864753     
 -0.575888418396786      -0.566310883892248      -0.556808820358176     
 -0.547402784382851      -0.538113871418641      -0.528969618086799     
 -0.520010537276601      -0.511294456927033      -0.502894241823476     
 -0.494884642913179      -0.487321710172242      -0.480230782566993     
 -0.473614261452554      -0.467471633517509      -0.461816581018062     
 -0.456682753341383      -0.452118217044099      -0.448172056321008     
 -0.444879346878600      -0.442251300191922      -0.440274486757828     
 -0.438918343969837      -0.438145988702290      -0.437923582009955     
 -0.438225200568676      -0.439031737334658      -0.440327430902807     
 -0.442102671080846      -0.444367980362980      -0.447169676190843     
 -0.450590362005784      -0.454728027562872      -0.459657516756883     
 -0.465378841106464      -0.471766239901645      -0.478552161400803     
 -0.485378945267768      -0.491902974778813      -0.497884744886006     
 -0.503212132266577      -0.507865646473082      -0.511868009363142     
 -0.515248263060476      -0.518026719547694      -0.520213289346470     
 -0.521810650396437      -0.522818089330382      -0.523235035363796     
 -0.523063923937586      -0.522311550966420      -0.520988727624670     
 -0.519109028332214      -0.516687482863188      -0.513739639953429     
 -0.510281042415840      -0.506327659049784      -0.501897471706355     
 -0.497010095787008      -0.491680984698420      -0.485910277684627     
 -0.479668603461850      -0.472887425532844      -0.465458683214090     
 -0.457242744758102      -0.448084449543556      -0.437824503219002     
 -0.426289093302738      -0.413266934461152      -0.398596669197747     
 -0.383209707546493      -0.371983923089041      -0.370294631958074     
 -0.376348535239966      -0.384803004786245      -0.737794102893930     
 -0.740645810173316      -0.741181727801558      -0.741284261902040     
 -0.740835163005458      -0.739773423329595      -0.738062987818476     
 -0.735682456901246      -0.732620920672018      -0.728875967525889     
 -0.724452531870602      -0.719362086788326      -0.713622064504252     
 -0.707255492459041      -0.700290685116784      -0.692760846326412     
 -0.684703594530721      -0.676160376291314      -0.667175841363585     
 -0.657797367549035      -0.648074559421784      -0.638058655814370     
 -0.627801864653212      -0.617356588865468      -0.606774502556626     
 -0.596105465550606      -0.585396342441851      -0.574689924945502     
 -0.564024314983219      -0.553433269153244      -0.542948075578647     
 -0.532601301380765      -0.522431968914130      -0.512490519459222     
 -0.502841028505073      -0.493556989561017      -0.484706983678724     
 -0.476338127129485      -0.468471863049561      -0.461115119478536     
 -0.454278168075859      -0.447986914453391      -0.442285660084988     
 -0.437233074627639      -0.432892087896891      -0.429316119328272     
 -0.426536519705218      -0.424555668011754      -0.423350166685461     
 -0.422883268971803      -0.423115903542224      -0.424007838899679     
 -0.425511013524813      -0.427565570720806      -0.430110349409618     
 -0.433107933376622      -0.436570318154375      -0.440572564844683     
 -0.445250451257859      -0.450772370076901      -0.457265666487804     
 -0.464701367785606      -0.472806166577406      -0.481102850913688     
 -0.489089319079735      -0.496421062678272      -0.502962035505121     
 -0.508716175969874      -0.513737015783481      -0.518074295997366     
 -0.521758477186965      -0.524802691479538      -0.527208612864947     
 -0.528971950397707      -0.530087013582263      -0.530550373881226     
 -0.530362958745603      -0.529529970127333      -0.528059563284649     
 -0.525961606295867      -0.523247355028760      -0.519930083925249     
 -0.516025770453755      -0.511551816636050      -0.506520979493463     
 -0.500932964708655      -0.494766814492685      -0.487977323565191     
 -0.480501196220652      -0.472268776808074      -0.463209778522739     
 -0.453243651790655      -0.442251322977845      -0.430040607737331     
 -0.416315943708902      -0.400618239453400      -0.382639775104615     
 -0.366533190739624      -0.362946371093142      -0.370530855160835     
 -0.380589536792466      -0.745351316255220      -0.748847647037985     
 -0.749981943681730      -0.750616003269467      -0.750624130284897     
 -0.749942700392839      -0.748534024812342      -0.746375443602365     
 -0.743455119962036      -0.739770110668863      -0.735325296366970     
 -0.730132656143902      -0.724210663092717      -0.717583722409770     
 -0.710281832227640      -0.702340369149640      -0.693799699505683     
 -0.684704646511018      -0.675103801252134      -0.665048889085237     
 -0.654594243796735      -0.643796157916742      -0.632712157528423     
 -0.621400206845782      -0.609917826678924      -0.598321142928746     
 -0.586663949644231      -0.574996983602278      -0.563367738858921     
 -0.551821210764204      -0.540401788606321      -0.529155963313756     
 -0.518134781397719      -0.507394862579752      -0.496997732885500     
 -0.487005142313271      -0.477469492432561      -0.468428645957968     
 -0.459908273116126      -0.451930891097450      -0.444527078049625     
 -0.437738767520286      -0.431616721101493      -0.426219617406778     
 -0.421610269449131      -0.417846220697998      -0.414968586656421     
 -0.412993215427892      -0.411909144230016      -0.411686588527023     
 -0.412284752421494      -0.413649415526878      -0.415706828966904     
 -0.418365899840133      -0.421532871070150      -0.425133957091891     
 -0.429139910355334      -0.433592432646413      -0.438631720870723     
 -0.444502787941249      -0.451486934805371      -0.459720583162382     
 -0.468984868428517      -0.478681400587548      -0.488099394617761     
 -0.496751571025217      -0.504476604206242      -0.511314130457270     
 -0.517354495218424      -0.522666745547703      -0.527287231922027     
 -0.531228133692582      -0.534487684794498      -0.537057303583422     
 -0.538926164077799      -0.540084712208143      -0.540527281863494     
 -0.540252917342858      -0.539264106819503      -0.537565421850600     
 -0.535163251478913      -0.532066428267321      -0.528286066163366     
 -0.523831459264557      -0.518703207384280      -0.512889214765374     
 -0.506364267532864      -0.499094546515751      -0.491046953443590     
 -0.482193315725084      -0.472503725958391      -0.461926657379838     
 -0.450358505513105      -0.437614390800691      -0.423399040991925     
 -0.407218523065834      -0.388168839133345      -0.367736900814387     
 -0.360044123341983      -0.368260003125100      -0.379571737150588     
 -0.752647872512543      -0.756810753942816      -0.758573260431319     
 -0.759768421233390      -0.760265504011106      -0.759998313002003     
 -0.758927037137947      -0.757027210610370      -0.754285567834380     
 -0.750698192797678      -0.746269522253233      -0.741011679075861     
 -0.734943922086609      -0.728092134514177      -0.720488340884315     
 -0.712170373366671      -0.703181620390735      -0.693570559578757     
 -0.683390097581263      -0.672696785762826      -0.661550212695083     
 -0.650012323101926      -0.638146618308959      -0.626017300043907     
 -0.613688361024138      -0.601222661182884      -0.588681112636965     
 -0.576122251922245      -0.563602631840099      -0.551178303648979     
 -0.538906871070707      -0.526848626465893      -0.515065088505749     
 -0.503615557420059      -0.492554766795086      -0.481930193803427     
 -0.471781077659065      -0.462142537279028      -0.453050299549775     
 -0.444545798568910      -0.436677800535600      -0.429498535182466     
 -0.423060975956672      -0.417419714443777      -0.412630516406607     
 -0.408746008611835      -0.405808544494506      -0.403842604084326     
 -0.402849113349136      -0.402805138611339      -0.403667502740871     
 -0.405373025425730      -0.407837953828537      -0.410963175988481     
 -0.414644924423932      -0.418788082875564      -0.423323892667289     
 -0.428241581202232      -0.433642700706787      -0.439798566727408     
 -0.447128455056745      -0.455984731240321      -0.466283263490614     
 -0.477329271667931      -0.488159403501961      -0.498106234251828     
 -0.506986543752727      -0.514889768415725      -0.521947394506638     
 -0.528245422580044      -0.533822136984424      -0.538685110135885     
 -0.542826887882613      -0.546233687518851      -0.548889369328212     
 -0.550778387967554      -0.551888197644480      -0.552210970571049     
 -0.551743023701619      -0.550483216966388      -0.548432302807078     
 -0.545593130136433      -0.541969756528717      -0.537562430103994     
 -0.532363306731906      -0.526357178059113      -0.519524966294038     
 -0.511849555188127      -0.503320168343244      -0.493930416378218     
 -0.483669660744347      -0.472505192386374      -0.460360747212910     
 -0.447089794719388      -0.432434218326378      -0.415949163638857     
 -0.396666326645210      -0.373822210987996      -0.360390003980691     