 Title = "Wing and Wake"
 VARIABLES = "X" "Y" "Z" "GAM"
 Zone I=    9 J=   15 K=1  T="Blade"
 DATAPACKING=BLOCK
 VARLOCATION=([4]=CELLCENTERED)
  -1.30051600984457       -1.30112613486907       -1.30273771852386     
  -1.30449052934921       -1.30555552122952       -1.30559439319389     
  -1.30517682880839       -1.30479624801849       -1.30457008677864     
  -1.29515583918593       -1.29588319235644       -1.29780367773887     
  -1.30010618903407       -1.30192510658492       -1.30272062978656     
  -1.30286249105970       -1.30280998041388       -1.30275069250952     
  -1.28971349482806       -1.29048966375833       -1.29253820104238     
  -1.29524156254707       -1.29781783720918       -1.29953353594369     
  -1.30042511216320       -1.30083326323489       -1.30101351590888     
  -1.28439636522143       -1.28519428569344       -1.28729928605091     
  -1.29032016153508       -1.29359270883074       -1.29620770530891     
  -1.29785120015349       -1.29872673961392       -1.29915108058775     
  -1.27948854270147       -1.28037460791924       -1.28271185447479     
  -1.28614387386371       -1.28997799052382       -1.29315485749927     
  -1.29521296840219       -1.29633145957261       -1.29687933817995     
  -1.27499838946614       -1.27593396583614       -1.27840133237517     
  -1.28208887764282       -1.28630201394882       -1.28988129062163     
  -1.29224665893342       -1.29354811827977       -1.29418992648751     
  -1.27083349018132       -1.27178979551100       -1.27431194331290     
  -1.27813734824862       -1.28258807562225       -1.28644319467639     
  -1.28902867217654       -1.29046415256458       -1.29117530481382     
  -1.26691113354053       -1.26786866399649       -1.27039378024790     
  -1.27427316141203       -1.27885663214460       -1.28289016172369     
  -1.28562702810994       -1.28715733713824       -1.28791809652685     
  -1.26318567421264       -1.26413007934023       -1.26662054732255     
  -1.27049000887189       -1.27512196870591       -1.27925183032164     
  -1.28208068270223       -1.28367109672310       -1.28446399092698     
  -1.25962980164440       -1.26054940631474       -1.26297408401262     
  -1.26677953133882       -1.27138735850520       -1.27554207348915     
  -1.27841055983659       -1.28003070416633       -1.28084034253672     
  -1.25622960049612       -1.25711358843138       -1.25944432580921     
  -1.26313647418177       -1.26765386386316       -1.27176768125465     
  -1.27462741975341       -1.27624905581996       -1.27706097875723     
  -1.25298689472080       -1.25382462786698       -1.25603338532130     
  -1.25956296905867       -1.26392263223953       -1.26792855466203     
  -1.27073028688373       -1.27232454850071       -1.27312411960478     
  -1.24988748361972       -1.25066928879967       -1.25273043373291     
  -1.25605239429580       -1.26019336304632       -1.26403043138280     
  -1.26672945523581       -1.26827005121042       -1.26904396577810     
  -1.24700784292597       -1.24771934751687       -1.24959496248627     
  -1.25264148215360       -1.25647025626148       -1.26004429848519     
  -1.26257066298358       -1.26401676917431       -1.26474408551335     
  -1.24432929006257       -1.24495759312823       -1.24661415514224     
  -1.24932394675589       -1.25275500324340       -1.25597927951832     
  -1.25826832534879       -1.25958175755260       -1.26024307344898     
  0.313061980838607       0.312733812511086       0.311868467346456     
  0.310528603434980       0.308931164153563       0.307512567205089     
  0.306543624139049       0.305999777909148       0.305728863753619     
  0.298975758179864       0.298573576693327       0.297513280047004     
  0.295804855229079       0.293675848240906       0.291703623286432     
  0.290316628999203       0.289524989175463       0.289127356556831     
  0.284685717080935       0.284231343320526       0.283033691384643     
  0.281039645545026       0.278469432571961       0.276016293093959     
  0.274257180890791       0.273242304519501       0.272729855738756     
  0.270219133820801       0.269722383764635       0.268413164857997     
  0.266183809159773       0.263246711178964       0.260391321810396     
  0.258320047822415       0.257117641806538       0.256508709143362     
  0.255416378961791       0.254887068587979       0.253492105231413     
  0.251102513096039       0.247936398427258       0.244844057503392     
  0.242594488414698       0.241286569184607       0.240623734146840     
  0.240347498229260       0.239803686201373       0.238370656002852     
  0.235904519759402       0.232622904888220       0.229406547460387     
  0.227061725761775       0.225696962783862       0.225004885023842     
  0.225080716005019       0.224535706906629       0.223099461718762     
  0.220618550205120       0.217305811500897       0.214049813938452     
  0.211672055700038       0.210286839917554       0.209584125331078     
  0.209684385187268       0.209146490107863       0.207729124431904     
  0.205273214590740       0.201984383094534       0.198744392074796     
  0.196375081733922       0.194993730779058       0.194292726293299     
  0.194206927191520       0.193681105423173       0.192295547620546     
  0.189888717669949       0.186658098002136       0.183469615215982     
  0.181135361939799       0.179773677143177       0.179082454433516     
  0.178660919722270       0.178151309708713       0.176808470221989     
  0.174471070360487       0.171327768435267       0.168220857453297     
  0.165944234571262       0.164615554718471       0.163940919985763     
  0.163047132497391       0.162557906884378       0.161268867166198     
  0.159021213390304       0.155993924697701       0.152997965050225     
  0.150801032861587       0.149518354718073       0.148866977355110     
  0.147361863062559       0.146897570717996       0.145674130463305     
  0.143537872648092       0.140656934374816       0.137802878884808     
  0.135708757951253       0.134485693918721       0.133864516934414     
  0.131597450166560       0.131163221392596       0.130019027205113     
  0.128018551386802       0.125317618314959       0.122639463784661     
  0.120673292586726       0.119524686339394       0.118941199974880     
  0.115740409578971       0.115342127122066       0.114292706716302     
  0.112456263758728       0.109974702406814       0.107512499395012     
  0.105704170493219       0.104647499260415       0.104110698645467     
  9.979260548212121E-002  9.943618629075907E-002  9.849696477517367E-002
  9.685236091599159E-002  9.462875115617536E-002  9.242142155517935E-002
  9.079986985365662E-002  8.985220044053205E-002  8.937077288678730E-002
  3.141410791671247E-002  3.074906260751700E-002  2.899771474952603E-002
  2.566297251072418E-002  2.082726773819635E-002  1.577197792967238E-002
  1.194641084377013E-002  9.676519236097501E-003  8.515092930246018E-003
  3.871734288340031E-002  3.788520977070621E-002  3.569385272822228E-002
  3.149849186210186E-002  2.538889730374402E-002  1.898288376843149E-002
  1.412735763047350E-002  1.124401874273723E-002  9.768130259483263E-003
  4.522023371373603E-002  4.424187027536760E-002  4.166532620698213E-002
  3.678191680222215E-002  2.972540105658133E-002  2.236666947812181E-002
  1.680559929770689E-002  1.350814640893600E-002  1.182145932455123E-002
  5.119539180736592E-002  5.008329422978917E-002  4.715398476857624E-002
  4.169304428822714E-002  3.390490930359744E-002  2.585807790403370E-002
  1.980835007110168E-002  1.623049308734383E-002  1.440257352684647E-002
  5.630829398486021E-002  5.515337854291955E-002  5.211141770451322E-002
  4.642076759484591E-002  3.828245925952600E-002  2.985724817665214E-002
  2.351595540889379E-002  1.976352784273725E-002  1.784594364528005E-002
  6.081718135449472E-002  5.965179940241679E-002  5.658249253241878E-002
  5.083172275196719E-002  4.259719928644125E-002  3.406485528517719E-002
  2.763975127113220E-002  2.383697775251157E-002  2.189332857157208E-002
  6.488881857003291E-002  6.373653689478098E-002  6.070166615524775E-002
  5.501358172644000E-002  4.686679281281592E-002  3.842373565490266E-002
  3.206519574185544E-002  2.830152367038897E-002  2.637791125143529E-002
  6.869971889184434E-002  6.757398019682517E-002  6.460931310632417E-002
  5.905619053560671E-002  5.110653156913224E-002  4.287058731563888E-002
  3.666937679651892E-002  3.299913690416754E-002  3.112328322555044E-002
  7.238486680151006E-002  7.129141650867052E-002  6.841175745686845E-002
  6.302634015018262E-002  5.532614957865124E-002  4.735577575007043E-002
  4.135748550855287E-002  3.780821388512640E-002  3.599440761181402E-002
  7.596607525458743E-002  7.490995961490907E-002  7.212830849115569E-002
  6.693819323762193E-002  5.953092476525729E-002  5.187396894964178E-002
  4.611563140417302E-002  4.270968124605439E-002  4.096941905413604E-002
  7.943519189827786E-002  7.842230049250438E-002  7.575478109603065E-002
  7.079147798331548E-002  6.372441384832202E-002  5.643107638799900E-002
  5.095121533800097E-002  4.771150557047624E-002  4.605657470637333E-002
  8.278008639757152E-002  8.181780770375716E-002  7.928321252873995E-002
  7.458303168671085E-002  6.790851635861014E-002  6.103359446415420E-002
  5.587380085650194E-002  5.282493180078233E-002  5.126795250300659E-002
  8.596136528364558E-002  8.505998276635941E-002  8.268574810536373E-002
  7.829834332816502E-002  7.208592410867999E-002  6.570019915821071E-002
  6.091312458167655E-002  5.808627328887518E-002  5.664294591285882E-002
  8.899445540897494E-002  8.816300792918585E-002  8.597300861444894E-002
  8.194279797725730E-002  7.625520992452782E-002  7.042330662014026E-002
  6.605746719979268E-002  6.348106157744121E-002  6.216607568292943E-002
  9.187112961480311E-002  9.112001359332818E-002  8.914144383505036E-002
  8.551673051990366E-002  8.042058101900390E-002  7.520931236199030E-002
  7.131422975499900E-002  6.901744086408702E-002  6.784567377302743E-002
  1.110940606260898E-003  2.896274882360272E-002  0.150179666293256     
  0.345860872434984       0.536054550133464       0.656887757464710     
  0.710448110066333       0.725629277690542       1.523839067556463E-002
  6.238811286756034E-002  0.219855131324948       0.461399675561190     
  0.690288637111631       0.828878677386480       0.887377173696485     
  0.903962237814848       2.650760192733073E-002  8.459413395590545E-002
  0.251786537840666       0.498464526577842       0.728309169293658     
  0.865291036953519       0.922142413831119       0.938334676987367     
  2.655494772272921E-002  8.417685810849673E-002  0.253089867314913     
  0.504679624744612       0.739938998333959       0.879072411103882     
  0.936042429250013       0.952205184995558       1.505508505703848E-002
  6.341488404775296E-002  0.235289240712878       0.499283469156099     
  0.748515656165818       0.896923635039264       0.958430299852684     
  0.976138358932857       4.793907854637750E-003  4.419934637159792E-002
  0.215735561107290       0.487136242282063       0.746087069753207     
  0.900973075177768       0.965393509246163       0.984029016978876     
 -4.129211528836604E-003  2.693964130218594E-002  0.195340143043751     
  0.468637623123295       0.731600377689228       0.889259498968166     
  0.954864955482004       0.973879493832303      -1.134303330714642E-002
  1.253044924763547E-002  0.175956818743544       0.446729559646992     
  0.708819163387602       0.866081307214238       0.931475431619075     
  0.950436069915620      -1.599390436777557E-002  2.690844596322449E-003
  0.160205515370467       0.424970014225019       0.682242804308541     
  0.836719613911505       0.900957888824518       0.919590808969075     
 -1.781350557400978E-002 -2.037642044794485E-003  0.149046681133691     
  0.404780654943471       0.653766521481883       0.803374247578232     
  0.865607459966344       0.883678197787269      -1.682394674240070E-002
 -1.697290653503521E-003  0.142455404637462       0.386307299671315     
  0.623794279538440       0.766674035188764       0.826208045766985     
  0.843529063270927      -1.384619258559409E-002  2.043196914485368E-003
  0.137907732441295       0.366443523158304       0.589245365797764     
  0.723969973158127       0.780461024263698       0.796971101443570     
 -1.012552943318509E-002  6.369382122877361E-003  0.130520546293888     
  0.337656464279025       0.540736782432747       0.665874997245238     
  0.719609651456908       0.735572783029271      -1.004132846437427E-002
  9.194690920053075E-004  0.100386026911204       0.264995196226552     
  0.428194867822957       0.536034592746451       0.587341172353128     
  0.603583535753603     
 Zone I=  361 J=   15 K=1  T="NearWake"
 DATAPACKING=BLOCK
 VARLOCATION=([4]=CELLCENTERED)
  -1.30496063069111       -1.30707228923958       -1.30824548143580     
  -1.30956217696936       -1.31091472141536       -1.31224020931606     
  -1.31348907888821       -1.31461955011076       -1.31559234416167     
  -1.31637277075328       -1.31692997415077       -1.31723483924410     
  -1.31726165925541       -1.31698759157638       -1.31639305373496     
  -1.31546142485644       -1.31417929701474       -1.31253669492670     
  -1.31052696263667       -1.30814690523986       -1.30539677079853     
  -1.30227990300207       -1.29880271810863       -1.29497418011560     
  -1.29080553981702       -1.28630992473948       -1.28150212080478     
  -1.27639841417678       -1.27101652399951       -1.26537556037551     
  -1.25949617184844       -1.25340062591407       -1.24711270454143     
  -1.24065750442148       -1.23406120954915       -1.22735076821796     
  -1.22055359355440       -1.21369714289466       -1.20680980594609     
  -1.19991957444908       -1.19305286453473       -1.18626331973119     
  -1.17942641729416       -1.17278369823827       -1.16626956151107     
  -1.15991286351482       -1.15374083145095       -1.14777985888495     
  -1.14205571141675       -1.13659320611168       -1.13141580580270     
  -1.12654521071101       -1.12200096301565       -1.11780010318090     
  -1.11395686043767       -1.11048225020898       -1.10738361438393     
  -1.10466434767653       -1.10232389476779       -1.10035791255114     
  -1.09875849666165       -1.09751442606116       -1.09661141358009     
  -1.09603237126867       -1.09575769938440       -1.09576559126536     
  -1.09603233180209       -1.09653256162130       -1.09723947760326     
  -1.09812493855418       -1.09915944320279       -1.10031195241914     
  -1.10154955661332       -1.10283706401186       -1.10413668343796     
  -1.10540801531114       -1.10660848742827       -1.10769421966470     
  -1.10862117767136       -1.10934643933829       -1.10982942874254     
  -1.11003301734643       -1.10992442113070       -1.10947584194465     
  -1.10866482689582       -1.10747435149474       -1.10589266091751     
  -1.10391292277806       -1.10153275347747       -1.09875367817934     
  -1.09558057153869       -1.09202111018781       -1.08808525781031     
  -1.08378480485724       -1.07913300108693       -1.07414434625993     
  -1.06883462883190       -1.06322130338767       -1.05732424288698     
  -1.05116676890603       -1.04477667694745       -1.03818682157433     
  -1.03143482183488       -1.02456165515102       -1.01760928051667     
  -1.01061781431754       -1.00362296583397      -0.996654326526916     
 -0.989734795380500      -0.982881068712335      -0.976104882649911     
 -0.969414628619084      -0.962816994837897      -0.956318381804083     
 -0.949926026094094      -0.943648950958772      -0.937498774908635     
 -0.931490122502536      -0.925640443861375      -0.919969463366398     
 -0.914498601268325      -0.909250464442274      -0.904248344445294     
 -0.899515657302395      -0.895075256442455      -0.890948583183576     
 -0.887154702845907      -0.883709356724410      -0.880624203119321     
 -0.877906352743861      -0.875558142275943      -0.873577010559983     
 -0.871955415831218      -0.870680830669761      -0.869735891510137     
 -0.869098819214703      -0.868744258061929      -0.868644609808379     
 -0.868771792764922      -0.869099234145592      -0.869603790856312     
 -0.870267099342265      -0.871075654402993      -0.872019030329789     
 -0.873086334436445      -0.874261939053523      -0.875522007050779     
 -0.876832913114220      -0.878151771435608      -0.879428544096984     
 -0.880608908919414      -0.881637124469551      -0.882458346219799     
 -0.883020102501120      -0.883272900322356      -0.883170178852851     
 -0.882668015017625      -0.881725056084207      -0.880303070356263     
 -0.878368268181037      -0.875893209704495      -0.872858794521037     
 -0.869255630499920      -0.865084060551159      -0.860352319160041     
 -0.855072782801010      -0.849257132591453      -0.842912420494894     
 -0.836041404630459      -0.828651468930178      -0.820774821876984     
 -0.812494925559972      -0.803962152355801      -0.795380087071905     
 -0.786962079602013      -0.778880331165545      -0.771234505476903     
 -0.764049684143384      -0.757294097616884      -0.750902434444549     
 -0.744796480077570      -0.738900617594642      -0.733151899885626     
 -0.727504792217084      -0.721931394927054      -0.716419128203775     
 -0.710967749612443      -0.705586062468363      -0.700288016378417     
 -0.695088755784763      -0.690001916717485      -0.685039089949304     
 -0.680211065268530      -0.675529376653939      -0.671007283046682     
 -0.666660610610102      -0.662508998477177      -0.658576916786823     
 -0.654892826678677      -0.651486003502422      -0.648382677020764     
 -0.645603331707699      -0.643161159177379      -0.641060537163079     
 -0.639295072299938      -0.637845599453476      -0.636679050915481     
 -0.635748862835885      -0.634996809535907      -0.634356706497603     
 -0.633762099194902      -0.633160094773845      -0.632530271236528     
 -0.631901994331822      -0.631358846191162      -0.631021431423196     
 -0.631012298597830      -0.631419785746759      -0.632278213975951     
 -0.633569920374914      -0.635241727367415      -0.637223891141588     
 -0.639443157842625      -0.641827480034634      -0.644304042488195     
 -0.646793832812181      -0.649205888196717      -0.651433599156313     
 -0.653354716385153      -0.654835867280603      -0.655740827624859     
 -0.655939611406460      -0.655314511483022      -0.653761303511460     
 -0.651187218004486      -0.647508151583701      -0.642644836998831     
 -0.636514658946724      -0.629017235212333      -0.620020876676717     
 -0.609375629081878      -0.597000442178606      -0.583056192995855     
 -0.568043914956790      -0.552715223612605      -0.537988142603669     
 -0.524676921503198      -0.513138842101330      -0.503302907196083     
 -0.494890505078141      -0.487587461852281      -0.481136333309173     
 -0.475387767618052      -0.470329977279432      -0.466090663029368     
 -0.462899947651758      -0.461006854665077      -0.460560711053317     
 -0.461500756429327      -0.463532454118777      -0.466277769028324     
 -0.469622854657944      -0.473977949063335      -0.480183876523684     
 -0.489769213974542      -0.504465291558860      -0.519056911742227     
 -0.520599861124561      -0.514815657992931      -0.509471876115788     
 -0.505717472340148      -0.502801816126827      -0.500014799922411     
 -0.496871924951558      -0.492840355291181      -0.487699714912716     
 -0.481560265798417      -0.474718774319287      -0.467534281200196     
 -0.460288973669962      -0.453176956029401      -0.446338271229536     
 -0.439930126784898      -0.434131400412253      -0.428981704134368     
 -0.424545164405553      -0.420961625267431      -0.418381342464645     
 -0.416891223490057      -0.416473005356452      -0.417017317876736     
 -0.418387055000994      -0.420486826207471      -0.423272846385535     
 -0.426697782160703      -0.430655527983478      -0.434976694962457     
 -0.439490066304449      -0.444082619733267      -0.448628006561568     
 -0.453315119423478      -0.458329643956272      -0.462518165400851     
 -0.463898790695011      -0.461876403115043      -0.457475095809161     
 -0.451983745205254      -0.446364326134946      -0.441237837624240     
 -0.436889216103044      -0.433390809553386      -0.430733439514478     
 -0.428849252477988      -0.427487400584407      -0.426137756300817     
 -0.424179067684668      -0.421142823089281      -0.416969030196574     
 -0.412007871402311      -0.406745549881691      -0.401514623708557     
 -0.396448660407537      -0.391586305507399      -0.386893217345964     
 -0.382183934658270      -0.377036870245955      -0.370852119569668     
 -0.363268907725729      -0.354830890361194      -0.346956719379298     
 -0.340825744082981      -0.336558674564873      -0.333500879750236     
 -0.330701592569291      -0.327294653335614      -0.322489219689817     
 -0.315547625929913      -0.306337849442609      -0.295768746989319     
 -0.284933372764308      -0.273746476145712      -0.261283488787555     
 -0.248307764804123      -0.238371355308025      -0.234084936015096     
 -0.232234708041741      -0.228658728029856      -0.220078201563406     
 -0.206797564243604      -0.193183689827160      -0.181301889185176     
 -0.173147812515746      -0.170429609923972      -0.172370093405288     
 -0.176756903828363      -0.180361894039065      -0.181500718123833     
 -0.184175465455520      -0.192432136535673      -0.207139933606256     
 -0.228731487154618       -1.30314123642198       -1.30618816352344     
  -1.30757519040018       -1.30926488716488       -1.31107614027784     
  -1.31289777378210       -1.31464950553378       -1.31626866151874     
  -1.31770165769034       -1.31890202624702       -1.31982921139905     
  -1.32044714076109       -1.32072408133619       -1.32063243871386     
  -1.32014859685301       -1.31925283305153       -1.31792946423226     
  -1.31616706590187       -1.31395854953380       -1.31130096382440     
  -1.30819561932790       -1.30464797219913       -1.30066707451637     
  -1.29626511184792       -1.29145715039895       -1.28626082326490     
  -1.28069595163855       -1.27478432931031       -1.26854978692181     
  -1.26201821102600       -1.25521737278532       -1.24817685430724     
  -1.24092810097325       -1.23350428631693       -1.22593989055734     
  -1.21826995291260       -1.21052922350533       -1.20275146052225     
  -1.19496986867210       -1.18721619942986       -1.17952188077452     
  -1.17197466248381       -1.16440679304108       -1.15709934755085     
  -1.14995212130222       -1.14300046075663       -1.13627374629255     
  -1.12979905946653       -1.12360243670141       -1.11770881052940     
  -1.11214161026324       -1.10692227920833       -1.10206977816343     
  -1.09760010483662       -1.09352590231248       -1.08985611168487     
  -1.08659550718069       -1.08374441751195       -1.08129902725153     
  -1.07925204180264       -1.07759333550286       -1.07631044374231     
  -1.07538891605323       -1.07481253119655       -1.07456332064910     
  -1.07462136258513       -1.07496438849007       -1.07556733979207     
  -1.07640205929818       -1.07743724177921       -1.07863857788320     
  -1.07996879157805       -1.08138727928732       -1.08284952456962     
  -1.08430696107860       -1.08570781607334       -1.08699883012926     
  -1.08812731620705       -1.08904305707919       -1.08969979459444     
  -1.09005627468740       -1.09007690554299       -1.08973210283115     
  -1.08899839317323       -1.08785835092728       -1.08630043233835     
  -1.08431872678228       -1.08191260173521       -1.07908621536046     
  -1.07584790482282       -1.07220950279574       -1.06818566243665     
  -1.06379327949720       -1.05905109968274       -1.05397959362410     
  -1.04860116008352       -1.04294065569401       -1.03702613344097     
  -1.03088952264889       -1.02456688001258       -1.01809788845956     
  -1.01152450374119       -1.00488895243739      -0.998231507460546     
 -0.991588498958074      -0.984990899139867      -0.978463633809666     
 -0.972025603363261      -0.965690274879973      -0.959466645450657     
 -0.953360376681739      -0.947374945686085      -0.941512710145772     
 -0.935775813546998      -0.930166855323023      -0.924689245477754     
 -0.919347209702148      -0.914145514792168      -0.909089075711820     
 -0.904182714981320      -0.899431434360766      -0.894841280144248     
 -0.890420392103328      -0.886179700123439      -0.882132860076501     
 -0.878295239442285      -0.874682117588988      -0.871306571126835     
 -0.868177730920313      -0.865300013431537      -0.862673313657073     
 -0.860293639430858      -0.858153883448926      -0.856244874020335     
 -0.854556885197869      -0.853081513412116      -0.851813586763242     
 -0.850752661909252      -0.849903674723775      -0.849276367380722     
 -0.848883181210851      -0.848735472682043      -0.848838279625975     
 -0.849184544126776      -0.849750496471033      -0.850494106912963     
 -0.851357386974332      -0.852271477071843      -0.853162427577249     
 -0.853955933932752      -0.854580316845070      -0.854967910151200     
 -0.855055440334408      -0.854784051468446      -0.854099519490003     
 -0.852953009567299      -0.851302491624166      -0.849114653833491     
 -0.846366877188402      -0.843048635767430      -0.839161663581149     
 -0.834718463530405      -0.829739311307309      -0.824248888258117     
 -0.818274831605003      -0.811850814340350      -0.805024819790160     
 -0.797869690948035      -0.790490862933098      -0.783025596444622     
 -0.775628224644455      -0.768442839974526      -0.761577191811393     
 -0.755091573689116      -0.749003360245568      -0.743299739691910     
 -0.737951928006427      -0.732927025318330      -0.728195835219567     
 -0.723736492404720      -0.719534686392637      -0.715581698054862     
 -0.711871546772371      -0.708398281797717      -0.705153712167731     
 -0.702124920981330      -0.699290836409816      -0.696618614836154     
 -0.694061218404573      -0.691555155865886      -0.689018149530252     
 -0.686353828722933      -0.683471441203492      -0.680314396023422     
 -0.676878241010943      -0.673207041325441      -0.669375929820485     
 -0.665472472749974      -0.661582536510384      -0.657780965275897     
 -0.654126091674475      -0.650657481995399      -0.647396047558285     
 -0.644344661052544      -0.641488367297263      -0.638795159882332     
 -0.636218159612715      -0.633698804021533      -0.631171475295352     
 -0.628573039870539      -0.625862119622347      -0.623047778068834     
 -0.620215610048564      -0.617529740187751      -0.615196431204145     
 -0.613402236305234      -0.612262554361380      -0.611806863545517     
 -0.611996843200184      -0.612756513941122      -0.613995872710586     
 -0.615618414375235      -0.617513049047983      -0.619539778443022     
 -0.621520582932329      -0.623242253438217      -0.624470043529212     
 -0.624965689607938      -0.624505483256530      -0.622899995250349     
 -0.620018331690140      -0.615813522307683      -0.610336032855725     
 -0.603718174438331      -0.596124681558820      -0.587694050001512     
 -0.578516962726196      -0.568678037766171      -0.558314147585884     
 -0.547635858636520      -0.536968445439559      -0.526730357446461     
 -0.517228472400342      -0.508526968820385      -0.500510289955705     
 -0.492992521307522      -0.485776684545281      -0.478670676990473     
 -0.471521304859227      -0.464245357368216      -0.456900959269068     
 -0.449703705943424      -0.442974931362019      -0.437052483524716     
 -0.432240837278686      -0.428809476757478      -0.427000905600680     
 -0.427024135824045      -0.429039224467289      -0.433130964273343     
 -0.439192868464445      -0.446662555715668      -0.454714070901066     
 -0.462744269917069      -0.470989280560222      -0.481274206937232     
 -0.497612604001605      -0.518055595255571      -0.520862879840041     
 -0.514759393836658      -0.510986266893850      -0.508743133380715     
 -0.506573538128786      -0.503792410399085      -0.499891979647741     
 -0.494967612300876      -0.489490948025875      -0.483852084160023     
 -0.478270847735650      -0.472854598906402      -0.467542375811031     
 -0.462139494114574      -0.456476508650353      -0.450613495392954     
 -0.444917300910605      -0.439904133759236      -0.436024856676220     
 -0.433551715382518      -0.432539793445784      -0.432817953805801     
 -0.434113265513579      -0.436148733028098      -0.438674541564655     
 -0.441541564088079      -0.444728346738665      -0.448433471799122     
 -0.452976336628237      -0.458672233943022      -0.464913229045584     
 -0.469726538969103      -0.471067818840851      -0.468496743934642     
 -0.463297704476884      -0.457192959542201      -0.451032178357630     
 -0.445239421682466      -0.440473044936473      -0.437289219875351     
 -0.435592602321280      -0.434976175741443      -0.435030034517048     
 -0.435320548564386      -0.435458093928406      -0.435156837800608     
 -0.434289437656560      -0.432890893998075      -0.431095663118679     
 -0.429081482864363      -0.427041290490499      -0.425164882772627     
 -0.423610164906664      -0.422468894756289      -0.421753546932561     
 -0.421359108115991      -0.421025152506314      -0.420340108694497     
 -0.418808034009870      -0.416057032081830      -0.412051349129707     
 -0.407434792446397      -0.403379394402614      -0.400465799646703     
 -0.399256810742950      -0.398762672857722      -0.397925053464596     
 -0.396217283787132      -0.393119842533362      -0.388031180411251     
 -0.379949025073160      -0.367120136754547      -0.347354483275427     
 -0.320078664685515      -0.289899892533397      -0.266482411844301     