 Title = "Wing and Wake"
 VARIABLES = "X" "Y" "Z" "GAM"
 Zone I=    9 J=   15 K=1  T="Blade"
 DATAPACKING=BLOCK
 VARLOCATION=([4]=CELLCENTERED)
  -1.52899045481414       -1.52844146013619       -1.52699656775223     
  -1.52401686014678       -1.51943955449476       -1.51446781594338     
  -1.51062785852291       -1.50832636450856       -1.50714331039085     
  -1.52807238843678       -1.52737920084844       -1.52555462423028     
  -1.52182282721311       -1.51612190284231       -1.50995135220109     
  -1.50519422636704       -1.50234557349788       -1.50088181184044     
  -1.52635191160501       -1.52552319202594       -1.52334151621767     
  -1.51900173057360       -1.51249978455828       -1.50555077660615     
  -1.50022901216320       -1.49705252968296       -1.49542276771371     
  -1.52413341882671       -1.52317677394609       -1.52065749675378     
  -1.51580408975278       -1.50870254591263       -1.50123205333620     
  -1.49555962434748       -1.49218815888249       -1.49046169556424     
  -1.52113684516683       -1.52015333909589       -1.51756345108300     
  -1.51255521864793       -1.50520633687389       -1.49746078083969     
  -1.49157321376561       -1.48807201795932       -1.48627870429636     
  -1.51761796055138       -1.51663274450147       -1.51403852100266     
  -1.50901545385288       -1.50163763474347       -1.49385645109125     
  -1.48793970074117       -1.48442069594088       -1.48261802398404     
  -1.51372499231922       -1.51275627706957       -1.51020547920549     
  -1.50526808415614       -1.49801792396957       -1.49037257021977     
  -1.48455959427187       -1.48110236938955       -1.47933147125770     
  -1.50961732149150       -1.50867495871551       -1.50619381341514     
  -1.50139870272370       -1.49436572827981       -1.48695532158657     
  -1.48132357324977       -1.47797482792240       -1.47625957715766     
  -1.50541999957291       -1.50450715547637       -1.50210371014279     
  -1.49747203437256       -1.49069315838224       -1.48356101538504     
  -1.47814507771115       -1.47492589999532       -1.47327733414848     
  -1.50114980967266       -1.50026942647780       -1.49795107574862     
  -1.49350061900132       -1.48700602437154       -1.48018685360553     
  -1.47501410557319       -1.47194123456152       -1.47036800309023     
  -1.49679621897860       -1.49595221856327       -1.49372995307860     
  -1.48948318852922       -1.48330792546403       -1.47683974708105     
  -1.47193972581250       -1.46903082866372       -1.46754202885652     
  -1.49234764213816       -1.49154545345414       -1.48943291118188     
  -1.48541704243201       -1.47960097555589       -1.47352612030142     
  -1.46893123124727       -1.46620552198779       -1.46481104076920     
  -1.48776281823235       -1.48701088878568       -1.48503063814563     
  -1.48128674030347       -1.47588777336846       -1.47026536185285     
  -1.46601969426918       -1.46350331088293       -1.46221629974724     
  -1.48307026358605       -1.48237499913734       -1.48054396795454     
  -1.47710400786122       -1.47216768669748       -1.46704500902756     
  -1.46318419510926       -1.46089804458220       -1.45972933343504     
  -1.47825854389556       -1.47762794269657       -1.47596709083367     
  -1.47286799543403       -1.46844506460157       -1.46387285652455     
  -1.46043443761162       -1.45840061721349       -1.45736148819776     
  0.456271136246381       0.455942967918860       0.455077622754234     
  0.453737758842753       0.452140319561336       0.450721722612866     
  0.449752779546822       0.449208933316919       0.448938019161394     
  0.472872643443168       0.472470461956634       0.471410165310309     
  0.469701740492383       0.467572733504207       0.465600508549735     
  0.464213514262505       0.463421874438765       0.463024241820134     
  0.489270144261244       0.488815770500836       0.487618118564951     
  0.485624072725334       0.483053859752270       0.480600720274267     
  0.478841608071100       0.477826731699810       0.477314282919066     
  0.505491290856637       0.504994540800473       0.503685321893837     
  0.501455966195611       0.498518868214801       0.495663478846233     
  0.493592204858254       0.492389798842378       0.491780866179199     
  0.521376265853159       0.520846955479349       0.519451992122779     
  0.517062399987406       0.513896285318628       0.510803944394762     
  0.508554375306065       0.507246456075975       0.506583621038209     
  0.536995114976157       0.536451302948269       0.535018272749749     
  0.532552136506300       0.529270521635121       0.526054164207283     
  0.523709342508670       0.522344579530760       0.521652501770741     
  0.552415874668924       0.551870865570534       0.550434620382665     
  0.547953708869025       0.544640970164801       0.541384972602354     
  0.539007214363940       0.537621998581456       0.536919283994978     
  0.567707273706703       0.567169378627292       0.565752012951338     
  0.563296103110174       0.560007271613969       0.556767280594230     
  0.554397970253355       0.553016619298493       0.552315614812730     
  0.582917545566485       0.582391723798133       0.581006165995509     
  0.578599336044909       0.575368716377101       0.572180233590947     
  0.569845980314764       0.568484295518140       0.567793072808480     
  0.598059080014238       0.597549470000684       0.596206630513958     
  0.593869230652454       0.590725928727235       0.587619017745265     
  0.585342394863232       0.584013715010441       0.583339080277730     
  0.613133022644892       0.612643797031878       0.611354757313697     
  0.609107103537806       0.606079814845199       0.603083855197725     
  0.600886923009087       0.599604244865573       0.598952867502608     
  0.628135483065587       0.627671190721021       0.626447750466333     
  0.624311492651121       0.621430554377846       0.618576498887836     
  0.616482377954281       0.615259313921748       0.614638136937439     
  0.643058800025120       0.642624571251152       0.641480377063673     
  0.639479901245358       0.636778968173519       0.634100813643218     
  0.632134642445282       0.630986036197954       0.630402549833439     
  0.657889301354531       0.657491018897630       0.656441598491862     
  0.654605155534290       0.652123594182376       0.649661391170578     
  0.647853062268786       0.646796391035981       0.646259590421030     
  0.672629227113213       0.672272807921855       0.671333586406266     
  0.669688982547084       0.667465372787268       0.665258043186274     
  0.663636491484753       0.662688822071625       0.662207394517878     
  1.598017111410122E-002  1.669651087455104E-002  1.858772931641066E-002
  2.089298291953734E-002  2.278150650165153E-002  2.369762977636292E-002
  2.395071188514624E-002  2.397007551378561E-002  2.394902973285626E-002
  1.798951234489994E-002  1.885031378498563E-002  2.112214783620109E-002
  2.411819558016782E-002  2.697039964767892E-002  2.886622964086449E-002
  2.984908898798245E-002  3.029806264031430E-002  3.049596079798953E-002
  2.005685417985345E-002  2.099112238820038E-002  2.345594997002002E-002
  2.696623648296780E-002  3.072872284400961E-002  3.369618658813334E-002
  3.553988746421007E-002  3.651443448909472E-002  3.698483885843361E-002
  2.233920070116860E-002  2.331811268601778E-002  2.589980260791461E-002
  2.982306656836942E-002  3.439829196474034E-002  3.837087837906827E-002
  4.103992905761549E-002  4.252345545149463E-002  4.325876463304520E-002
  2.517436518331728E-002  2.624751804130507E-002  2.907748752603593E-002
  3.344553785001356E-002  3.863460807456931E-002  4.322623385327438E-002
  4.635423136020884E-002  4.810733234519580E-002  4.897987244682648E-002
  2.852573968584029E-002  2.964946900081079E-002  3.261233024264395E-002
  3.724246410436957E-002  4.282150339675898E-002  4.782802880136867E-002
  5.127316945690778E-002  5.321520140300726E-002  5.418477024022907E-002
  3.227330209243857E-002  3.341517060841220E-002  3.642600109134540E-002
  4.118101502593181E-002  4.697880089871655E-002  5.224147352141954E-002
  5.589182067733754E-002  5.795904768931859E-002  5.899342772903192E-002
  3.630505126227907E-002  3.744351715196783E-002  4.044508025126768E-002
  4.522981451336534E-002  5.112409581910653E-002  5.652650373158127E-002
  6.029861987369346E-002  6.244301053817213E-002  6.351795085511822E-002
  4.055254310962342E-002  4.167247625198054E-002  4.462515597624306E-002
  4.937099961129240E-002  5.526971362791709E-002  6.072087425661445E-002
  6.454834218269656E-002  6.673091879040836E-002  6.782673130370118E-002
  4.498504180937143E-002  4.607406817466563E-002  4.894493821864216E-002
  5.359382630482076E-002  5.941790889452635E-002  6.483912084613101E-002
  6.866395326166271E-002  7.085092099677245E-002  7.195045249935228E-002
  4.959036386938704E-002  5.063680878838608E-002  5.339534691039236E-002
  5.789327179369611E-002  6.356921498380359E-002  6.888700900451739E-002
  7.265486953487528E-002  7.481443900308163E-002  7.590140273526645E-002
  5.437235954275055E-002  5.536446358165129E-002  5.797979288044668E-002
  6.227193214784660E-002  6.772437967241404E-002  7.286326079062783E-002
  7.651841716152566E-002  7.861788891773538E-002  7.967567935783017E-002
  5.932388447534253E-002  6.025033570940431E-002  6.269244874198608E-002
  6.672580610376565E-002  7.188263951062443E-002  7.677028365796036E-002
  8.025957005053602E-002  8.226763848611857E-002  8.328042672116795E-002
  6.451752131668650E-002  6.536259589380133E-002  6.759000544742140E-002
  7.129008036827819E-002  7.604832609492372E-002  8.058076996756991E-002
  8.382687337184599E-002  8.569839810141175E-002  8.664300977522220E-002
  6.993640475229591E-002  7.068559241094380E-002  7.266056255860720E-002
  7.595861121051083E-002  8.022247931438531E-002  8.430269889339846E-002
  8.723334297081681E-002  8.892565439357739E-002  8.978039863553840E-002
  3.387085730894716E-002  0.108074870786188       0.313058587325179     
  0.617441562494979       0.904212248930404        1.08572824217251     
   1.16683606548079        1.18995097909786       5.598117267748614E-002
  0.158601431897850       0.411344625236026       0.773406663308258     
   1.10598429440880        1.30382870331390        1.38648636464782     
   1.40983188437445       6.779603003865745E-002  0.180035638908746     
  0.436295871042862       0.792416654534025        1.11410764975498     
   1.30143654867416        1.37771462825626        1.39922609951576     
  6.324590147078951E-002  0.168663918025769       0.416520786428958     
  0.764989582416030        1.08142247651193        1.26490453855799     
   1.33886747669439        1.35966900055234       4.439527868268302E-002
  0.132408516953297       0.374484083901665       0.726747466502799     
   1.05085097390122        1.24071494874873        1.31843955684488     
   1.34065378996087       2.805214245857852E-002  0.100130115776000     
  0.333606691480461       0.684921385115513        1.01268787413955     
   1.20615883439425        1.28587525025631        1.30880044699161     
  1.420775248279946E-002  7.211718325396711E-002  0.294874484660401     
  0.639940647077231       0.965506457580977        1.15857691491630     
   1.23832001971017        1.26131941517024       3.156975721005058E-003
  4.915361134472865E-002  0.260186188416867       0.595043042415953     
  0.913596267086548        1.10298701274398        1.18126081465021     
   1.20386277091152      -4.234997010619581E-003  3.299871757819794E-002
  0.232315357004554       0.554115618481550       0.861992400399733     
   1.04539201494524        1.12126490734381        1.14319507493189     
 -7.774066559658122E-003  2.404208260773029E-002  0.212056564222283     
  0.518458025101532       0.812572327517086       0.988073286913187     
   1.06075824799669        1.08180034848089      -7.630790182254001E-003
  2.193338143090569E-002  0.198935822385021       0.487696010659607     
  0.765248268092307       0.931256650440260        1.00020158961523     
   1.02021687380086      -5.088853358044025E-003  2.405265183070660E-002
  0.188992333262590       0.456867780347464       0.714830656388119     
  0.870105401440497       0.935106666667722       0.954085660395956     
 -2.227772546366905E-003  2.581928700171538E-002  0.174553039902764     
  0.414554387788677       0.647134363142110       0.789916932314470     
  0.851179785871914       0.869368625641292      -4.334332345433773E-003
  1.483417256398776E-002  0.132125814228574       0.320118780584339     
  0.504353481370434       0.625663779284569       0.683375047896365     
  0.701639120132894     
 Zone I=  361 J=   15 K=1  T="NearWake"
 DATAPACKING=BLOCK
 VARLOCATION=([4]=CELLCENTERED)
  -1.50675276647838       -1.50089372453719       -1.49429173796399     
  -1.48801954555171       -1.48206857681114       -1.47644002329579     
  -1.47114355936289       -1.46619084653077       -1.46159344433800     
  -1.45736186831011       -1.45350495793857       -1.45002932236739     
  -1.44693897363430       -1.44423507433399       -1.44191576307789     
  -1.43997605532034       -1.43840784518486       -1.43719998195993     
  -1.43633839919448       -1.43580627801402       -1.43558421078579     
  -1.43565034319807       -1.43598065761493       -1.43654925310635     
  -1.43732855964187       -1.43828947494847       -1.43940145423760     
  -1.44063265861481       -1.44195014124709       -1.44331999053778     
  -1.44470751082822       -1.44607747877089       -1.44739443536304     
  -1.44862299205535       -1.44972818875670       -1.45067593261094     
  -1.45143347107138       -1.45196987893810       -1.45225648931553     
  -1.45226728028766       -1.45197920028009       -1.45137240540284     
  -1.45043033154673       -1.44913982902116       -1.44749125613588     
  -1.44547843949393       -1.44309854454375       -1.44035179982015     
  -1.43724126122567       -1.43377303282965       -1.42995514360222     
  -1.42579745207972       -1.42131144972884       -1.41651076880285     
  -1.41141072770975       -1.40602828439980       -1.40038209709135     
  -1.39449259643508       -1.38838212392884       -1.38207488645356     
  -1.37559671816789       -1.36897498742582       -1.36223803240647     
  -1.35541455561648       -1.34853303347151       -1.34162113827055     
  -1.33470525765572       -1.32781026221637       -1.32095978089098     
  -1.31417655116253       -1.30748276676699       -1.30090054746052     
  -1.29445220531327       -1.28816026244872       -1.28204756349062     
  -1.27613745736571       -1.27045373449682       -1.26502022224895     
  -1.25986021449143       -1.25499596378103       -1.25044816642134     
  -1.24623546147350       -1.24237371221576       -1.23887534719204     
  -1.23574868148037       -1.23299748149296       -1.23062097217493     
  -1.22861404972698       -1.22696760382222       -1.22566901082363     
  -1.22470257597275       -1.22404994222443       -1.22369062032072     
  -1.22360271431283       -1.22376359637195       -1.22415028266798     
  -1.22473959441692       -1.22550794068092       -1.22643093593287     
  -1.22748287946821       -1.22863578823767       -1.22985834230785     
  -1.23111534808627       -1.23236727171076       -1.23356991930068     
  -1.23467517802139       -1.23563506262216       -1.23640495153162     
  -1.23693546796725       -1.23718238171041       -1.23710784314843     
  -1.23667524896960       -1.23585404220742       -1.23461920301006     
  -1.23295273059832       -1.23084240135406       -1.22828137441413     
  -1.22526820310250       -1.22180541110665       -1.21790055584426     
  -1.21356532260815       -1.20881312617651       -1.20366075708030     
  -1.19812580827357       -1.19222647360346       -1.18598191931228     
  -1.17941544277596       -1.17255921395542       -1.16545913012306     
  -1.15817535179417       -1.15077918493418       -1.14334562565809     
  -1.13594350772454       -1.12862736858310       -1.12143386301195     
  -1.11438224786376       -1.10747778503910       -1.10071591772428     
  -1.09409162863444       -1.08759953793836       -1.08123665047734     
  -1.07506442590148       -1.06872236038369       -1.06273212832286     
  -1.05687253468869       -1.05116183556022       -1.04561766846989     
  -1.04025726782346       -1.03509767080525       -1.03015584000814     
  -1.02544886124610       -1.02099422870776       -1.01681005900606     
  -1.01291455722921       -1.00932441087169       -1.00605309657382     
  -1.00311016900573       -1.00050138633297      -0.998228766772144     
 -0.996290158549505      -0.994678537429072      -0.993381277185264     
 -0.992379585104267      -0.991648416958832      -0.991157298639711     
 -0.990872445640036      -0.990760354832289      -0.990792661843538     
 -0.990951448042751      -0.991233263221419      -0.991649431633286     
 -0.992220964249205      -0.992969005999358      -0.993904450329683     
 -0.995020824312950      -0.996292508386553      -0.997677610840705     
 -0.999123203985918       -1.00057060116733       -1.00195921034587     
  -1.00322840571158       -1.00431748085871       -1.00516417589149     
  -1.00570265749827       -1.00586214104968       -1.00556734368146     
  -1.00474141884836       -1.00331103848337       -1.00121239564918     
 -0.998396657062200      -0.994833720474206      -0.990513333925810     
 -0.985442358076582      -0.979636913288017      -0.973109539461132     
 -0.965854716187372      -0.957840566734939      -0.949019155719562     
 -0.939368882039675      -0.928970777085393      -0.918085908030298     
 -0.907159076995158      -0.896689986999977      -0.887042838665307     
 -0.878357242799070      -0.870593262798916      -0.863616196328368     
 -0.857258558012389      -0.851355032929863      -0.845761751264382     
 -0.840366787431778      -0.835093821432709      -0.829899847448500     
 -0.824768957610388      -0.819705486257012      -0.814728523235140     
 -0.809867003552119      -0.805155018846057      -0.800628023465576     
 -0.796319520689484      -0.792257944145763      -0.788464327305940     
 -0.784951180185467      -0.781722463478654      -0.778773810265707     
 -0.776092294430267      -0.773656517092425      -0.771438429930347     
 -0.769407625489597      -0.767537054094899      -0.765806903141120     
 -0.764204213008082      -0.762718927642087      -0.761337785221545     
 -0.760037171102990      -0.758777554090416      -0.757503248867349     
 -0.756150318700613      -0.754663445692385      -0.753019181259338     
 -0.751249056471809      -0.749453539868920      -0.747796492436271     
 -0.746473248178298      -0.745659467502383      -0.745465809895867     
 -0.745923551913292      -0.747002696826116      -0.748644623669902     
 -0.750790426461394      -0.753392568756189      -0.756408161456082     
 -0.759782911009097      -0.763435944342299      -0.767250359781716     
 -0.771070477372263      -0.774706257754130      -0.777945460898343     
 -0.780571084212529      -0.782377685497473      -0.783181386383074     
 -0.782823889955607      -0.781175497387335      -0.778143880272156     
 -0.773691756706940      -0.767850911135721      -0.760699821032215     
 -0.752281095096979      -0.742479356511814      -0.730911632865747     
 -0.716900312327052      -0.699748425613725      -0.680151301833983     
 -0.661668526595430      -0.646517021621481      -0.634392155477193     
 -0.624604854159926      -0.616683827732251      -0.610329350293989     
 -0.605293248282412      -0.601303019248497      -0.598046530702103     
 -0.595191911416974      -0.592413526981438      -0.589423796722693     
 -0.586018274868665      -0.582104956107414      -0.577691400426645     
 -0.572850360147591      -0.567693430594346      -0.562368854715864     
 -0.557070561227388      -0.552025320557049      -0.547446388407554     
 -0.543482139857932      -0.540192212468437      -0.537553801778843     
 -0.535481772879935      -0.533849666677042      -0.532508967371605     
 -0.531309263210885      -0.530118604922015      -0.528837422413730     
 -0.527400445123056      -0.525768404592235      -0.523914645079819     
 -0.521811584260733      -0.519426184922567      -0.516734141030566     
 -0.513739390675138      -0.510467068396695      -0.506947744672670     
 -0.503244724182213      -0.499498748446231      -0.495953329182596     
 -0.492936041027110      -0.490767683312355      -0.489654735625617     
 -0.489654012790308      -0.490711829681998      -0.492742788679738     
 -0.495696619481096      -0.499545849633820      -0.504238227309450     
 -0.509689843671671      -0.515807701423512      -0.522507670162346     
 -0.529701861915954      -0.537253527419113      -0.544930206303021     
 -0.552367344445411      -0.559081075162475      -0.564556116097972     
 -0.568349844252164      -0.570128306117520      -0.569635497682868     
 -0.566655879260074      -0.561015977639917      -0.552640779432310     
 -0.541552036162448      -0.527587145915369      -0.509890786348042     
 -0.486130771955920      -0.453511530372725      -0.421400512781957     
 -0.400055025803077      -0.385329913309285      -0.374766643321569     
 -0.367161492368510      -0.361573498504258      -0.357360477105390     
 -0.354152899853109      -0.351752454674490      -0.350112274007864     
 -0.349372204030539      -0.349833922985791      -0.351844585568463     
 -0.355593400889931      -0.360912904261449      -0.367193348997164     
 -0.373623860720283       -1.50049126792797       -1.49386519070483     
  -1.48620452762535       -1.47898943246384       -1.47219513928808     
  -1.46580607362371       -1.45982606973152       -1.45426537335661     
  -1.44913580130083       -1.44444864586237       -1.44021351317176     
  -1.43643749924517       -1.43312467696074       -1.43027577887803     
  -1.42788801227496       -1.42595496138350       -1.42446660468993     
  -1.42340940253138       -1.42276634068452       -1.42251696729486     
  -1.42263769598037       -1.42310195277319       -1.42388042134106     
  -1.42494131001416       -1.42625055069012       -1.42777193086685     
  -1.42946721369570       -1.43129637144150       -1.43321794123223     
  -1.43518940573346       -1.43716757086698       -1.43910892454511     
  -1.44096998766941       -1.44270772833771       -1.44428009531396     
  -1.44564664564825       -1.44676916910939       -1.44761224593523     
  -1.44814367559097       -1.44833477804739       -1.44816060400388     
  -1.44760007189555       -1.44663598707573       -1.44525508429778     
  -1.44344810226446       -1.44120977030145       -1.43853875840899     
  -1.43543783168363       -1.43191372933966       -1.42797621264799     
  -1.42363752350523       -1.41891278289327       -1.41381952544564     
  -1.40837724918749       -1.40260690304335       -1.39653089111137     
  -1.39017323249337       -1.38355976626573       -1.37671842084690     
  -1.36967926802840       -1.36247415940363       -1.35513632703959     
  -1.34769965123693       -1.34019790044100       -1.33266404696321     
  -1.32512964689128       -1.31762430229643       -1.31017527762219     
  -1.30280757816455       -1.29554427672377       -1.28840704573007     
  -1.28141694115517       -1.27459499475755       -1.26796240188323     
  -1.26154061837061       -1.25535150739367       -1.24941730722402     
  -1.24376018116664       -1.23840153436143       -1.23336138681770     
  -1.22865786683473       -1.22430679140932       -1.22032097078043     
  -1.21670937385919       -1.21347630614047       -1.21062121302997     
  -1.20813926736382       -1.20602219899833       -1.20425920422463     
  -1.20283789071957       -1.20174490155293       -1.20096630514030     
  -1.20048789059890       -1.20029504491598       -1.20037227503949     
  -1.20070239261461       -1.20126570179263       -1.20203920952539     
  -1.20299585889273       -1.20410349166339       -1.20532337926904     
  -1.20660928689511       -1.20790821240661       -1.20916230228525     
  -1.21031114382472       -1.21129424045864       -1.21205561430835     
  -1.21254668576602       -1.21272060497671       -1.21253860708180     
  -1.21197021816780       -1.21098866480473       -1.20957344740081     
  -1.20770969912948       -1.20538916984891       -1.20260943925163     
  -1.19937354686472       -1.19568975681009       -1.19157005700201     
  -1.18703051842284       -1.18209055148600       -1.17677177017354     
  -1.17110092562181       -1.16511038259464       -1.15884038787337     
  -1.15234040628873       -1.14566934544085       -1.13889316523562     
  -1.13208048488385       -1.12529573205692       -1.11859370293789     
  -1.11201689391822       -1.10559497909886       -1.09934569557616     
  -1.09327701562609       -1.08738983686233       -1.08168101814071     
  -1.07614545332691       -1.07078206210274       -1.06558510934680     
  -1.06054182182785       -1.05569780852597       -1.05079026353777     
  -1.04622952711523       -1.04181359208614       -1.03754148367473     
  -1.03340525659397       -1.02939115640792       -1.02548264314809     
  -1.02166438901283       -1.01792652353162       -1.01426813642256     
  -1.01069899225802       -1.00723839125556       -1.00391057757267     
  -1.00073812780678      -0.997737139617561      -0.994916303162663     
 -0.992277915055263      -0.989818696523938      -0.987530243423314     
 -0.985399758043109      -0.983411577803737      -0.981549848444933     
 -0.979802561607616      -0.978166788720350      -0.976654049352280     
 -0.975293541620022      -0.974130433125857      -0.973217750571755     
 -0.972603433370351      -0.972316894985910      -0.972359986463433     
 -0.972705194162944      -0.973300475084933      -0.974077446190719     
 -0.974959121148221      -0.975864697125482      -0.976710832146198     
 -0.977410498641809      -0.977871362158424      -0.977995545341416     
 -0.977681834072661      -0.976830447235625      -0.975349882220617     
 -0.973164976001489      -0.970224828832786      -0.966508619493629     
 -0.962027007498026      -0.956817264607227      -0.950931933571200     
 -0.944423738422480      -0.937332541961293      -0.929681369549084     
 -0.921488499103370      -0.912804352160392      -0.903775695583496     
 -0.894686692866014      -0.885880852886398      -0.877617206917360     
 -0.870013695685929      -0.863078607662187      -0.856758369787132     
 -0.850972748030350      -0.845638356400995      -0.840684853687174     
 -0.836064985290456      -0.831758255300845      -0.827768455894549     
 -0.824115941014683      -0.820826417749119      -0.817918975044126     
 -0.815396150149697      -0.813237702105251      -0.811398661569916     
 -0.809811707273096      -0.808391682666348      -0.807037119137755     
 -0.805628982416768      -0.804040711718966      -0.802172266178950     
 -0.799989546267337      -0.797532865709978      -0.794889165864140     
 -0.792153575387881      -0.789402336274151      -0.786682294774335     
 -0.784012199792521      -0.781389818808466      -0.778800890724556     
 -0.776226805513426      -0.773648500153163      -0.771046723454519     
 -0.768400601339809      -0.765685675242099      -0.762872401640581     
 -0.759927184453817      -0.756818589769756      -0.753531011888844     
 -0.750086075649185      -0.746566723457966      -0.743131721893105     
 -0.740005253298123      -0.737434495166942      -0.735628839329241     
 -0.734712755207393      -0.734716727012922      -0.735604183491754     
 -0.737306179628959      -0.739722332399020      -0.742696190131214     
 -0.746009544288646      -0.749407293181293      -0.752628839859129     
 -0.755419046004804      -0.757518497680492      -0.758650066501431     
 -0.758515864354270      -0.756815496181859      -0.753299550340811     
 -0.747863894365113      -0.740646752968832      -0.732029823031584     
 -0.722468391834694      -0.712225404073310      -0.701157891988064     
 -0.688705386452142      -0.675020642954969      -0.662346078397758     
 -0.651686907475138      -0.642560329291803      -0.634457646653014     
 -0.627100427526274      -0.620344227717822      -0.614082480205217     
 -0.608215028391023      -0.602675833029882      -0.597479178464997     
 -0.592747463713675      -0.588706199502885      -0.585632471651177     
 -0.583771077433086      -0.583254411354588      -0.584048604734593     
 -0.585915357138245      -0.588367786730982      -0.590686448904896     
 -0.592148878382997      -0.592323437234629      -0.591108023880042     
 -0.588605573596779      -0.585037388700198      -0.580715247380675     
 -0.576027495871322      -0.571390534237066      -0.567151681024393     
 -0.563498385697454      -0.560438892315128      -0.557850632599978     
 -0.555548530156185      -0.553339799551738      -0.551056829969065     
 -0.548569961254585      -0.545785110844842      -0.542635679243922     
 -0.539077632539550      -0.535089602043460      -0.530674407381650     
 -0.525862962654398      -0.520726280212918      -0.515375862012442     
 -0.509930695928093      -0.504507264936497      -0.499257060972089     
 -0.494392275399284      -0.490205417438408      -0.487046030439922     
 -0.485234495924956      -0.484968075226271      -0.486282474336154     
 -0.489098683659326      -0.493190062872176      -0.498189759253060     
 -0.503725654983548      -0.509543735366284      -0.515498057893946     
 -0.521448450892588      -0.527168083531168      -0.532284627722660     
 -0.536234130959621      -0.538225570441485      -0.537282499980307     
 -0.532524405309463      -0.523761116513057      -0.511934053716383     
 -0.498625308032406      -0.484856693758447      -0.470362734588838     
 -0.453736663191559      -0.436227990821144      -0.423251561696450     
 -0.414430064940626      -0.407153983537794      -0.400826488317484     