 Title = "Wing and Wake"
 VARIABLES = "X" "Y" "Z" "GAM"
 Zone I=    9 J=   15 K=1  T="Blade"
 DATAPACKING=BLOCK
 VARLOCATION=([4]=CELLCENTERED)
  -1.04855152292610       -1.04859142292610       -1.04870022292610     
  -1.04789942292610       -1.04560692292610       -1.04238722292610     
  -1.03960832292610       -1.03785772292610       -1.03693792292610     
  -1.04913982292610       -1.04916212292610       -1.04922472292610     
  -1.04829182292610       -1.04575802292610       -1.04224972292610     
  -1.03923732292610       -1.03734372292610       -1.03634962292610     
  -1.04915072292610       -1.04911642292610       -1.04902952292610     
  -1.04796142292610       -1.04539912292610       -1.04198332292610     
  -1.03909172292610       -1.03728482292610       -1.03633872292610     
  -1.04891832292610       -1.04881472292610       -1.04854432292610     
  -1.04734822292610       -1.04484902292610       -1.04167982292610     
  -1.03905012292610       -1.03742102292610       -1.03657112292610     
  -1.04844522292610       -1.04838162292610       -1.04821672292610     
  -1.04718792292610       -1.04489382292610       -1.04191182292610     
  -1.03941232292610       -1.03785712292610       -1.03704422292610     
  -1.04790382292610       -1.04787142292610       -1.04778862292610     
  -1.04691692292610       -1.04485132292610       -1.04210872292610     
  -1.03979072292610       -1.03834332292610       -1.03758562292610     
  -1.04733052292610       -1.04732242292610       -1.04730372292610     
  -1.04657792292610       -1.04475072292610       -1.04227682292610     
  -1.04017022292610       -1.03885062292610       -1.03815892292610     
  -1.04677542292610       -1.04678532292610       -1.04681402292610     
  -1.04621632292610       -1.04461752292610       -1.04241342292610     
  -1.04052392292610       -1.03933702292610       -1.03871402292610     
  -1.04629032292610       -1.04631092292610       -1.04636772292610     
  -1.04587022292610       -1.04446892292610       -1.04250932292610     
  -1.04082072292610       -1.03975762292610       -1.03919912292610     
  -1.04586832292610       -1.04589392292610       -1.04596332292610     
  -1.04554232292610       -1.04431082292610       -1.04257172292610     
  -1.04106772292610       -1.04011952292610       -1.03962112292610     
  -1.04549352292610       -1.04551962292610       -1.04559042292610     
  -1.04522842292610       -1.04414632292610       -1.04260962292610     
  -1.04127792292610       -1.04043772292610       -1.03999592292610     
  -1.04515952292610       -1.04518272292610       -1.04524552292610     
  -1.04492812292610       -1.04397752292610       -1.04262712292610     
  -1.04145672292610       -1.04071822292610       -1.04032992292610     
  -1.04483012292610       -1.04484962292610       -1.04490242292610     
  -1.04462702292610       -1.04380592292610       -1.04264062292610     
  -1.04163112292610       -1.04099422292610       -1.04065932292610     
  -1.04457382292610       -1.04458442292610       -1.04461352292610     
  -1.04435672292610       -1.04363382292610       -1.04262302292610     
  -1.04175202292610       -1.04120372292610       -1.04091562292610     
  -1.04437102292610       -1.04436952292610       -1.04436672292610     
  -1.04411262292610       -1.04346522292610       -1.04258542292610     
  -1.04183522292610       -1.04136502292610       -1.04111842292610     
  0.409815947863810       0.410646899238741       0.412838030112856     
  0.416230684632181       0.420275542883097       0.423867556450374     
  0.426321006419295       0.427698073413853       0.428384052136191     
  0.414795785851554       0.415814145123864       0.418498910478136     
  0.422824793972580       0.428215628906058       0.433209477794440     
  0.436721470614407       0.438725973014006       0.439732814148446     
  0.420291898185034       0.421442412933962       0.424474974090394     
  0.429524075399538       0.436032083103897       0.442243650312542     
  0.446697878771826       0.449267635952476       0.450565201814966     
  0.426234843024327       0.427492658320784       0.430807716963930     
  0.436452643750878       0.443889636905877       0.451119736591912     
  0.456364386437230       0.459408985346775       0.460950856975672     
  0.433029004233000       0.434369265147897       0.437901436359772     
  0.443952096048393       0.451968979813766       0.459799061899543     
  0.465495170787854       0.468806938534466       0.470485295767000     
  0.440497019808357       0.441874000200374       0.445502560039691     
  0.451747036213679       0.460056376757909       0.468200479655099     
  0.474137776618364       0.477593477787085       0.479345880191642     
  0.448466327489966       0.449846338970896       0.453483039449008     
  0.459764927920439       0.468153076776414       0.476397552017902     
  0.482418247227552       0.485925736715420       0.487705072510035     
  0.456763475786906       0.458125473939438       0.461714369815261     
  0.467932951829675       0.476260565509926       0.484464510762516     
  0.490463815144693       0.493961518545498       0.495736524213094     
  0.465266045309624       0.466597472765402       0.470105828278674     
  0.476200135647645       0.484380351804172       0.492453873630952     
  0.498364410409240       0.501812317349328       0.503562554690377     
  0.473942376130882       0.475232753982521       0.478632942922859     
  0.484551447134863       0.492510567005803       0.500377541773781     
  0.506142153271532       0.509506488760154       0.511214723869118     
  0.482790143379549       0.484028906117121       0.487292869261445     
  0.492984128407496       0.500649492461472       0.508235528588463     
  0.513798356167131       0.517046211238945       0.518695556620451     
  0.491818909937606       0.492994539423244       0.496092398895121     
  0.501501593567159       0.508796385350856       0.516023107537816     
  0.521325607880107       0.524422514724040       0.525995390062394     
  0.501048074774100       0.502147580626744       0.505044782012565     
  0.510110164599300       0.516949167212986       0.523730492534780     
  0.528709012773515       0.531617385887044       0.533094825225901     
  0.510511969097559       0.511520455680265       0.514177681426697     
  0.518827718229778       0.525111252149476       0.531345769031320     
  0.535924618546209       0.538600204031203       0.539959430902441     
  0.520205496755562       0.521107981828845       0.523486174190178     
  0.527650457344275       0.533280834904440       0.538869989655383     
  0.542975902697266       0.545375485886071       0.546594503244439     
 -7.135128576837438E-002 -7.087153576837395E-002 -6.960648576837425E-002
 -6.764773576837424E-002 -6.531243576837441E-002 -6.323858576837385E-002
 -6.182208576837478E-002 -6.102703576837500E-002 -6.063098576837424E-002
 -8.733081817660880E-002 -8.674286817660928E-002 -8.519281817660895E-002
 -8.269526817660874E-002 -7.958286817660895E-002 -7.669966817660885E-002
 -7.467201817660878E-002 -7.351471817660885E-002 -7.293341817660887E-002
 -0.103012163982304      -0.102347913982304      -0.100597063982303     
 -9.768196398230346E-002 -9.392456398230403E-002 -9.033831398230320E-002
 -8.776666398230319E-002 -8.628301398230362E-002 -8.553386398230296E-002
 -0.118435646390539      -0.117709446390538      -0.115795496390538     
 -0.112536396390538      -0.108242646390538      -0.104068346390539     
 -0.101040346390538      -9.928254639053755E-002 -9.839234639053786E-002
 -0.133367678798773      -0.132593878798773      -0.130554578798774     
 -0.127061228798773      -0.122432678798773      -0.117911978798773     
 -0.114623328798772      -0.112711278798773      -0.111742278798772     
 -0.147910661207008      -0.147115661207007      -0.145020711207008     
 -0.141415461207008      -0.136618061207007      -0.131916061207007     
 -0.128488161207007      -0.126493011207008      -0.125481261207007     
 -0.162164107012702      -0.161367357012702      -0.159267707012702     
 -0.155640857012702      -0.150797957012701      -0.146038007012702     
 -0.142561957012702      -0.140536907012702      -0.139509607012702     
 -0.176228389420937      -0.175442039420936      -0.173369989420936     
 -0.169779689420936      -0.164971739420936      -0.160235189420936     
 -0.156771489420937      -0.154752089420936      -0.153727289420936     
 -0.190174071829171      -0.189405371829170      -0.187379821829171     
 -0.183861271829170      -0.179138421829172      -0.174477171829171     
 -0.171064721829171      -0.169074071829171      -0.168063571829171     
 -0.204019317634866      -0.203274317634866      -0.201311217634865     
 -0.197894167634865      -0.193298967634865      -0.188756967634866     
 -0.185428767634865      -0.183486367634866      -0.182500117634866     
 -0.217765700043100      -0.217050500043100      -0.215166050043101     
 -0.211880200043101      -0.207454600043100      -0.203074800043100     
 -0.199863100043099      -0.197987950043100      -0.197035700043099     
 -0.231407582451333      -0.230728832451335      -0.228940282451334     
 -0.225817282451335      -0.221605632451334      -0.217433282451334     
 -0.214371882451334      -0.212583882451335      -0.211675782451335     
 -0.244933764859568      -0.244298964859569      -0.242626264859570     
 -0.239701764859570      -0.235753264859568      -0.231838064859570     
 -0.228963714859569      -0.227284564859569      -0.226431564859569     
 -0.258324310665263      -0.257742060665263      -0.256207910665263     
 -0.253523210665262      -0.249895410665263      -0.246295910665263     
 -0.243652310665264      -0.242107560665263      -0.241322810665264     
 -0.271582393073498      -0.271061343073497      -0.269688293073497     
 -0.267284043073498      -0.264033343073499      -0.260806443073498     
 -0.258435893073498      -0.257050493073497      -0.256346693073497     
  7.913331118888105E-003  5.230920500072495E-002  0.222432760743172     
  0.493121562902396       0.756115727920376       0.924125835258736     
  0.999029592946521        1.02033222442037       2.345692418540371E-002
  8.914510220705607E-002  0.300007464955855       0.622304971486555     
  0.927625911467435        1.11201901553560        1.18954115329750     
   1.21148846827295       3.380630037359477E-002  0.108212090542366     
  0.323222302373192       0.641795285350963       0.939059994529100     
   1.11552493782780        1.18823622836542        1.20886422743023     
  3.036616515159844E-002  0.100005346216462       0.310808430410730     
  0.627125893133027       0.923344912871255        1.09800837342968     
   1.16915285146945        1.18927092164771       1.316307586328142E-002
  6.757086518960277E-002  0.276300720015084       0.601005067098101     
  0.908704958260751        1.09179626891987        1.16747562615269     
   1.18921935456307      -1.591978430813067E-003  3.896456719431665E-002
  0.242561636264389       0.570476343935963       0.885149048883126     
   1.07351676031203        1.15177175506423        1.17437892189320     
 -1.395088764168378E-002  1.435714666663907E-002  0.210323064213260     
  0.535612170705338       0.850924910073137        1.04033090682587     
   1.11913138235300        1.14195186941841      -2.363601963891683E-002
 -5.512222114019151E-003  0.181391962313069       0.499516438499787     
  0.810170743144486       0.997089463851767        1.07485593471105     
   1.09739592414082      -2.985180762881456E-002 -1.902387797015992E-002
  0.158354227184985       0.465874920913825       0.767724077894956     
  0.949601824158830        1.02532303637450        1.04728864487014     
 -3.246446549826290E-002 -2.591351091587368E-002  0.141806327180469     
  0.435701155721705       0.725063315071043       0.899643006536607     
  0.972387998399052       0.993521082008466      -3.167167883797095E-002
 -2.658576417239552E-002  0.131189036725256       0.408471156565224     
  0.681802697071740       0.846948504405648       0.915883631820882     
  0.935949996336402      -2.856140188929077E-002 -2.321669911625589E-002
  0.123308531997873       0.380350941216494       0.634126021033850     
  0.788100976951792       0.852697280111723       0.871566496412307     
 -2.414649524994838E-002 -1.813954449275336E-002  0.114038659542037     
  0.344835426960220       0.573972648611199       0.715345505422952     
  0.775914219499352       0.793864976068385      -2.243798638687933E-002
 -2.098218914793938E-002  8.441176971734725E-002  0.267551459738264     
  0.451310664003316       0.572537411502875       0.629887718969916     
  0.647968914177031     
 Zone I=  301 J=   15 K=1  T="NearWake"
 DATAPACKING=BLOCK
 VARLOCATION=([4]=CELLCENTERED)
  -1.03693792292610       -1.03498610718301       -1.03204491439927     
  -1.02918199008516       -1.02638238153398       -1.02362625594426     
  -1.02090140141356       -1.01819997060837       -1.01551678166877     
  -1.01284837822811       -1.01019245957166       -1.00754749715263     
  -1.00491244497601       -1.00228651559837      -0.999669037164009     
 -0.997059394590231      -0.994457015188104      -0.991861358376493     
 -0.989271898623481      -0.986688103801170      -0.984109409607626     
 -0.981535188910072      -0.978964715481168      -0.976397123604406     
 -0.973831367566813      -0.971266186789831      -0.968700082792305     
 -0.966131315040079      -0.963557924778878      -0.960977796387869     
 -0.958388761661789      -0.955788743577571      -0.953175923913738     
 -0.950548906602685      -0.947906842580031      -0.945249488437096     
 -0.942577188422152      -0.939890788437506      -0.937191504479213     
 -0.934480773869858      -0.931760115528417      -0.929031017304847     
 -0.926294857787707      -0.923552860904122      -0.920806076525618     
 -0.918055379162441      -0.915301478327508      -0.912544935937837     
 -0.909786186997037      -0.907025560230497      -0.904263295824971     
 -0.901499558542978      -0.898734446394543      -0.895967996477044     
 -0.893200189369802      -0.890430952123723      -0.887660159026463     
 -0.884887630038956      -0.882113128848435      -0.879336365267412     
 -0.876557008278476      -0.873774711661583      -0.870989144795557     
 -0.868200017650807      -0.865407094450089      -0.862610196157782     
 -0.859809193281912      -0.857003990989865      -0.854194511907808     
 -0.851380686269845      -0.848562457505421      -0.845739799813034     
 -0.842912732814691      -0.840081321873824      -0.837245666285363     
 -0.834405885002916      -0.831562108137055      -0.828714477544821     
 -0.825863154368008      -0.823008327819352      -0.820150219794467     
 -0.817289083374937      -0.814425197174188      -0.811558858000901     
 -0.808690371328235      -0.805820038282615      -0.802948141676356     
 -0.800074936542825      -0.797200647934766      -0.794325473147483     
 -0.791449582351368      -0.788573111774386      -0.785696147216479     
 -0.782818703329520      -0.779940711591617      -0.777062030282588     
 -0.774182479164558      -0.771301886715380      -0.768420135148677     
 -0.765537196995965      -0.762653157295837      -0.759768209975053     
 -0.756882623309870      -0.753996681690935      -0.751110617895755     
 -0.748224554974167      -0.745338482251600      -0.742452287424712     
 -0.739565844042826      -0.736679110304870      -0.733792173021256     
 -0.730905210088415      -0.728018402502820      -0.725131844302519     
 -0.722245486599930      -0.719359135393363      -0.716472504150274     
 -0.713585305323984      -0.710697354114827      -0.707808653694429     
 -0.704919436895175      -0.702030155109510      -0.699141425213250     
 -0.696253958040348      -0.693368489479733      -0.690485722192402     
 -0.687606280526329      -0.684730686227075      -0.681859353156632     
 -0.678992589702483      -0.676130606229351      -0.673273533241531     
 -0.670421467467079      -0.667574572538806      -0.664733231289994     
 -0.661898167152237      -0.659070417404562      -0.656251114585523     
 -0.653441132564972      -0.650640709928212      -0.647849157279494     
 -0.645064700054938      -0.642284459839312      -0.639504594952225     
 -0.636720665107704      -0.633928190673778      -0.631123183553970     
 -0.628302436632950      -0.625463574267578      -0.622604975339357     
 -0.619725612695802      -0.616824807664789      -0.613901966579741     
 -0.610956440719707      -0.607987614264166      -0.604995152460435     
 -0.601979189436955      -0.598940327551711      -0.595879647723342     
 -0.592799164209682      -0.589702771364563      -0.586596872869902     
 -0.583489954668561      -0.580391679525374      -0.577312790101384     
 -0.574266018253766      -0.571266666381941      -0.568331944456774     
 -0.565479982343695      -0.562729738313079      -0.560101228602586     
 -0.557614127092837      -0.555283877278107      -0.553116804160518     
 -0.551106389605697      -0.549231349755249      -0.547454836343239     
 -0.545724643783265      -0.543975243615872      -0.542131534206647     
 -0.540112654834934      -0.537834734534199      -0.535213790547025     
 -0.532171907129125      -0.528649464707846      -0.524622935026887     
 -0.520119917412135      -0.515215012208746      -0.510002423150796     
 -0.504569465135779      -0.498992373287806      -0.493346447894810     
 -0.487715245267630      -0.482192039037129      -0.476869582058908     
 -0.471822214330733      -0.467093625888631      -0.462698353947943     
 -0.458633298105922      -0.454890571433204      -0.451466266502787     
 -0.448364682820508      -0.445599217896576      -0.443190873006439     
 -0.441165668830405      -0.439551951587011      -0.438377441697701     
 -0.437666171559567      -0.437436637942415      -0.437701719311670     
 -0.438467151573184      -0.439720815723336      -0.441403724348109     
 -0.443363267095672      -0.445320619809550      -0.446913292160233     
 -0.447789638619832      -0.447593988350586      -0.445912432149167     
 -0.442448689968600      -0.437215672675859      -0.430631899754560     
 -0.423656411472264      -0.417455979273768      -0.412926407952710     
 -0.410411660769808      -0.409797084947173      -0.410782799117003     
 -0.413038040436763      -0.416242442557276      -0.420091264872965     
 -0.424300474362601      -0.428616439748974      -0.432824079920543     
 -0.436747773221779      -0.440245160783251      -0.443200142328937     
 -0.445520512023332      -0.447138172462630      -0.448006431048534     
 -0.448091716665665      -0.447359594248742      -0.445755735237356     
 -0.443182453613280      -0.439472596868787      -0.434368927641930     
 -0.427525291315908      -0.418550119092243      -0.407148415922069     
 -0.393629693244905      -0.379677246766375      -0.367107979128234     
 -0.356118115328883      -0.346342633406670      -0.337813053001475     
 -0.330522587525288      -0.324384220420085      -0.319502975456052     
 -0.316032532208768      -0.314014100899755      -0.313550482572039     
 -0.315133388819998      -0.319572966143304      -0.327902738790437     
 -0.342684449983651      -0.373256272021334      -0.425007940603259     
 -0.458332004558838      -0.478457005054393      -0.490142301466790     
 -0.495494673361562      -0.497676029267655      -0.498510759817770     
 -0.498828147798928      -0.498988130305846      -0.499119196759869     
 -0.499214467063618      -0.499178944006003      -0.498852905012246     
 -0.498023250315372      -0.496437173681365      -0.493827499325761     
 -0.489941639384685      -0.484541963960126      -0.477334980435766     
 -0.467837402147130      -0.455385034421531      -0.440010986242107     
 -0.424771505840776      -0.415235890907446      -0.413038742469425     
 -0.414586926498333      -0.417838989396400      -0.421895100709068     
 -0.424276734371027      -0.422910318970781      -0.416827743080565     
 -0.406595803269399      -0.394009076650261      -0.380449754610432     
 -0.368093237643169       -1.03634962292610       -1.03439780718301     
  -1.03061038982598       -1.02716582703583       -1.02389263550867     
  -1.02071658696109       -1.01760087939531       -1.01452533539981     
  -1.01147798401741       -1.00845133865614       -1.00544058958224     
  -1.00244264170618      -0.999455545994252      -0.996478104924544     
 -0.993509549269332      -0.990549297823389      -0.987596845917497     
 -0.984651733363051      -0.981713518587526      -0.978781747724476     
 -0.975855925429312      -0.972935485462206      -0.970019757031078     
 -0.967107926170832      -0.964198996058316      -0.961291754235420     
 -0.958384754669988      -0.955476319369639      -0.952564564545219     
 -0.949647458814745      -0.946722919427713      -0.943788947378812     
 -0.940843793252823      -0.937886128500797      -0.934915180484567     
 -0.931930794129368      -0.928933408517840      -0.925923962525973     
 -0.922903757048169      -0.919874304263241      -0.916837189991641     
 -0.913793965082987      -0.910746070979725      -0.907694796535304     
 -0.904641258303156      -0.901586396474394      -0.898530982047008     
 -0.895475632344593      -0.892420831392643      -0.889366951882571     
 -0.886314275644621      -0.883263009465630      -0.880213295313298     
 -0.877165217294289      -0.874118807666258      -0.871074051890693     
 -0.868030891453596      -0.864989222250085      -0.861948885455923     
 -0.858909653339391      -0.855871227405374      -0.852833269236420     
 -0.849795456287799      -0.846757532487408      -0.843719335289069     
 -0.840680797210284      -0.837641923584246      -0.834602749945343     
 -0.831563291101314      -0.828523508489832      -0.825483324744566     
 -0.822442680282359      -0.819401584412848      -0.816360120746179     
 -0.813318410495861      -0.810276565587763      -0.807234662366065     
 -0.804192747929542      -0.801150870264973      -0.798109113199873     
 -0.795067619125879      -0.792026592655740      -0.788986291793416     
 -0.785947016903983      -0.782909096454984      -0.779872862344184     
 -0.776838618593293      -0.773806617992920      -0.770777057739604     
 -0.767750092988649      -0.764725856594025      -0.761704467518102     
 -0.758686016939826      -0.755670538121500      -0.752657976133540     
 -0.749648175820317      -0.746640903300383      -0.743635898520932     
 -0.740632946359498      -0.737631960021550      -0.734633047077878     
 -0.731636505471750      -0.728642735619968      -0.725652101274585     
 -0.722664782942722      -0.719680677078376      -0.716699388972960     
 -0.713720346566775      -0.710743029841851      -0.707767206173281     
 -0.704793009506706      -0.701820823305643      -0.698851057638350     
 -0.695883936850425      -0.692919376613750      -0.689956968276691     
 -0.686996053838009      -0.684035878042291      -0.681075786000962     
 -0.678115398388141      -0.675154712277638      -0.672194124860263     
 -0.669234384468068      -0.666276470820898      -0.663321439236153     
 -0.660370282215265      -0.657423868081323      -0.654483017307392     
 -0.651548663596950      -0.648621914381160      -0.645703930264014     
 -0.642795776703935      -0.639898430130313      -0.637012937319180     
 -0.634140638670228      -0.631283386833946      -0.628443598829548     
 -0.625623914151877      -0.622826425043549      -0.620051733280371     
 -0.617298192665712      -0.614561526622702      -0.611834788797139     
 -0.609108701902602      -0.606372486405248      -0.603614939254949     
 -0.600825243682371      -0.597993321181348      -0.595110028710120     
 -0.592167588929980      -0.589160238193003      -0.586084674534918     
 -0.582940023559390      -0.579727457241723      -0.576449560903517     
 -0.573109227909119      -0.569708431394547      -0.566248247863948     
 -0.562730925405904      -0.559162492763324      -0.555553618605542     
 -0.551918879030498      -0.548276799100492      -0.544651476791477     
 -0.541073389783912      -0.537577416637008      -0.534199752437739     
 -0.530976538092667      -0.527944454616855      -0.525141272538793     
 -0.522604153836881      -0.520364420772741      -0.518439970984048     
 -0.516828492540725      -0.515503282368232      -0.514411972978658     
 -0.513477735538997      -0.512600736769620      -0.511658833448952     
 -0.510510336975810      -0.509000063642655      -0.506967117288155     
 -0.504261160942865      -0.500781069641838      -0.496527498962617     
 -0.491619482819458      -0.486236763095207      -0.480533850717027     
 -0.474622487226722      -0.468640339810556      -0.462792492815507     
 -0.457316417657857      -0.452405993350935      -0.448140882255638     
 -0.444484581446364      -0.441334888153265      -0.438577033851928     
 -0.436116730473132      -0.433893485953345      -0.431880998464402     
 -0.430079812987056      -0.428505529120131      -0.427175441484421     
 -0.426096479836665      -0.425256177104990      -0.424616179116393     
 -0.424106906701372      -0.423624303666055      -0.423034329264457     
 -0.422195028094103      -0.421003917968294      -0.419462946334172     
 -0.417730938605670      -0.416126145244716      -0.415019794137734     
 -0.414494585620365      -0.414040611556664      -0.413378007754475     
 -0.412930974470729      -0.412363687771842      -0.410008204865864     
 -0.405522385526880      -0.401287387776627      -0.399889045088312     
 -0.402526647715865      -0.409343364515629      -0.419435009235177     
 -0.430764505950570      -0.442134069213945      -0.453526408596865     
 -0.464880781318523      -0.475968202790041      -0.486267702357992     
 -0.495327441841478      -0.502931860047782      -0.509025461298147     
 -0.513654962120278      -0.516910552711559      -0.518882325379670     
 -0.519635758146670      -0.519199132704648      -0.517556830867695     
 -0.514651119699002      -0.510399277821831      -0.504729764320868     
 -0.497626039976893      -0.489130831419717      -0.479234604163353     
 -0.467631070185699      -0.453479196863024      -0.435615569435921     
 -0.412851367794263      -0.391475824477411      -0.378289174394497     
 -0.369383053766556      -0.361417440788497      -0.351493692750681     
 -0.338805744154391      -0.325249383968431      -0.313978900248999     
 -0.306516284680398      -0.302702544458154      -0.302315026613639     
 -0.305428691959794      -0.312180505510218      -0.323111974986695     
 -0.336378745351855      -0.348164191291970      -0.393472858898225     
 -0.450457875654480      -0.482574337676212      -0.506161584138217     
 -0.520569463887824      -0.529285821340682      -0.535004179249976     
 -0.538945523631400      -0.541576604017223      -0.542964030356600     
 -0.542865847565531      -0.540825557271329      -0.536309029669484     
 -0.528858424464023      -0.518385064641993      -0.505669723479545     
 -0.492302394768336      -0.479605610151541      -0.468441323534145     
 -0.460207149175269      -0.456750129866024      -0.457770265040641     
 -0.451314509020470      -0.421766310175198      -0.389150211157956     
 -0.362920635253355      -0.345382149948537      -0.336889224927216     
 -0.336006441763688      -0.339072324118965      -0.340871529936891     
 -0.336207367499334      -0.328075045568607       -1.03633872292610     
  -1.03438690718301       -1.03046514105156       -1.02683688904403     
  -1.02336001653919       -1.01997463016669       -1.01664935396087     
  -1.01336563666561       -1.01011162374016       -1.00687935986479     
  -1.00366337650090       -1.00045990779373      -0.997266414553146     
 -0.994081266444549      -0.990903482173524      -0.987732453002160     
 -0.984567704813348      -0.981408812878042      -0.978255388311105     
 -0.975107045782429      -0.971963366698761      -0.968823866274505     
 -0.965687956385170      -0.962554900236011      -0.959423764393606     
 -0.956293379459321      -0.953162315630080      -0.950028872626591     
 -0.946891089839495      -0.943746790672456      -0.940593672217763     
 -0.937429448857337      -0.934252057769614      -0.931059903925804     
 -0.927852069369765      -0.924628410026173      -0.921389521637532     
 -0.918136605596385      -0.914871280505511      -0.911595386154775     
 -0.908310815199049      -0.905019387069589      -0.901722765076472     
 -0.898422411026390      -0.895119566488046      -0.891815251971119     
 -0.888510280209626      -0.885205279330580      -0.881900721707767     
 -0.878596955075345      -0.875294229982758      -0.871992718499809     
 -0.868692525592879      -0.865393699457447      -0.862096242676048     
 -0.858800120480889      -0.855505265481184      -0.852211578141623     
 -0.848918914335346      -0.845627053392645      -0.842335668592833     
 -0.839044351147833      -0.835752695494775      -0.832460383679145     
 -0.829167222247826      -0.825873135960744      -0.822578131571087     
 -0.819282229507095      -0.815985375111297      -0.812687390309393     
 -0.809388037387015      -0.806087161248719      -0.802784771981205     
 -0.799481001998217      -0.796176001336573      -0.792869855383931     
 -0.789562559312642      -0.786254045578875      -0.782944245627332     
 -0.779633154241965      -0.776320863921317      -0.773007560714447     
 -0.769693503427657      -0.766379006883478      -0.763064419623703     
 -0.759750080162650      -0.756436263058107      -0.753123144075396     
 -0.749810806877257      -0.746499287351021      -0.743188622271317     
 -0.739878867011092      -0.736570084598614      -0.733262334348103     
 -0.729955658212230      -0.726650039483787      -0.723345345440765     
 -0.720041303539788      -0.716737558708999      -0.713433836720730     
 -0.710130114141142      -0.706826615020337      -0.703523632309314     