 Title = "Wing and Wake"
 VARIABLES = "X" "Y" "Z" "GAM"
 Zone I=   26 J=   25 K=1  T="Blade"
 DATAPACKING=BLOCK
 VARLOCATION=([4]=CELLCENTERED)
  7.833152672568326E-002  7.917203697329817E-002  8.001254722091303E-002
  8.085305746852776E-002  8.169356771614249E-002  8.253407796375747E-002
  8.337458821137228E-002  8.421509845898716E-002  8.505560870660198E-002
  8.589611895421667E-002  8.673662920183178E-002  8.757713944944649E-002
  8.841764969706115E-002  8.925815994467608E-002  9.009867019229073E-002
  9.093918043990576E-002  9.177969068752034E-002  9.262020093513522E-002
  9.346071118274997E-002  9.430122143036480E-002  9.514173167797971E-002
  9.598224192559449E-002  9.682275217320938E-002  9.766326242082421E-002
  9.850377266843906E-002  9.934428291605378E-002  7.975982442754578E-002
  8.060033467516074E-002  8.144084492277545E-002  8.228135517039031E-002
  8.312186541800516E-002  8.396237566561997E-002  8.480288591323472E-002
  8.564339616084955E-002  8.648390640846418E-002  8.732441665607912E-002
  8.816492690369397E-002  8.900543715130868E-002  8.984594739892347E-002
  9.068645764653836E-002  9.152696789415320E-002  9.236747814176806E-002
  9.320798838938273E-002  9.404849863699760E-002  9.488900888461232E-002
  9.572951913222730E-002  9.657002937984224E-002  9.741053962745691E-002
  9.825104987507165E-002  9.909156012268645E-002  9.993207037030134E-002
  0.100772580617916       8.402027896345500E-002  8.486078921106964E-002
  8.570129945868439E-002  8.654180970629934E-002  8.738231995391436E-002
  8.822283020152898E-002  8.906334044914380E-002  8.990385069675878E-002
  9.074436094437369E-002  9.158487119198835E-002  9.242538143960316E-002
  9.326589168721802E-002  9.410640193483286E-002  9.494691218244755E-002
  9.578742243006247E-002  9.662793267767723E-002  9.746844292529179E-002
  9.830895317290680E-002  9.914946342052162E-002  9.998997366813624E-002
  0.100830483915751       0.101670994163366       0.102511504410981     
  0.103352014658596       0.104192524906210       0.105033035153825     
  9.103999277508058E-002  9.188050302269536E-002  9.272101327031046E-002
  9.356152351792507E-002  9.440203376553974E-002  9.524254401315493E-002
  9.608305426076955E-002  9.692356450838439E-002  9.776407475599921E-002
  9.860458500361390E-002  9.944509525122865E-002  0.100285605498843     
  0.101126115746458       0.101966625994073       0.102807136241688     
  0.103647646489303       0.104488156736918       0.105328666984532     
  0.106169177232147       0.107009687479762       0.107850197727377     
  0.108690707974992       0.109531218222606       0.110371728470221     
  0.111212238717836       0.112052748965451       0.100698856612874     
  0.101539366860488       0.102379877108103       0.103220387355718     
  0.104060897603333       0.104901407850948       0.105741918098562     
  0.106582428346177       0.107422938593792       0.108263448841407     
  0.109103959089021       0.109944469336636       0.110784979584251     
  0.111625489831866       0.112466000079481       0.113306510327095     
  0.114147020574710       0.114987530822325       0.115828041069940     
  0.116668551317555       0.117509061565170       0.118349571812784     
  0.119190082060399       0.120030592308014       0.120871102555629     
  0.121711612803244       0.112831604638625       0.113672114886240     
  0.114512625133855       0.115353135381470       0.116193645629085     
  0.117034155876699       0.117874666124314       0.118715176371929     
  0.119555686619544       0.120396196867158       0.121236707114774     
  0.122077217362388       0.122917727610003       0.123758237857618     
  0.124598748105233       0.125439258352847       0.126279768600462     
  0.127120278848077       0.127960789095692       0.128801299343307     
  0.129641809590922       0.130482319838536       0.131322830086151     
  0.132163340333766       0.133003850581381       0.133844360828996     
  0.127230642169783       0.128071152417398       0.128911662665013     
  0.129752172912627       0.130592683160242       0.131433193407857     
  0.132273703655472       0.133114213903087       0.133954724150702     
  0.134795234398317       0.135635744645931       0.136476254893546     
  0.137316765141161       0.138157275388776       0.138997785636391     
  0.139838295884005       0.140678806131620       0.141519316379235     
  0.142359826626850       0.143200336874464       0.144040847122079     
  0.144881357369694       0.145721867617309       0.146562377864924     
  0.147402888112539       0.148243398360153       0.143649597682021     
  0.144490107929636       0.145330618177250       0.146171128424865     
  0.147011638672480       0.147852148920095       0.148692659167710     
  0.149533169415325       0.150373679662939       0.151214189910554     
  0.152054700158169       0.152895210405784       0.153735720653399     
  0.154576230901013       0.155416741148628       0.156257251396243     
  0.157097761643858       0.157938271891472       0.158778782139088     
  0.159619292386702       0.160459802634317       0.161300312881932     
  0.162140823129547       0.162981333377161       0.163821843624776     
  0.164662353872391       0.161807538294330       0.162648048541945     
  0.163488558789559       0.164329069037174       0.165169579284789     
  0.166010089532404       0.166850599780019       0.167691110027634     
  0.168531620275248       0.169372130522863       0.170212640770478     
  0.171053151018093       0.171893661265707       0.172734171513322     
  0.173574681760937       0.174415192008552       0.175255702256167     
  0.176096212503781       0.176936722751396       0.177777232999012     
  0.178617743246626       0.179458253494241       0.180298763741856     
  0.181139273989471       0.181979784237085       0.182820294484700     
  0.181393776608501       0.182234286856116       0.183074797103731     
  0.183915307351346       0.184755817598960       0.185596327846575     
  0.186436838094190       0.187277348341805       0.188117858589419     
  0.188958368837035       0.189798879084649       0.190639389332264     
  0.191479899579879       0.192320409827494       0.193160920075108     
  0.194001430322724       0.194841940570338       0.195682450817953     
  0.196522961065568       0.197363471313182       0.198203981560797     
  0.199044491808412       0.199885002056027       0.200725512303642     
  0.201566022551256       0.202406532798871       0.202073186656648     
  0.202913696904263       0.203754207151877       0.204594717399492     
  0.205435227647107       0.206275737894722       0.207116248142337     
  0.207956758389952       0.208797268637567       0.209637778885182     
  0.210478289132795       0.211318799380411       0.212159309628026     
  0.212999819875641       0.213840330123255       0.214680840370870     
  0.215521350618485       0.216361860866100       0.217202371113714     
  0.218042881361330       0.218883391608944       0.219723901856559     
  0.220564412104174       0.221404922351789       0.222245432599403     
  0.223085942847018       0.223491937999431       0.224332448247046     
  0.225172958494661       0.226013468742276       0.226853978989891     
  0.227694489237505       0.228534999485121       0.229375509732735     
  0.230216019980349       0.231056530227964       0.231897040475580     
  0.232737550723194       0.233578060970809       0.234418571218423     
  0.235259081466039       0.236099591713654       0.236940101961268     
  0.237780612208883       0.238621122456498       0.239461632704113     
  0.240302142951727       0.241142653199342       0.241983163446957     
  0.242823673694572       0.243664183942187       0.244504694189802     
  0.245283549862976       0.246124060110591       0.246964570358206     
  0.247805080605820       0.248645590853436       0.249486101101050     
  0.250326611348665       0.251167121596280       0.252007631843895     
  0.252848142091510       0.253688652339124       0.254529162586739     
  0.255369672834353       0.256210183081969       0.257050693329584     
  0.257891203577198       0.258731713824813       0.259572224072428     
  0.260412734320043       0.261253244567657       0.262093754815272     
  0.262934265062887       0.263774775310502       0.264615285558116     
  0.265455795805731       0.266296306053346       0.267075161726521     
  0.267915671974136       0.268756182221751       0.269596692469365     
  0.270437202716980       0.271277712964595       0.272118223212210     
  0.272958733459824       0.273799243707439       0.274639753955054     
  0.275480264202669       0.276320774450284       0.277161284697898     
  0.278001794945513       0.278842305193128       0.279682815440743     
  0.280523325688358       0.281363835935973       0.282204346183587     
  0.283044856431202       0.283885366678817       0.284725876926432     
  0.285566387174046       0.286406897421662       0.287247407669277     
  0.288087917916891       0.288493913069304       0.289334423316919     
  0.290174933564534       0.291015443812148       0.291855954059763     
  0.292696464307378       0.293536974554993       0.294377484802608     
  0.295217995050223       0.296058505297837       0.296899015545452     
  0.297739525793067       0.298580036040682       0.299420546288296     
  0.300261056535911       0.301101566783526       0.301942077031141     
  0.302782587278755       0.303623097526371       0.304463607773986     
  0.305304118021601       0.306144628269215       0.306985138516830     
  0.307825648764444       0.308666159012059       0.309506669259674     
  0.309173323117451       0.310013833365066       0.310854343612681     
  0.311694853860296       0.312535364107911       0.313375874355525     
  0.314216384603140       0.315056894850755       0.315897405098370     
  0.316737915345984       0.317578425593599       0.318418935841214     
  0.319259446088830       0.320099956336444       0.320940466584058     
  0.321780976831672       0.322621487079289       0.323461997326903     
  0.324302507574517       0.325143017822133       0.325983528069748     
  0.326824038317362       0.327664548564977       0.328505058812592     
  0.329345569060207       0.330186079307821       0.328759561431622     
  0.329600071679237       0.330440581926852       0.331281092174467     
  0.332121602422081       0.332962112669696       0.333802622917311     
  0.334643133164926       0.335483643412541       0.336324153660156     
  0.337164663907771       0.338005174155385       0.338845684403001     
  0.339686194650615       0.340526704898230       0.341367215145845     
  0.342207725393460       0.343048235641074       0.343888745888689     
  0.344729256136304       0.345569766383919       0.346410276631533     
  0.347250786879148       0.348091297126763       0.348931807374377     
  0.349772317621993       0.346917502043931       0.347758012291546     
  0.348598522539161       0.349439032786776       0.350279543034390     
  0.351120053282005       0.351960563529620       0.352801073777235     
  0.353641584024850       0.354482094272464       0.355322604520080     
  0.356163114767695       0.357003625015309       0.357844135262923     
  0.358684645510538       0.359525155758154       0.360365666005768     
  0.361206176253384       0.362046686500998       0.362887196748613     
  0.363727706996227       0.364568217243843       0.365408727491458     
  0.366249237739072       0.367089747986686       0.367930258234302     
  0.363336457556169       0.364176967803784       0.365017478051399     
  0.365857988299014       0.366698498546629       0.367539008794243     
  0.368379519041858       0.369220029289472       0.370060539537087     
  0.370901049784703       0.371741560032317       0.372582070279932     
  0.373422580527547       0.374263090775162       0.375103601022776     
  0.375944111270391       0.376784621518007       0.377625131765620     
  0.378465642013235       0.379306152260850       0.380146662508465     
  0.380987172756079       0.381827683003695       0.382668193251310     
  0.383508703498925       0.384349213746540       0.377735495087327     
  0.378576005334940       0.379416515582557       0.380257025830171     
  0.381097536077786       0.381938046325400       0.382778556573016     
  0.383619066820630       0.384459577068245       0.385300087315860     
  0.386140597563474       0.386981107811090       0.387821618058704     
  0.388662128306320       0.389502638553934       0.390343148801549     
  0.391183659049163       0.392024169296778       0.392864679544394     
  0.393705189792008       0.394545700039623       0.395386210287238     
  0.396226720534852       0.397067230782468       0.397907741030082     
  0.398748251277696       0.389868243113079       0.390708753360694     
  0.391549263608308       0.392389773855923       0.393230284103538     
  0.394070794351154       0.394911304598768       0.395751814846383     
  0.396592325093997       0.397432835341613       0.398273345589227     
  0.399113855836842       0.399954366084456       0.400794876332072     
  0.401635386579686       0.402475896827301       0.403316407074917     
  0.404156917322531       0.404997427570145       0.405837937817761     
  0.406678448065375       0.407518958312990       0.408359468560605     
  0.409199978808220       0.410040489055834       0.410880999303449     
  0.399527106950871       0.400367617198486       0.401208127446101     
  0.402048637693716       0.402889147941332       0.403729658188945     
  0.404570168436561       0.405410678684176       0.406251188931790     
  0.407091699179404       0.407932209427021       0.408772719674634     
  0.409613229922249       0.410453740169864       0.411294250417479     
  0.412134760665094       0.412975270912709       0.413815781160324     
  0.414656291407938       0.415496801655553       0.416337311903168     
  0.417177822150783       0.418018332398398       0.418858842646012     
  0.419699352893627       0.420539863141241       0.406546820762497     
  0.407387331010112       0.408227841257727       0.409068351505342     
  0.409908861752956       0.410749372000571       0.411589882248186     
  0.412430392495801       0.413270902743416       0.414111412991030     
  0.414951923238647       0.415792433486260       0.416632943733876     
  0.417473453981489       0.418313964229105       0.419154474476720     
  0.419994984724334       0.420835494971949       0.421676005219564     
  0.422516515467178       0.423357025714793       0.424197535962408     
  0.425038046210023       0.425878556457638       0.426719066705253     
  0.427559576952867       0.410807275298407       0.411647785546022     
  0.412488295793636       0.413328806041251       0.414169316288865     
  0.415009826536480       0.415850336784096       0.416690847031710     
  0.417531357279325       0.418371867526940       0.419212377774554     
  0.420052888022169       0.420893398269785       0.421733908517399     
  0.422574418765014       0.423414929012629       0.424255439260243     
  0.425095949507858       0.425936459755472       0.426776970003087     
  0.427617480250703       0.428457990498317       0.429298500745932     
  0.430139010993547       0.430979521241162       0.431820031488776     
  0.412235573000268       0.413076083247884       0.413916593495498     
  0.414757103743113       0.415597613990728       0.416438124238343     
  0.417278634485958       0.418119144733572       0.418959654981188     
  0.419800165228802       0.420640675476417       0.421481185724032     
  0.422321695971646       0.423162206219262       0.424002716466876     
  0.424843226714491       0.425683736962105       0.426524247209721     
  0.427364757457335       0.428205267704950       0.429045777952566     
  0.429886288200180       0.430726798447794       0.431567308695410     
  0.432407818943025       0.433248329190640     
  9.454190563355264E-002  9.307758569538017E-002  9.161326575720774E-002
  9.014894581903511E-002  8.868462588086247E-002  8.722030594268991E-002
  8.575598600451731E-002  8.429166606634483E-002  8.282734612817222E-002
  8.136302618999960E-002  7.989870625182716E-002  7.843438631365469E-002
  7.697006637548202E-002  7.550574643730944E-002  7.404142649913674E-002
  7.257710656096428E-002  7.111278662279186E-002  6.964846668461913E-002
  6.818414674644668E-002  6.671982680827415E-002  6.525550687010151E-002
  6.379118693192892E-002  6.232686699375645E-002  6.086254705558390E-002
  5.939822711741131E-002  5.793390717923873E-002  9.536173934868891E-002
  9.389741941051637E-002  9.243309947234374E-002  9.096877953417129E-002
  8.950445959599879E-002  8.804013965782609E-002  8.657581971965372E-002
  8.511149978148118E-002  8.364717984330831E-002  8.218285990513587E-002
  8.071853996696329E-002  7.925422002879071E-002  7.778990009061808E-002
  7.632558015244566E-002  7.486126021427317E-002  7.339694027610058E-002
  7.193262033792805E-002  7.046830039975553E-002  6.900398046158289E-002
  6.753966052341012E-002  6.607534058523798E-002  6.461102064706525E-002
  6.314670070889250E-002  6.168238077071988E-002  6.021806083254744E-002
  5.875374089437495E-002  9.780721291193051E-002  9.634289297375793E-002
  9.487857303558539E-002  9.341425309741290E-002  9.194993315924035E-002
  9.048561322106784E-002  8.902129328289501E-002  8.755697334472270E-002
  8.609265340655012E-002  8.462833346837759E-002  8.316401353020507E-002
  8.169969359203240E-002  8.023537365385994E-002  7.877105371568742E-002
  7.730673377751489E-002  7.584241383934222E-002  7.437809390116971E-002
  7.291377396299700E-002  7.144945402482465E-002  6.998513408665188E-002
  6.852081414847949E-002  6.705649421030695E-002  6.559217427213422E-002
  6.412785433396166E-002  6.266353439578912E-002  6.119921445761663E-002
  0.101836483592597       0.100372163654425       9.890784371625239E-002
  9.744352377807966E-002  9.597920383990693E-002  9.451488390173476E-002
  9.305056396356202E-002  9.158624402538945E-002  9.012192408721692E-002
  8.865760414904446E-002  8.719328421087190E-002  8.572896427269934E-002
  8.426464433452670E-002  8.280032439635425E-002  8.133600445818161E-002
  7.987168452000919E-002  7.840736458183657E-002  7.694304464366397E-002
  7.547872470549125E-002  7.401440476731866E-002  7.255008482914643E-002
  7.108576489097353E-002  6.962144495280105E-002  6.815712501462864E-002
  6.669280507645586E-002  6.522848513828323E-002  0.107380609452218     
  0.105916289514046       0.104451969575873       0.102987649637701     
  0.101523329699528       0.100059009761356       9.859468982318305E-002
  9.713036988501032E-002  9.566604994683782E-002  9.420173000866511E-002
  9.273741007049267E-002  9.127309013232024E-002  8.980877019414751E-002
  8.834445025597489E-002  8.688013031780242E-002  8.541581037962998E-002
  8.395149044145749E-002  8.248717050328470E-002  8.102285056511202E-002
  7.955853062693970E-002  7.809421068876723E-002  7.662989075059440E-002
  7.516557081242199E-002  7.370125087424938E-002  7.223693093607685E-002
  7.077261099790425E-002  0.114344728960213       0.112880409022040     
  0.111416089083868       0.109951769145695       0.108487449207523     
  0.107023129269350       0.105558809331178       0.104094489393005     
  0.102630169454833       0.101165849516660       9.970152957848707E-002
  9.823720964031470E-002  9.677288970214198E-002  9.530856976396963E-002
  9.384424982579717E-002  9.237992988762446E-002  9.091560994945180E-002
  8.945129001127929E-002  8.798697007310691E-002  8.652265013493407E-002
  8.505833019676189E-002  8.359401025858899E-002  8.212969032041666E-002
  8.066537038224399E-002  7.920105044407141E-002  7.773673050589901E-002
  0.122609684100981       0.121145364162808       0.119681044224636     
  0.118216724286463       0.116752404348291       0.115288084410118     
  0.113823764471945       0.112359444533773       0.110895124595600     
  0.109430804657428       0.107966484719255       0.106502164781082     
  0.105037844842910       0.103573524904737       0.102109204966565     
  0.100644885028392       9.918056509021990E-002  9.771624515204737E-002
  9.625192521387491E-002  9.478760527570239E-002  9.332328533752959E-002
  9.185896539935705E-002  9.039464546118453E-002  8.893032552301181E-002
  8.746600558483936E-002  8.600168564666683E-002  0.132034059200585     
  0.130569739262413       0.129105419324240       0.127641099386067     
  0.126176779447895       0.124712459509722       0.123248139571550     
  0.121783819633377       0.120319499695205       0.118855179757032     
  0.117390859818860       0.115926539880687       0.114462219942514     
  0.112997900004342       0.111533580066169       0.110069260127997     
  0.108604940189824       0.107140620251651       0.105676300313479     
  0.104211980375306       0.102747660437134       0.101283340498961     
  9.981902056078877E-002  9.835470062261616E-002  9.689038068444389E-002
  9.542606074627122E-002  0.142456600588141       0.140992280649969     
  0.139527960711796       0.138063640773623       0.136599320835451     
  0.135135000897278       0.133670680959106       0.132206361020933     
  0.130742041082760       0.129277721144588       0.127813401206416     
  0.126349081268243       0.124884761330070       0.123420441391898     
  0.121956121453725       0.120491801515553       0.119027481577380     
  0.117563161639207       0.116098841701035       0.114634521762863     
  0.113170201824690       0.111705881886517       0.110241561948345     
  0.108777242010172       0.107312922072000       0.105848602133827     
  0.153698975690833       0.152234655752661       0.150770335814488     
  0.149306015876316       0.147841695938143       0.146377375999971     
  0.144913056061798       0.143448736123625       0.141984416185453     
  0.140520096247280       0.139055776309108       0.137591456370935     
  0.136127136432763       0.134662816494590       0.133198496556417     
  0.131734176618245       0.130269856680072       0.128805536741900     
  0.127341216803727       0.125876896865554       0.124412576927382     
  0.122948256989209       0.121483937051037       0.120019617112864     
  0.118555297174692       0.117090977236519       0.165568824353679     
  0.164104504415507       0.162640184477334       0.161175864539161     
  0.159711544600989       0.158247224662816       0.156782904724644     
  0.155318584786471       0.153854264848299       0.152389944910126     
  0.150925624971953       0.149461305033781       0.147996985095609     
  0.146532665157436       0.145068345219263       0.143604025281091     
  0.142139705342918       0.140675385404745       0.139211065466573     
  0.137746745528401       0.136282425590228       0.134818105652055     
  0.133353785713883       0.131889465775710       0.130425145837538     
  0.128960825899365       0.177863050175114       0.176398730236941     
  0.174934410298769       0.173470090360596       0.172005770422424     
  0.170541450484251       0.169077130546079       0.167612810607906     
  0.166148490669733       0.164684170731561       0.163219850793389     
  0.161755530855215       0.160291210917043       0.158826890978870     
  0.157362571040698       0.155898251102525       0.154433931164353     
  0.152969611226180       0.151505291288008       0.150040971349835     
  0.148576651411663       0.147112331473490       0.145648011535318     
  0.144183691597145       0.142719371658972       0.141255051720800     
  0.190371295542729       0.188906975604557       0.187442655666384     
  0.185978335728212       0.184514015790039       0.183049695851866     
  0.181585375913694       0.180121055975521       0.178656736037349     
  0.177192416099176       0.175728096161004       0.174263776222831     
  0.172799456284658       0.171335136346486       0.169870816408314     
  0.168406496470141       0.166942176531968       0.165477856593796     
  0.164013536655623       0.162549216717451       0.161084896779278     
  0.159620576841105       0.158156256902933       0.156691936964760     
  0.155227617026588       0.153763297088415       0.202879540910345     
  0.201415220972172       0.199950901034000       0.198486581095827     
  0.197022261157654       0.195557941219482       0.194093621281310     
  0.192629301343137       0.191164981404964       0.189700661466792     
  0.188236341528620       0.186772021590447       0.185307701652274     
  0.183843381714101       0.182379061775929       0.180914741837756     
  0.179450421899584       0.177986101961411       0.176521782023239     
  0.175057462085066       0.173593142146894       0.172128822208721     
  0.170664502270548       0.169200182332376       0.167735862394203     
  0.166271542456031       0.215173766731780       0.213709446793607     
  0.212245126855435       0.210780806917262       0.209316486979090     
  0.207852167040917       0.206387847102745       0.204923527164572     
  0.203459207226399       0.201994887288227       0.200530567350054     
  0.199066247411882       0.197601927473709       0.196137607535536     
  0.194673287597363       0.193208967659191       0.191744647721018     
  0.190280327782846       0.188816007844674       0.187351687906501     
  0.185887367968329       0.184423048030156       0.182958728091983     
  0.181494408153811       0.180030088215638       0.178565768277466     
  0.227043615394626       0.225579295456453       0.224114975518280     
  0.222650655580108       0.221186335641935       0.219722015703763     
  0.218257695765590       0.216793375827418       0.215329055889246     
  0.213864735951072       0.212400416012900       0.210936096074728     
  0.209471776136555       0.208007456198383       0.206543136260210     
  0.205078816322037       0.203614496383865       0.202150176445692     
  0.200685856507519       0.199221536569347       0.197757216631175     
  0.196292896693002       0.194828576754829       0.193364256816657     
  0.191899936878485       0.190435616940311       0.238285990497318     
  0.236821670559145       0.235357350620972       0.233893030682800     
  0.232428710744627       0.230964390806455       0.229500070868283     
  0.228035750930110       0.226571430991937       0.225107111053765     
  0.223642791115592       0.222178471177419       0.220714151239247     
  0.219249831301074       0.217785511362902       0.216321191424730     
  0.214856871486557       0.213392551548384       0.211928231610211     
  0.210463911672039       0.208999591733867       0.207535271795694     
  0.206070951857522       0.204606631919349       0.203142311981176     
  0.201677992043003       0.248708531884873       0.247244211946701     
  0.245779892008529       0.244315572070356       0.242851252132183     
  0.241386932194011       0.239922612255838       0.238458292317666     
  0.236993972379493       0.235529652441320       0.234065332503148     
  0.232601012564976       0.231136692626802       0.229672372688630     
  0.228208052750457       0.226743732812285       0.225279412874113     
  0.223815092935940       0.222350772997768       0.220886453059595     
  0.219422133121422       0.217957813183250       0.216493493245077     
  0.215029173306904       0.213564853368732       0.212100533430560     
  0.258132906984478       0.256668587046305       0.255204267108132     
  0.253739947169960       0.252275627231788       0.250811307293615     
  0.249346987355443       0.247882667417270       0.246418347479097     
  0.244954027540925       0.243489707602753       0.242025387664580     
  0.240561067726407       0.239096747788234       0.237632427850062     
  0.236168107911890       0.234703787973717       0.233239468035544     
  0.231775148097372       0.230310828159199       0.228846508221027     
  0.227382188282853       0.225917868344682       0.224453548406509     
  0.222989228468336       0.221524908530164       0.266397862125246     
  0.264933542187073       0.263469222248901       0.262004902310728     
  0.260540582372556       0.259076262434383       0.257611942496211     
  0.256147622558038       0.254683302619865       0.253218982681693     
  0.251754662743520       0.250290342805348       0.248826022867175     
  0.247361702929003       0.245897382990831       0.244433063052657     
  0.242968743114485       0.241504423176312       0.240040103238139     
  0.238575783299967       0.237111463361795       0.235647143423622     
  0.234182823485450       0.232718503547277       0.231254183609104     
  0.229789863670931       0.273361981633240       0.271897661695068     
  0.270433341756895       0.268969021818723       0.267504701880550     
  0.266040381942378       0.264576062004205       0.263111742066033     
  0.261647422127860       0.260183102189687       0.258718782251515     
  0.257254462313342       0.255790142375170       0.254325822436998     
  0.252861502498824       0.251397182560652       0.249932862622480     
  0.248468542684307       0.247004222746135       0.245539902807962     
  0.244075582869790       0.242611262931617       0.241146942993444     
  0.239682623055272       0.238218303117099       0.236753983178926     
  0.278906107492861       0.277441787554689       0.275977467616517     
  0.274513147678344       0.273048827740171       0.271584507801998     
  0.270120187863827       0.268655867925653       0.267191547987480     
  0.265727228049309       0.264262908111136       0.262798588172963     
  0.261334268234791       0.259869948296617       0.258405628358445     
  0.256941308420273       0.255476988482100       0.254012668543928     
  0.252548348605755       0.251084028667583       0.249619708729410     
  0.248155388791238       0.246691068853065       0.245226748914892     
  0.243762428976720       0.242298109038547       0.282935378173528     
  0.281471058235356       0.280006738297183       0.278542418359011     