 Title = "Wing and Wake"
 VARIABLES = "X" "Y" "Z" "GAM"
 Zone I=   26 J=   25 K=1  T="Blade"
 DATAPACKING=BLOCK
 VARLOCATION=([4]=CELLCENTERED)
  5.119804947116422E-002  5.238886188950519E-002  5.357967430784596E-002
  5.477048672618674E-002  5.596129914452749E-002  5.715211156286851E-002
  5.834292398120928E-002  5.953373639955013E-002  6.072454881789100E-002
  6.191536123623179E-002  6.310617365457277E-002  6.429698607291358E-002
  6.548779849125420E-002  6.667861090959515E-002  6.786942332793584E-002
  6.906023574627689E-002  7.025104816461746E-002  7.144186058295843E-002
  7.263267300129914E-002  7.382348541963997E-002  7.501429783798086E-002
  7.620511025632166E-002  7.739592267466255E-002  7.858673509300337E-002
  7.977754751134421E-002  8.096835992968503E-002  5.236554101769485E-002
  5.355635343603575E-002  5.474716585437653E-002  5.593797827271737E-002
  5.712879069105827E-002  5.831960310939911E-002  5.951041552773981E-002
  6.070122794608067E-002  6.189204036442142E-002  6.308285278276231E-002
  6.427366520110311E-002  6.546447761944391E-002  6.665529003778474E-002
  6.784610245612563E-002  6.903691487446642E-002  7.022772729280734E-002
  7.141853971114798E-002  7.260935212948888E-002  7.380016454782960E-002
  7.499097696617062E-002  7.618178938451148E-002  7.737260180285228E-002
  7.856341422119301E-002  7.975422663953385E-002  8.094503905787472E-002
  8.213585147621552E-002  5.584803955323537E-002  5.703885197157604E-002
  5.822966438991682E-002  5.942047680825773E-002  6.061128922659870E-002
  6.180210164493938E-002  6.299291406328032E-002  6.418372648162123E-002
  6.537453889996216E-002  6.656535131830285E-002  6.775616373664357E-002
  6.894697615498452E-002  7.013778857332528E-002  7.132860099166605E-002
  7.251941341000696E-002  7.371022582834777E-002  7.490103824668833E-002
  7.609185066502944E-002  7.728266308337013E-002  7.847347550171088E-002
  7.966428792005184E-002  8.085510033839262E-002  8.204591275673340E-002
  8.323672517507440E-002  8.442753759341502E-002  8.561835001175587E-002
  6.158595856231183E-002  6.277677098065258E-002  6.396758339899368E-002
  6.515839581733432E-002  6.634920823567511E-002  6.754002065401611E-002
  6.873083307235674E-002  6.992164549069761E-002  7.111245790903854E-002
  7.230327032737922E-002  7.349408274571999E-002  7.468489516406088E-002
  7.587570758240182E-002  7.706652000074256E-002  7.825733241908327E-002
  7.944814483742432E-002  8.063895725576509E-002  8.182976967410573E-002
  8.302058209244671E-002  8.421139451078735E-002  8.540220692912835E-002
  8.659301934746919E-002  8.778383176580992E-002  8.897464418415088E-002
  9.016545660249148E-002  9.135626902083224E-002  6.948112065982742E-002
  7.067193307816819E-002  7.186274549650896E-002  7.305355791484976E-002
  7.424437033319059E-002  7.543518275153152E-002  7.662599516987212E-002
  7.781680758821308E-002  7.900762000655406E-002  8.019843242489479E-002
  8.138924484323543E-002  8.258005726157626E-002  8.377086967991711E-002
  8.496168209825787E-002  8.615249451659862E-002  8.734330693493951E-002
  8.853411935328050E-002  8.972493177162141E-002  9.091574418996209E-002
  9.210655660830290E-002  9.329736902664371E-002  9.448818144498464E-002
  9.567899386332537E-002  9.686980628166628E-002  9.806061870000733E-002
  9.925143111834786E-002  7.939843743334057E-002  8.058924985168160E-002
  8.178006227002216E-002  8.297087468836292E-002  8.416168710670388E-002
  8.535249952504464E-002  8.654331194338551E-002  8.773412436172626E-002
  8.892493678006722E-002  9.011574919840783E-002  9.130656161674892E-002
  9.249737403508970E-002  9.368818645343038E-002  9.487899887177148E-002
  9.606981129011231E-002  9.726062370845293E-002  9.845143612679404E-002
  9.964224854513469E-002  0.100833060963476       0.102023873381816     
  0.103214685800157       0.104405498218498       0.105596310636839     
  0.106787123055180       0.107977935473520       0.109168747891861     
  9.116822084325743E-002  9.235903326159833E-002  9.354984567993949E-002
  9.474065809828004E-002  9.593147051662068E-002  9.712228293496178E-002
  9.831309535330249E-002  9.950390777164307E-002  0.100694720189984     
  0.101885532608325       0.103076345026666       0.104267157445007     
  0.105457969863347       0.106648782281688       0.107839594700029     
  0.109030407118370       0.110221219536711       0.111412031955052     
  0.112602844373392       0.113793656791733       0.114984469210074     
  0.116175281628415       0.117366094046756       0.118556906465097     
  0.119747718883437       0.120938531301778       0.104589086632234     
  0.105779899050575       0.106970711468915       0.108161523887256     
  0.109352336305597       0.110543148723938       0.111733961142279     
  0.112924773560620       0.114115585978960       0.115306398397301     
  0.116497210815642       0.117688023233983       0.118878835652324     
  0.120069648070665       0.121260460489006       0.122451272907346     
  0.123642085325687       0.124832897744028       0.126023710162369     
  0.127214522580709       0.128405334999050       0.129596147417391     
  0.130786959835732       0.131977772254073       0.133168584672413     
  0.134359397090754       0.119431400065653       0.120622212483994     
  0.121813024902335       0.123003837320676       0.124194649739016     
  0.125385462157357       0.126576274575698       0.127767086994039     
  0.128957899412380       0.130148711830720       0.131339524249061     
  0.132530336667402       0.133721149085743       0.134911961504084     
  0.136102773922424       0.137293586340765       0.138484398759106     
  0.139675211177447       0.140866023595788       0.142056836014129     
  0.143247648432469       0.144438460850810       0.145629273269151     
  0.146820085687492       0.148010898105832       0.149201710524174     
  0.135441205045603       0.136632017463943       0.137822829882285     
  0.139013642300625       0.140204454718966       0.141395267137307     
  0.142586079555648       0.143776891973989       0.144967704392329     
  0.146158516810670       0.147349329229011       0.148540141647352     
  0.149730954065693       0.150921766484033       0.152112578902374     
  0.153303391320715       0.154494203739056       0.155685016157397     
  0.156875828575738       0.158066640994078       0.159257453412419     
  0.160448265830760       0.161639078249101       0.162829890667441     
  0.164020703085782       0.165211515504123       0.152344569370119     
  0.153535381788460       0.154726194206801       0.155917006625142     
  0.157107819043483       0.158298631461824       0.159489443880164     
  0.160680256298505       0.161871068716846       0.163061881135187     
  0.164252693553527       0.165443505971868       0.166634318390210     
  0.167825130808550       0.169015943226891       0.170206755645231     
  0.171397568063572       0.172588380481913       0.173779192900254     
  0.174970005318595       0.176160817736936       0.177351630155276     
  0.178542442573617       0.179733254991958       0.180924067410299     
  0.182114879828640       0.169852271789113       0.171043084207454     
  0.172233896625795       0.173424709044135       0.174615521462476     
  0.175806333880817       0.176997146299158       0.178187958717499     
  0.179378771135839       0.180569583554180       0.181760395972521     
  0.182951208390862       0.184142020809202       0.185332833227543     
  0.186523645645884       0.187714458064225       0.188905270482566     
  0.190096082900907       0.191286895319247       0.192477707737588     
  0.193668520155929       0.194859332574270       0.196050144992611     
  0.197240957410952       0.198431769829292       0.199622582247634     
  0.187664750660141       0.188855563078483       0.190046375496824     
  0.191237187915164       0.192428000333505       0.193618812751845     
  0.194809625170187       0.196000437588528       0.197191250006869     
  0.198382062425209       0.199572874843550       0.200763687261890     
  0.201954499680231       0.203145312098573       0.204336124516913     
  0.205526936935254       0.206717749353595       0.207908561771936     
  0.209099374190276       0.210290186608617       0.211480999026958     
  0.212671811445299       0.213862623863640       0.215053436281980     
  0.216244248700321       0.217435061118662       0.205477229531171     
  0.206668041949511       0.207858854367852       0.209049666786193     
  0.210240479204534       0.211431291622875       0.212622104041216     
  0.213812916459556       0.215003728877897       0.216194541296237     
  0.217385353714579       0.218576166132919       0.219766978551260     
  0.220957790969601       0.222148603387942       0.223339415806283     
  0.224530228224623       0.225721040642964       0.226911853061305     
  0.228102665479646       0.229293477897987       0.230484290316328     
  0.231675102734668       0.232865915153009       0.234056727571351     
  0.235247539989691       0.222984931950164       0.224175744368504     
  0.225366556786846       0.226557369205186       0.227748181623527     
  0.228938994041868       0.230129806460208       0.231320618878549     
  0.232511431296890       0.233702243715231       0.234893056133572     
  0.236083868551913       0.237274680970253       0.238465493388594     
  0.239656305806935       0.240847118225276       0.242037930643617     
  0.243228743061957       0.244419555480298       0.245610367898640     
  0.246801180316981       0.247991992735321       0.249182805153662     
  0.250373617572002       0.251564429990343       0.252755242408684     
  0.239888296274680       0.241079108693021       0.242269921111362     
  0.243460733529703       0.244651545948044       0.245842358366385     
  0.247033170784725       0.248223983203066       0.249414795621407     
  0.250605608039748       0.251796420458089       0.252987232876429     
  0.254178045294771       0.255368857713112       0.256559670131452     
  0.257750482549792       0.258941294968134       0.260132107386475     
  0.261322919804815       0.262513732223156       0.263704544641497     
  0.264895357059838       0.266086169478179       0.267276981896520     
  0.268467794314860       0.269658606733201       0.255898101254630     
  0.257088913672971       0.258279726091312       0.259470538509653     
  0.260661350927993       0.261852163346334       0.263042975764675     
  0.264233788183016       0.265424600601356       0.266615413019698     
  0.267806225438039       0.268997037856379       0.270187850274720     
  0.271378662693061       0.272569475111402       0.273760287529743     
  0.274951099948084       0.276141912366424       0.277332724784765     
  0.278523537203106       0.279714349621447       0.280905162039787     
  0.282095974458128       0.283286786876469       0.284477599294809     
  0.285668411713151       0.270740414688049       0.271931227106390     
  0.273122039524731       0.274312851943072       0.275503664361413     
  0.276694476779753       0.277885289198094       0.279076101616435     
  0.280266914034776       0.281457726453117       0.282648538871458     
  0.283839351289799       0.285030163708139       0.286220976126480     
  0.287411788544820       0.288602600963162       0.289793413381502     
  0.290984225799844       0.292175038218184       0.293365850636525     
  0.294556663054866       0.295747475473207       0.296938287891548     
  0.298129100309888       0.299319912728229       0.300510725146570     
  0.284161280477025       0.285352092895367       0.286542905313707     
  0.287733717732048       0.288924530150389       0.290115342568730     
  0.291306154987071       0.292496967405411       0.293687779823752     
  0.294878592242093       0.296069404660434       0.297260217078774     
  0.298451029497116       0.299641841915457       0.300832654333797     
  0.302023466752138       0.303214279170479       0.304405091588819     
  0.305595904007160       0.306786716425501       0.307977528843842     
  0.309168341262182       0.310359153680524       0.311549966098865     
  0.312740778517206       0.313931590935547       0.295931063886943     
  0.297121876305282       0.298312688723625       0.299503501141965     
  0.300694313560306       0.301885125978646       0.303075938396988     
  0.304266750815328       0.305457563233669       0.306648375652010     
  0.307839188070350       0.309030000488691       0.310220812907032     
  0.311411625325374       0.312602437743714       0.313793250162055     
  0.314984062580395       0.316174874998736       0.317365687417077     
  0.318556499835418       0.319747312253759       0.320938124672100     
  0.322128937090440       0.323319749508781       0.324510561927122     
  0.325701374345463       0.305848380660456       0.307039193078797     
  0.308230005497137       0.309420817915478       0.310611630333820     
  0.311802442752160       0.312993255170500       0.314184067588842     
  0.315374880007182       0.316565692425524       0.317756504843865     
  0.318947317262205       0.320138129680546       0.321328942098887     
  0.322519754517228       0.323710566935568       0.324901379353910     
  0.326092191772250       0.327283004190590       0.328473816608932     
  0.329664629027273       0.330855441445613       0.332046253863954     
  0.333237066282295       0.334427878700635       0.335618691118977     
  0.313743542757971       0.314934355176312       0.316125167594653     
  0.317315980012994       0.318506792431335       0.319697604849675     
  0.320888417268017       0.322079229686357       0.323270042104698     
  0.324460854523038       0.325651666941380       0.326842479359720     
  0.328033291778061       0.329224104196402       0.330414916614743     
  0.331605729033084       0.332796541451424       0.333987353869766     
  0.335178166288106       0.336368978706447       0.337559791124788     
  0.338750603543129       0.339941415961470       0.341132228379810     
  0.342323040798151       0.343513853216492       0.319481461767048     
  0.320672274185388       0.321863086603729       0.323053899022070     
  0.324244711440411       0.325435523858752       0.326626336277093     
  0.327817148695434       0.329007961113774       0.330198773532115     
  0.331389585950457       0.332580398368796       0.333771210787138     
  0.334962023205479       0.336152835623819       0.337343648042161     
  0.338534460460501       0.339725272878842       0.340916085297183     
  0.342106897715523       0.343297710133864       0.344488522552205     
  0.345679334970546       0.346870147388886       0.348060959807228     
  0.349251772225568       0.322963960302589       0.324154772720930     
  0.325345585139270       0.326536397557611       0.327727209975951     
  0.328918022394293       0.330108834812634       0.331299647230974     
  0.332490459649315       0.333681272067656       0.334872084485996     
  0.336062896904337       0.337253709322679       0.338444521741019     
  0.339635334159360       0.340826146577701       0.342016958996042     
  0.343207771414382       0.344398583832723       0.345589396251064     
  0.346780208669405       0.347971021087745       0.349161833506086     
  0.350352645924427       0.351543458342768       0.352734270761109     
  0.324131451849119       0.325322264267460       0.326513076685801     
  0.327703889104141       0.328894701522482       0.330085513940823     
  0.331276326359164       0.332467138777505       0.333657951195845     
  0.334848763614186       0.336039576032527       0.337230388450868     
  0.338421200869209       0.339612013287550       0.340802825705890     
  0.341993638124232       0.343184450542572       0.344375262960913     
  0.345566075379253       0.346756887797594       0.347947700215936     
  0.349138512634276       0.350329325052617       0.351520137470958     
  0.352710949889299       0.353901762307640     
  0.111591933984263       0.110394997836426       0.109198061688588     
  0.108001125540751       0.106804189392913       0.105607253245075     
  0.104410317097238       0.103213380949400       0.102016444801562     
  0.100819508653725       9.962257250588698E-002  9.842563635804936E-002
  9.722870021021156E-002  9.603176406237396E-002  9.483482791453608E-002
  9.363789176669859E-002  9.244095561886093E-002  9.124401947102322E-002
  9.004708332318556E-002  8.885014717534791E-002  8.765321102751024E-002
  8.645627487967256E-002  8.525933873183490E-002  8.406240258399730E-002
  8.286546643615961E-002  8.166853028832187E-002  0.112753452444900     
  0.111556516297062       0.110359580149225       0.109162644001387     
  0.107965707853549       0.106768771705712       0.105571835557874     
  0.104374899410036       0.103177963262199       0.101981027114361     
  0.100784090966523       9.958715481868559E-002  9.839021867084788E-002
  9.719328252301035E-002  9.599634637517271E-002  9.479941022733503E-002
  9.360247407949736E-002  9.240553793165976E-002  9.120860178382197E-002
  9.001166563598417E-002  8.881472948814692E-002  8.761779334030909E-002
  8.642085719247115E-002  8.522392104463347E-002  8.402698489679589E-002
  8.283004874895829E-002  0.116218133923914       0.115021197776076     
  0.113824261628238       0.112627325480401       0.111430389332563     
  0.110233453184725       0.109036517036888       0.107839580889050     
  0.106642644741213       0.105445708593375       0.104248772445537     
  0.103051836297699       0.101854900149862       0.100657964002024     
  9.946102785418656E-002  9.826409170634885E-002  9.706715555851113E-002
  9.587021941067346E-002  9.467328326283585E-002  9.347634711499803E-002
  9.227941096716058E-002  9.108247481932287E-002  8.988553867148505E-002
  8.868860252364744E-002  8.749166637580974E-002  8.629473022797211E-002
  0.121926696760608       0.120729760612770       0.119532824464933     
  0.118335888317095       0.117138952169257       0.115942016021420     
  0.114745079873582       0.113548143725744       0.112351207577907     
  0.111154271430069       0.109957335282231       0.108760399134394     
  0.107563462986556       0.106366526838719       0.105169590690881     
  0.103972654543043       0.102775718395206       0.101578782247368     
  0.100381846099530       9.918490995169225E-002  9.798797380385497E-002
  9.679103765601704E-002  9.559410150817936E-002  9.439716536034187E-002
  9.320022921250395E-002  9.200329306466619E-002  0.129781465862134     
  0.128584529714297       0.127387593566459       0.126190657418622     
  0.124993721270784       0.123796785122946       0.122599848975108     
  0.121402912827271       0.120205976679433       0.119009040531595     
  0.117812104383758       0.116615168235920       0.115418232088082     
  0.114221295940245       0.113024359792407       0.111827423644569     
  0.110630487496732       0.109433551348894       0.108236615201056     
  0.107039679053219       0.105842742905381       0.104645806757543     
  0.103448870609706       0.102251934461868       0.101054998314030     
  9.985806216619258E-002  0.139648043951412       0.138451107803574     
  0.137254171655736       0.136057235507899       0.134860299360061     
  0.133663363212224       0.132466427064386       0.131269490916548     
  0.130072554768711       0.128875618620873       0.127678682473035     
  0.126481746325198       0.125284810177360       0.124087874029522     
  0.122890937881685       0.121694001733847       0.120497065586009     
  0.119300129438172       0.118103193290334       0.116906257142496     
  0.115709320994659       0.114512384846821       0.113315448698983     
  0.112118512551146       0.110921576403308       0.109724640255470     
  0.151357611141801       0.150160674993963       0.148963738846126     
  0.147766802698288       0.146569866550451       0.145372930402613     
  0.144175994254775       0.142979058106938       0.141782121959100     
  0.140585185811262       0.139388249663425       0.138191313515587     
  0.136994377367749       0.135797441219911       0.134600505072074     
  0.133403568924236       0.132206632776399       0.131009696628561     
  0.129812760480723       0.128615824332886       0.127418888185048     
  0.126221952037210       0.125025015889373       0.123828079741535     
  0.122631143593697       0.121434207445860       0.164709813492169     
  0.163512877344331       0.162315941196494       0.161119005048656     
  0.159922068900818       0.158725132752981       0.157528196605143     
  0.156331260457306       0.155134324309468       0.153937388161630     
  0.152740452013793       0.151543515865955       0.150346579718117     
  0.149149643570280       0.147952707422442       0.146755771274604     
  0.145558835126766       0.144361898978929       0.143164962831091     
  0.141968026683253       0.140771090535416       0.139574154387578     
  0.138377218239740       0.137180282091903       0.135983345944065     
  0.134786409796228       0.179476191118371       0.178279254970534     
  0.177082318822696       0.175885382674858       0.174688446527021     
  0.173491510379183       0.172294574231345       0.171097638083507     
  0.169900701935670       0.168703765787832       0.167506829639994     
  0.166309893492157       0.165112957344319       0.163916021196481     
  0.162719085048644       0.161522148900806       0.160325212752968     
  0.159128276605131       0.157931340457293       0.156734404309456     
  0.155537468161618       0.154340532013780       0.153143595865942     
  0.151946659718105       0.150749723570267       0.149552787422429     
  0.195404087205209       0.194207151057372       0.193010214909534     
  0.191813278761697       0.190616342613859       0.189419406466021     
  0.188222470318183       0.187025534170346       0.185828598022508     
  0.184631661874671       0.183434725726833       0.182237789578995     
  0.181040853431157       0.179843917283320       0.178646981135482     
  0.177450044987644       0.176253108839807       0.175056172691969     
  0.173859236544131       0.172662300396294       0.171465364248456     
  0.170268428100618       0.169071491952781       0.167874555804943     
  0.166677619657105       0.165480683509267       0.212220971034591     
  0.211024034886754       0.209827098738916       0.208630162591078     
  0.207433226443241       0.206236290295403       0.205039354147565     
  0.203842417999728       0.202645481851890       0.201448545704052     
  0.200251609556214       0.199054673408377       0.197857737260539     
  0.196660801112702       0.195463864964864       0.194266928817026     
  0.193069992669188       0.191873056521351       0.190676120373513     
  0.189479184225676       0.188282248077838       0.187085311930000     
  0.185888375782162       0.184691439634325       0.183494503486487     
  0.182297567338649       0.229639101061674       0.228442164913837     
  0.227245228766000       0.226048292618162       0.224851356470324     
  0.223654420322486       0.222457484174649       0.221260548026811     
  0.220063611878973       0.218866675731135       0.217669739583298     
  0.216472803435460       0.215275867287623       0.214078931139784     
  0.212881994991947       0.211685058844110       0.210488122696272     
  0.209291186548434       0.208094250400597       0.206897314252759     
  0.205700378104921       0.204503441957084       0.203306505809246     
  0.202109569661408       0.200912633513571       0.199715697365733     
  0.247360448252479       0.246163512104641       0.244966575956803     
  0.243769639808965       0.242572703661128       0.241375767513290     
  0.240178831365452       0.238981895217615       0.237784959069778     
  0.236588022921940       0.235391086774102       0.234194150626264     
  0.232997214478426       0.231800278330589       0.230603342182752     
  0.229406406034913       0.228209469887076       0.227012533739238     
  0.225815597591400       0.224618661443563       0.223421725295725     
  0.222224789147887       0.221027853000050       0.219830916852212     
  0.218633980704374       0.217437044556537       0.265081795443283     
  0.263884859295445       0.262687923147607       0.261490986999769     
  0.260294050851931       0.259097114704094       0.257900178556257     
  0.256703242408419       0.255506306260581       0.254309370112743     
  0.253112433964906       0.251915497817068       0.250718561669230     
  0.249521625521392       0.248324689373555       0.247127753225717     
  0.245930817077879       0.244733880930042       0.243536944782204     
  0.242340008634367       0.241143072486529       0.239946136338691     
  0.238749200190854       0.237552264043016       0.236355327895178     
  0.235158391747341       0.282499925470366       0.281302989322528     
  0.280106053174691       0.278909117026852       0.277712180879015     
  0.276515244731177       0.275318308583340       0.274121372435502     
  0.272924436287665       0.271727500139827       0.270530563991989     
  0.269333627844152       0.268136691696314       0.266939755548476     
  0.265742819400638       0.264545883252801       0.263348947104963     
  0.262152010957125       0.260955074809288       0.259758138661450     
  0.258561202513613       0.257364266365775       0.256167330217937     
  0.254970394070099       0.253773457922262       0.252576521774424     
  0.299316809299748       0.298119873151909       0.296922937004072     
  0.295726000856235       0.294529064708397       0.293332128560559     
  0.292135192412721       0.290938256264885       0.289741320117047     
  0.288544383969209       0.287347447821371       0.286150511673534     
  0.284953575525696       0.283756639377858       0.282559703230020     
  0.281362767082183       0.280165830934345       0.278968894786507     
  0.277771958638669       0.276575022490832       0.275378086342995     
  0.274181150195156       0.272984214047319       0.271787277899481     
  0.270590341751644       0.269393405603806       0.315244705386586     
  0.314047769238748       0.312850833090910       0.311653896943073     
  0.310456960795235       0.309260024647398       0.308063088499561     
  0.306866152351723       0.305669216203885       0.304472280056047     
  0.303275343908210       0.302078407760371       0.300881471612534     
  0.299684535464696       0.298487599316858       0.297290663169021     
  0.296093727021184       0.294896790873346       0.293699854725508     
  0.292502918577670       0.291305982429833       0.290109046281995     
  0.288912110134158       0.287715173986319       0.286518237838482     
  0.285321301690644       0.330011083012788       0.328814146864950     
  0.327617210717113       0.326420274569275       0.325223338421437     
  0.324026402273600       0.322829466125762       0.321632529977924     
  0.320435593830086       0.319238657682249       0.318041721534411     
  0.316844785386574       0.315647849238735       0.314450913090898     
  0.313253976943060       0.312057040795223       0.310860104647385     
  0.309663168499548       0.308466232351711       0.307269296203872     
  0.306072360056034       0.304875423908197       0.303678487760359     
  0.302481551612521       0.301284615464684       0.300087679316846     
  0.343363285363155       0.342166349215318       0.340969413067480     
  0.339772476919643       0.338575540771805       0.337378604623968     
  0.336181668476130       0.334984732328292       0.333787796180454     
  0.332590860032617       0.331393923884779       0.330196987736941     
  0.329000051589104       0.327803115441266       0.326606179293428     
  0.325409243145591       0.324212306997753       0.323015370849915     
  0.321818434702078       0.320621498554240       0.319424562406403     
  0.318227626258564       0.317030690110727       0.315833753962890     
  0.314636817815052       0.313439881667214       0.355072852553545     
  0.353875916405707       0.352678980257870       0.351482044110032     
  0.350285107962195       0.349088171814356       0.347891235666519     
  0.346694299518681       0.345497363370843       0.344300427223006     
  0.343103491075168       0.341906554927331       0.340709618779492     
  0.339512682631656       0.338315746483818       0.337118810335980     
  0.335921874188142       0.334724938040305       0.333528001892467     
  0.332331065744629       0.331134129596792       0.329937193448954     
  0.328740257301116       0.327543321153279       0.326346385005441     
  0.325149448857603       0.364939430642823       0.363742494494985     
  0.362545558347147       0.361348622199310       0.360151686051472     
  0.358954749903635       0.357757813755797       0.356560877607959     
  0.355363941460121       0.354167005312284       0.352970069164447     
  0.351773133016608       0.350576196868771       0.349379260720934     
  0.348182324573095       0.346985388425257       0.345788452277420     
  0.344591516129583       0.343394579981745       0.342197643833907     
  0.341000707686070       0.339803771538232       0.338606835390394     
  0.337409899242556       0.336212963094719       0.335016026946881     
  0.372794199744348       0.371597263596511       0.370400327448674     
  0.369203391300836       0.368006455152998       0.366809519005160     
  0.365612582857324       0.364415646709485       0.363218710561647     
  0.362021774413810       0.360824838265973       0.359627902118134     
  0.358430965970297       0.357234029822459       0.356037093674621     
  0.354840157526784       0.353643221378946       0.352446285231109     
  0.351249349083271       0.350052412935433       0.348855476787596     
  0.347658540639758       0.346461604491920       0.345264668344083     
  0.344067732196245       0.342870796048407       0.378502762581043     
  0.377305826433206       0.376108890285367       0.374911954137530     