 Title = "Wing and Wake"
 VARIABLES = "X" "Y" "Z" "GAM" "skew"
 Zone I=   11 J=   26 K=1  T="Blade"
 DATAPACKING=BLOCK
 VARLOCATION=([4]=CELLCENTERED,[5]=CELLCENTERED)
 -0.261325994666689      -0.245389890032568      -0.229453785398446     
 -0.213517680764326      -0.197581576130205      -0.181645471496084     
 -0.165709366861962      -0.149773262227842      -0.133837157593721     
 -0.117901052959600      -0.101964948325479      -0.263335572531209     
 -0.247399467897088      -0.231463363262967      -0.215527258628846     
 -0.199591153994725      -0.183655049360604      -0.167718944726483     
 -0.151782840092362      -0.135846735458241      -0.119910630824121     
 -0.103974526189999      -0.269332613881383      -0.253396509247262     
 -0.237460404613141      -0.221524299979020      -0.205588195344899     
 -0.189652090710778      -0.173715986076657      -0.157779881442537     
 -0.141843776808415      -0.125907672174294      -0.109971567540173     
 -0.279222541792660      -0.263286437158539      -0.247350332524418     
 -0.231414227890296      -0.215478123256176      -0.199542018622055     
 -0.183605913987934      -0.167669809353813      -0.151733704719692     
 -0.135797600085571      -0.119861495451450      -0.292849386193922     
 -0.276913281559800      -0.260977176925679      -0.245041072291558     
 -0.229104967657438      -0.213168863023316      -0.197232758389196     
 -0.181296653755075      -0.165360549120954      -0.149424444486833     
 -0.133488339852712      -0.309998243608678      -0.294062138974557     
 -0.278126034340436      -0.262189929706315      -0.246253825072194     
 -0.230317720438073      -0.214381615803952      -0.198445511169831     
 -0.182509406535710      -0.166573301901589      -0.150637197267468     
 -0.330398666311268      -0.314462561677147      -0.298526457043027     
 -0.282590352408906      -0.266654247774784      -0.250718143140663     
 -0.234782038506542      -0.218845933872421      -0.202909829238300     
 -0.186973724604179      -0.171037619970058      -0.353728927449050     
 -0.337792822814929      -0.321856718180808      -0.305920613546687     
 -0.289984508912566      -0.274048404278446      -0.258112299644324     
 -0.242176195010203      -0.226240090376082      -0.210303985741961     
 -0.194367881107841      -0.379621094867058      -0.363684990232938     
 -0.347748885598817      -0.331812780964696      -0.315876676330574     
 -0.299940571696453      -0.284004467062333      -0.268068362428212     
 -0.252132257794091      -0.236196153159970      -0.220260048525849     
 -0.407666833617880      -0.391730728983759      -0.375794624349638     
 -0.359858519715517      -0.343922415081396      -0.327986310447275     
 -0.312050205813154      -0.296114101179034      -0.280177996544912     
 -0.264241891910792      -0.248305787276671      -0.437423845647703     
 -0.421487741013582      -0.405551636379461      -0.389615531745340     
 -0.373679427111218      -0.357743322477098      -0.341807217842977     
 -0.325871113208856      -0.309935008574736      -0.293998903940614     
 -0.278062799306493      -0.468422845100839      -0.452486740466716     
 -0.436550635832596      -0.420614531198475      -0.404678426564354     
 -0.388742321930234      -0.372806217296111      -0.356870112661991     
 -0.340934008027871      -0.324997903393750      -0.309061798759629     
 -0.500174959238006      -0.484238854603886      -0.468302749969763     
 -0.452366645335644      -0.436430540701522      -0.420494436067402     
 -0.404558331433280      -0.388622226799159      -0.372686122165039     
 -0.356750017530918      -0.340813912896796      -0.532179438251469     
 -0.516243333617349      -0.500307228983227      -0.484371124349106     
 -0.468435019714986      -0.452498915080865      -0.436562810446743     
 -0.420626705812623      -0.404690601178501      -0.388754496544380     
 -0.372818391910260      -0.563931552388638      -0.547995447754517     
 -0.532059343120396      -0.516123238486275      -0.500187133852155     
 -0.484251029218033      -0.468314924583912      -0.452378819949791     
 -0.436442715315671      -0.420506610681550      -0.404570506047429     
 -0.594930551841772      -0.578994447207651      -0.563058342573531     
 -0.547122237939410      -0.531186133305290      -0.515250028671168     
 -0.499313924037047      -0.483377819402926      -0.467441714768804     
 -0.451505610134684      -0.435569505500564      -0.624687563871595     
 -0.608751459237474      -0.592815354603354      -0.576879249969233     
 -0.560943145335112      -0.545007040700990      -0.529070936066869     
 -0.513134831432749      -0.497198726798627      -0.481262622164508     
 -0.465326517530387      -0.652733302622417      -0.636797197988295     
 -0.620861093354174      -0.604924988720055      -0.588988884085933     
 -0.573052779451813      -0.557116674817691      -0.541180570183570     
 -0.525244465549449      -0.509308360915328      -0.493372256281208     
 -0.678625470040426      -0.662689365406305      -0.646753260772182     
 -0.630817156138062      -0.614881051503942      -0.598944946869820     
 -0.583008842235698      -0.567072737601579      -0.551136632967458     
 -0.535200528333336      -0.519264423699216      -0.701955731178208     
 -0.686019626544086      -0.670083521909965      -0.654147417275845     
 -0.638211312641723      -0.622275208007602      -0.606339103373482     
 -0.590402998739360      -0.574466894105241      -0.558530789471119     
 -0.542594684836998      -0.722356153880796      -0.706420049246676     
 -0.690483944612555      -0.674547839978435      -0.658611735344313     
 -0.642675630710191      -0.626739526076073      -0.610803421441951     
 -0.594867316807830      -0.578931212173708      -0.562995107539587     
 -0.739505011295554      -0.723568906661435      -0.707632802027312     
 -0.691696697393191      -0.675760592759071      -0.659824488124949     
 -0.643888383490828      -0.627952278856707      -0.612016174222585     
 -0.596080069588466      -0.580143964954344      -0.753131855696819     
 -0.737195751062695      -0.721259646428574      -0.705323541794452     
 -0.689387437160332      -0.673451332526211      -0.657515227892088     
 -0.641579123257969      -0.625643018623848      -0.609706913989728     
 -0.593770809355605      -0.763021783608094      -0.747085678973973     
 -0.731149574339851      -0.715213469705729      -0.699277365071609     
 -0.683341260437487      -0.667405155803367      -0.651469051169246     
 -0.635532946535125      -0.619596841901003      -0.603660737266882     
 -0.769018824958267      -0.753082720324145      -0.737146615690024     
 -0.721210511055903      -0.705274406421782      -0.689338301787661     
 -0.673402197153540      -0.657466092519418      -0.641529987885299     
 -0.625593883251179      -0.609657778617057      -0.771028402822787     
 -0.755092298188668      -0.739156193554545      -0.723220088920425     
 -0.707283984286302      -0.691347879652182      -0.675411775018060     
 -0.659475670383939      -0.643539565749820      -0.627603461115698     
 -0.611667356481578     
  6.000692204727472E-002  7.010216624419592E-002  8.019741044111706E-002
  9.029265463803840E-002  0.100387898834959       0.110483143031881     
  0.120578387228802       0.130673631425723       0.140768875622644     
  0.150864119819566       0.160959364016487       6.317919232570746E-002
  7.327443652262849E-002  8.336968071954959E-002  9.346492491647061E-002
  0.103560169113392       0.113655413310313       0.123750657507234     
  0.133845901704156       0.143941145901077       0.154036390097998     
  0.164131634294920       7.264597456369074E-002  8.274121876061188E-002
  9.283646295753320E-002  0.102931707154454       0.113026951351376     
  0.123122195548297       0.133217439745218       0.143312683942140     
  0.153407928139061       0.163503172335982       0.173598416532903     
  8.825797195015185E-002  9.835321614707314E-002  0.108448460343994     
  0.118543704540915       0.128638948737837       0.138734192934758     
  0.148829437131679       0.158924681328600       0.169019925525521     
  0.179115169722443       0.189210413919364       0.109768973960150     
  0.119864218157071       0.129959462353992       0.140054706550913     
  0.150149950747835       0.160245194944756       0.170340439141677     
  0.180435683338598       0.190530927535519       0.200626171732441     
  0.210721415929362       0.136839739241937       0.146934983438859     
  0.157030227635779       0.167125471832701       0.177220716029622     
  0.187315960226544       0.197411204423464       0.207506448620386     
  0.217601692817307       0.227696937014228       0.237792181211150     
  0.169043345655730       0.179138589852651       0.189233834049572     
  0.199329078246494       0.209424322443415       0.219519566640336     
  0.229614810837257       0.239710055034178       0.249805299231100     
  0.259900543428021       0.269995787624941       0.205871923090879     
  0.215967167287801       0.226062411484722       0.236157655681643     
  0.246252899878564       0.256348144075486       0.266443388272407     
  0.276538632469328       0.286633876666249       0.296729120863171     
  0.306824365060092       0.246744662880908       0.256839907077830     
  0.266935151274751       0.277030395471672       0.287125639668593     
  0.297220883865514       0.307316128062435       0.317411372259357     
  0.327506616456277       0.337601860653199       0.347697104850120     
  0.291016977503137       0.301112221700057       0.311207465896979     
  0.321302710093899       0.331397954290821       0.341493198487742     
  0.351588442684663       0.361683686881585       0.371778931078506     
  0.381874175275427       0.391969419472348       0.337990666108972     
  0.348085910305894       0.358181154502814       0.368276398699735     
  0.378371642896657       0.388466887093577       0.398562131290499     
  0.408657375487420       0.418752619684343       0.428847863881263     
  0.438943108078184       0.386924925568380       0.397020169765300     
  0.407115413962223       0.417210658159143       0.427305902356065     
  0.437401146552986       0.447496390749906       0.457591634946828     
  0.467686879143750       0.477782123340671       0.487877367537591     
  0.437048033377775       0.447143277574697       0.457238521771618     
  0.467333765968540       0.477429010165460       0.487524254362381     
  0.497619498559303       0.507714742756224       0.517809986953145     
  0.527905231150066       0.538000475346987       0.487569518184912     
  0.497664762381833       0.507760006578754       0.517855250775675     
  0.527950494972597       0.538045739169518       0.548140983366438     
  0.558236227563359       0.568331471760281       0.578426715957202     
  0.588521960154124       0.537692625994307       0.547787870191229     
  0.557883114388150       0.567978358585072       0.578073602781992     
  0.588168846978913       0.598264091175835       0.608359335372754     
  0.618454579569678       0.628549823766599       0.638645067963520     
  0.586626885453713       0.596722129650636       0.606817373847557     
  0.616912618044479       0.627007862241401       0.637103106438321     
  0.647198350635242       0.657293594832164       0.667388839029083     
  0.677484083226007       0.687579327422928       0.633600574059552     
  0.643695818256471       0.653791062453393       0.663886306650315     
  0.673981550847236       0.684076795044156       0.694172039241077     
  0.704267283437999       0.714362527634920       0.724457771831842     
  0.734553016028764       0.677872888681778       0.687968132878700     
  0.698063377075620       0.708158621272544       0.718253865469463     
  0.728349109666385       0.738444353863306       0.748539598060228     
  0.758634842257148       0.768730086454069       0.778825330650990     
  0.718745628471808       0.728840872668729       0.738936116865650     
  0.749031361062571       0.759126605259491       0.769221849456412     
  0.779317093653334       0.789412337850256       0.799507582047178     
  0.809602826244098       0.819698070441019       0.755574205906957     
  0.765669450103878       0.775764694300798       0.785859938497720     
  0.795955182694641       0.806050426891563       0.816145671088485     
  0.826240915285406       0.836336159482329       0.846431403679247     
  0.856526647876168       0.787777812320749       0.797873056517671     
  0.807968300714590       0.818063544911514       0.828158789108435     
  0.838254033305355       0.848349277502279       0.858444521699197     
  0.868539765896119       0.878635010093041       0.888730254289960     
  0.814848577602538       0.824943821799459       0.835039065996381     
  0.845134310193301       0.855229554390222       0.865324798587143     
  0.875420042784063       0.885515286980985       0.895610531177906     
  0.905705775374827       0.915801019571751       0.836359579612535     
  0.846454823809458       0.856550068006379       0.866645312203297     
  0.876740556400220       0.886835800597141       0.896931044794060     
  0.907026288990983       0.917121533187905       0.927216777384829     
  0.937312021581747       0.851971576998997       0.862066821195917     
  0.872162065392839       0.882257309589760       0.892352553786682     
  0.902447797983603       0.912543042180523       0.922638286377445     
  0.932733530574366       0.942828774771287       0.952924018968208     
  0.861438359236982       0.871533603433900       0.881628847630820     
  0.891724091827743       0.901819336024666       0.911914580221585     
  0.922009824418507       0.932105068615425       0.942200312812350     
  0.952295557009272       0.962390801206190       0.864610629515415     
  0.874705873712334       0.884801117909254       0.894896362106176     
  0.904991606303097       0.915086850500016       0.925182094696939     
  0.935277338893861       0.945372583090783       0.955467827287705     
  0.965563071484627     
  2.651247573289247E-002  2.386122815960322E-002  2.120998058631397E-002
  1.855873301302472E-002  1.590748543973548E-002  1.325623786644623E-002
  1.060499029315698E-002  7.953742719867740E-003  5.302495146578492E-003
  2.651247573289244E-003  0.000000000000000E+000  2.651247573289247E-002
  2.386122815960322E-002  2.120998058631397E-002  1.855873301302472E-002
  1.590748543973548E-002  1.325623786644623E-002  1.060499029315698E-002
  7.953742719867740E-003  5.302495146578492E-003  2.651247573289244E-003
  0.000000000000000E+000  2.651247573289247E-002  2.386122815960322E-002
  2.120998058631397E-002  1.855873301302472E-002  1.590748543973548E-002
  1.325623786644623E-002  1.060499029315698E-002  7.953742719867740E-003
  5.302495146578492E-003  2.651247573289244E-003  0.000000000000000E+000
  2.651247573289247E-002  2.386122815960322E-002  2.120998058631397E-002
  1.855873301302472E-002  1.590748543973548E-002  1.325623786644623E-002
  1.060499029315698E-002  7.953742719867740E-003  5.302495146578492E-003
  2.651247573289244E-003  0.000000000000000E+000  2.651247573289247E-002
  2.386122815960322E-002  2.120998058631397E-002  1.855873301302472E-002
  1.590748543973548E-002  1.325623786644623E-002  1.060499029315698E-002
  7.953742719867740E-003  5.302495146578492E-003  2.651247573289244E-003
  0.000000000000000E+000  2.651247573289247E-002  2.386122815960322E-002
  2.120998058631397E-002  1.855873301302472E-002  1.590748543973548E-002
  1.325623786644623E-002  1.060499029315698E-002  7.953742719867740E-003
  5.302495146578492E-003  2.651247573289244E-003  0.000000000000000E+000
  2.651247573289247E-002  2.386122815960322E-002  2.120998058631397E-002
  1.855873301302472E-002  1.590748543973548E-002  1.325623786644623E-002
  1.060499029315698E-002  7.953742719867740E-003  5.302495146578492E-003
  2.651247573289244E-003  0.000000000000000E+000  2.651247573289247E-002
  2.386122815960322E-002  2.120998058631397E-002  1.855873301302472E-002
  1.590748543973548E-002  1.325623786644623E-002  1.060499029315698E-002
  7.953742719867740E-003  5.302495146578492E-003  2.651247573289244E-003
  0.000000000000000E+000  2.651247573289247E-002  2.386122815960322E-002
  2.120998058631397E-002  1.855873301302472E-002  1.590748543973548E-002
  1.325623786644623E-002  1.060499029315698E-002  7.953742719867740E-003
  5.302495146578492E-003  2.651247573289244E-003  0.000000000000000E+000
  2.651247573289247E-002  2.386122815960322E-002  2.120998058631397E-002
  1.855873301302472E-002  1.590748543973548E-002  1.325623786644623E-002
  1.060499029315698E-002  7.953742719867740E-003  5.302495146578492E-003
  2.651247573289244E-003  0.000000000000000E+000  2.651247573289247E-002
  2.386122815960322E-002  2.120998058631397E-002  1.855873301302472E-002
  1.590748543973548E-002  1.325623786644623E-002  1.060499029315698E-002
  7.953742719867740E-003  5.302495146578492E-003  2.651247573289244E-003
  0.000000000000000E+000  2.651247573289247E-002  2.386122815960322E-002
  2.120998058631397E-002  1.855873301302472E-002  1.590748543973548E-002
  1.325623786644623E-002  1.060499029315698E-002  7.953742719867740E-003
  5.302495146578492E-003  2.651247573289244E-003  0.000000000000000E+000
  2.651247573289247E-002  2.386122815960322E-002  2.120998058631397E-002
  1.855873301302472E-002  1.590748543973548E-002  1.325623786644623E-002
  1.060499029315698E-002  7.953742719867740E-003  5.302495146578492E-003
  2.651247573289244E-003  0.000000000000000E+000  2.651247573289247E-002
  2.386122815960322E-002  2.120998058631397E-002  1.855873301302472E-002
  1.590748543973548E-002  1.325623786644623E-002  1.060499029315698E-002
  7.953742719867740E-003  5.302495146578492E-003  2.651247573289244E-003
  0.000000000000000E+000  2.651247573289247E-002  2.386122815960322E-002
  2.120998058631397E-002  1.855873301302472E-002  1.590748543973548E-002
  1.325623786644623E-002  1.060499029315698E-002  7.953742719867740E-003
  5.302495146578492E-003  2.651247573289244E-003  0.000000000000000E+000
  2.651247573289247E-002  2.386122815960322E-002  2.120998058631397E-002
  1.855873301302472E-002  1.590748543973548E-002  1.325623786644623E-002
  1.060499029315698E-002  7.953742719867740E-003  5.302495146578492E-003
  2.651247573289244E-003  0.000000000000000E+000  2.651247573289247E-002
  2.386122815960322E-002  2.120998058631397E-002  1.855873301302472E-002
  1.590748543973548E-002  1.325623786644623E-002  1.060499029315698E-002
  7.953742719867740E-003  5.302495146578492E-003  2.651247573289244E-003
  0.000000000000000E+000  2.651247573289247E-002  2.386122815960322E-002
  2.120998058631397E-002  1.855873301302472E-002  1.590748543973548E-002
  1.325623786644623E-002  1.060499029315698E-002  7.953742719867740E-003
  5.302495146578492E-003  2.651247573289244E-003  0.000000000000000E+000
  2.651247573289247E-002  2.386122815960322E-002  2.120998058631397E-002
  1.855873301302472E-002  1.590748543973548E-002  1.325623786644623E-002
  1.060499029315698E-002  7.953742719867740E-003  5.302495146578492E-003
  2.651247573289244E-003  0.000000000000000E+000  2.651247573289247E-002
  2.386122815960322E-002  2.120998058631397E-002  1.855873301302472E-002
  1.590748543973548E-002  1.325623786644623E-002  1.060499029315698E-002
  7.953742719867740E-003  5.302495146578492E-003  2.651247573289244E-003
  0.000000000000000E+000  2.651247573289247E-002  2.386122815960322E-002
  2.120998058631397E-002  1.855873301302472E-002  1.590748543973548E-002
  1.325623786644623E-002  1.060499029315698E-002  7.953742719867740E-003
  5.302495146578492E-003  2.651247573289244E-003  0.000000000000000E+000
  2.651247573289247E-002  2.386122815960322E-002  2.120998058631397E-002
  1.855873301302472E-002  1.590748543973548E-002  1.325623786644623E-002
  1.060499029315698E-002  7.953742719867740E-003  5.302495146578492E-003
  2.651247573289244E-003  0.000000000000000E+000  2.651247573289247E-002
  2.386122815960322E-002  2.120998058631397E-002  1.855873301302472E-002
  1.590748543973548E-002  1.325623786644623E-002  1.060499029315698E-002
  7.953742719867740E-003  5.302495146578492E-003  2.651247573289244E-003
  0.000000000000000E+000  2.651247573289247E-002  2.386122815960322E-002
  2.120998058631397E-002  1.855873301302472E-002  1.590748543973548E-002
  1.325623786644623E-002  1.060499029315698E-002  7.953742719867740E-003
  5.302495146578492E-003  2.651247573289244E-003  0.000000000000000E+000
  2.651247573289247E-002  2.386122815960322E-002  2.120998058631397E-002
  1.855873301302472E-002  1.590748543973548E-002  1.325623786644623E-002
  1.060499029315698E-002  7.953742719867740E-003  5.302495146578492E-003
  2.651247573289244E-003  0.000000000000000E+000  2.651247573289247E-002
  2.386122815960322E-002  2.120998058631397E-002  1.855873301302472E-002
  1.590748543973548E-002  1.325623786644623E-002  1.060499029315698E-002
  7.953742719867740E-003  5.302495146578492E-003  2.651247573289244E-003
  0.000000000000000E+000
  4.995752280402015E-002  8.709895417753573E-002  0.124336537158517     
  0.158854896260999       0.186560886744760       0.207450508753286     
  0.220987901214998       0.225461421625128       0.221771130349431     
  0.211384764043510       7.993256667187953E-002  0.140339435910020     
  0.200358341925323       0.256249533563454       0.302140241037544     
  0.337442181429323       0.360595543676697       0.368855713397270     
  0.363423363912639       0.347365410141504       9.751386195477703E-002
  0.171623652236354       0.243441430021224       0.310373964189761     
  0.367755109012876       0.413657917419868       0.444759873979185     
  0.456824923202547       0.451325418219950       0.431455075750206     
  0.101891939854838       0.176383676087210       0.245531038313158     
  0.309740056644385       0.365986113451200       0.411358386290880     
  0.442157278328231       0.454941964063304       0.450693239398457     
  0.432424028277995       0.102057235584477       0.169075929198540     
  0.229688065870873       0.286031371853888       0.335554127168953     
  0.374396717382204       0.399915324536110       0.411936423939510     
  0.411927472499501       0.401345683269182       0.113251984410579     
  0.180996147751673       0.237715243703788       0.288537154304381     
  0.333320451256444       0.369949668753068       0.396673845767402     
  0.413341202504740       0.420345722271822       0.418188950190308     
  0.150906314941934       0.232187258151861       0.295419675132612     
  0.348304502006929       0.393137636051857       0.430538898457345     
  0.460511267793542       0.482884952673863       0.497409463692600     
  0.503536031370786       0.208812172506360       0.314188741812010     
  0.392479304028871       0.455828310636452       0.508441545588928     
  0.552177979750873       0.587947966872247       0.616132932393096     
  0.636633255267039       0.648453773389315       0.281723594074244     
  0.419676163602358       0.519781882170250       0.599367308078354     
  0.664737289675799       0.718887515084101       0.763386132916516     
  0.798977985232951       0.825669788370411       0.842162522021461     
  0.367260407739466       0.544269359292702       0.671052305773483     
  0.770826715614554       0.852170270833138       0.919230572427522     
  0.974243582695834        1.01833724173956        1.05164261056501     
   1.07261655458059       0.462932060212502       0.683856005814984     
  0.840758973106537       0.963387487830164        1.06282055518694     
   1.14445538386361        1.21122492639151        1.26464662766172     
   1.30501278617801        1.33059170902577       0.566470668717715     
  0.835002329272037        1.02458285968478        1.17198639949605     
   1.29098358026496        1.38831818812212        1.46768035885988     
   1.53101891032323        1.57881181093417        1.60915848118911     
  0.676157267535910       0.995071058106399        1.21917422452094     
   1.39267878990928        1.53220619933262        1.64593771315172     
   1.73837774740488        1.81194217426307        1.86732450251525     
   1.90249226210408       0.790735872791491        1.16207176342810     
   1.42192648765674        1.62230631503094        1.78282843001340     
   1.91319612897534        2.01878695557034        2.10253213451027     
   2.16538459548051        2.20523698084187       0.909322719860041     
   1.33457679286165        1.63091851721671        1.85846388569984     
   2.03996079550966        2.18672395731030        2.30508489708222     
   2.39856194291043        2.46843618350806        2.51260907404802     
   1.03280440177071        1.51363694054483        1.84706961615081     
   2.10174218861131        2.30374504435779        2.46615142270140     
   2.59637180386942        2.69863310813378        2.77466217573366     
   2.82251593166261        1.16959754624258        1.71025484662788     
   2.08221066570595        2.36397793485417        2.58566638226780     
   2.76249776029494        2.90319475020640        3.01286157519852     
   3.09383626097250        3.14453136778384        1.35194176308272     
   1.96385419550276        2.37736426922564        2.68654751470540     
   2.92758682816071        3.11845386778645        3.26937093950470     
   3.38642991952113        3.47265387823740        3.52679048874726     
   1.59385473061937        2.29225001680096        2.75151365353614     
   3.08814002431972        3.34682791872290        3.54933529651266     
   3.70802541110561        3.83035686307802        3.92024152393967     
   3.97695141742777        1.75858305688994        2.51231112007370     
   2.99704377665986        3.34437102171819        3.60551611567066     
   3.80613905203642        3.96087763215714        4.07846732288315     
   4.16363085396992        4.21658121965517        1.79658310240585     
   2.54672505648786        3.01713170910203        3.34678204474876     
   3.59011469738346        3.77426323056567        3.91442264165333     
   4.01940495464221        4.09390201404197        4.13879858520845     
   1.69394869379875        2.37203843917581        2.78309716511515     
   3.06431335583077        3.26859008331400        3.42152022310970     
   3.53684792962405        3.62214208320533        3.68111272433020     
   3.71443471531917        1.46874332999656        2.01145451017194     
   2.32810372188111        2.54155080716939        2.69568180441305     
   2.81075121565553        2.89737156504089        2.96132682477188     
   3.00556488866590        3.03093392427835        1.12415611502468     
   1.49111356415389        1.70237723010389        1.84514126169116     
   1.94860752493710        2.02610396356233        2.08466900082911     
   2.12829673245514        2.15959037688444        2.18230238886143     
  0.683573391956656       0.889086784985999        1.00853586070239     
   1.08971835426595        1.14876480075818        1.19309694187672     
   1.22665526634938        1.25165570014430        1.26931691856921     
   1.27998496038029     
  0.000000000000000E+000  0.000000000000000E+000  0.000000000000000E+000
  0.000000000000000E+000  0.000000000000000E+000  0.000000000000000E+000
  0.000000000000000E+000  0.000000000000000E+000  0.000000000000000E+000
  0.000000000000000E+000  0.000000000000000E+000  0.000000000000000E+000
  0.000000000000000E+000  0.000000000000000E+000  0.000000000000000E+000
  0.000000000000000E+000  0.000000000000000E+000  0.000000000000000E+000
  0.000000000000000E+000  0.000000000000000E+000  0.000000000000000E+000
  0.000000000000000E+000  0.000000000000000E+000  0.000000000000000E+000
  0.000000000000000E+000  0.000000000000000E+000  0.000000000000000E+000
  0.000000000000000E+000  0.000000000000000E+000  0.000000000000000E+000
  0.000000000000000E+000  0.000000000000000E+000  0.000000000000000E+000
  0.000000000000000E+000  0.000000000000000E+000  0.000000000000000E+000
  0.000000000000000E+000  0.000000000000000E+000  0.000000000000000E+000
  0.000000000000000E+000  0.000000000000000E+000  0.000000000000000E+000
  0.000000000000000E+000  0.000000000000000E+000  0.000000000000000E+000
  0.000000000000000E+000  0.000000000000000E+000  0.000000000000000E+000
  0.000000000000000E+000  0.000000000000000E+000  0.000000000000000E+000
  0.000000000000000E+000  0.000000000000000E+000  0.000000000000000E+000
  0.000000000000000E+000  0.000000000000000E+000  0.000000000000000E+000
  0.000000000000000E+000  0.000000000000000E+000  0.000000000000000E+000
  0.000000000000000E+000  0.000000000000000E+000  0.000000000000000E+000
  0.000000000000000E+000  0.000000000000000E+000  0.000000000000000E+000
  0.000000000000000E+000  0.000000000000000E+000  0.000000000000000E+000
  0.000000000000000E+000  0.000000000000000E+000  0.000000000000000E+000
  0.000000000000000E+000  0.000000000000000E+000  0.000000000000000E+000
  0.000000000000000E+000  0.000000000000000E+000  0.000000000000000E+000
  0.000000000000000E+000  0.000000000000000E+000  0.000000000000000E+000
  0.000000000000000E+000  0.000000000000000E+000  0.000000000000000E+000
  0.000000000000000E+000  0.000000000000000E+000  0.000000000000000E+000
  0.000000000000000E+000  0.000000000000000E+000  0.000000000000000E+000
  0.000000000000000E+000  0.000000000000000E+000  0.000000000000000E+000
  0.000000000000000E+000  0.000000000000000E+000  0.000000000000000E+000
  0.000000000000000E+000  0.000000000000000E+000  0.000000000000000E+000
  0.000000000000000E+000  0.000000000000000E+000  0.000000000000000E+000
  0.000000000000000E+000  0.000000000000000E+000  0.000000000000000E+000
  0.000000000000000E+000  0.000000000000000E+000  0.000000000000000E+000
  0.000000000000000E+000  0.000000000000000E+000  0.000000000000000E+000
  0.000000000000000E+000  0.000000000000000E+000  0.000000000000000E+000
  0.000000000000000E+000  0.000000000000000E+000  0.000000000000000E+000