 Title = "Wing and Wake"
 VARIABLES = "X" "Y" "Z" "GAM" "skew"
 Zone I=   11 J=   26 K=1  T="Blade"
 DATAPACKING=BLOCK
 VARLOCATION=([4]=CELLCENTERED,[5]=CELLCENTERED)
  0.264395059594403       0.253536108817412       0.242677158040421     
  0.231818207263431       0.220959256486440       0.210100305709449     
  0.199241354932458       0.188382404155467       0.177523453378476     
  0.166664502601486       0.155805551824495       0.267465755880312     
  0.256606805103321       0.245747854326330       0.234888903549339     
  0.224029952772348       0.213171001995358       0.202312051218366     
  0.191453100441376       0.180594149664385       0.169735198887394     
  0.158876248110403       0.276629418023262       0.265770467246272     
  0.254911516469281       0.244052565692290       0.233193614915299     
  0.222334664138308       0.211475713361318       0.200616762584327     
  0.189757811807336       0.178898861030345       0.168039910253354     
  0.291741529597157       0.280882578820165       0.270023628043175     
  0.259164677266183       0.248305726489193       0.237446775712202     
  0.226587824935211       0.215728874158221       0.204869923381230     
  0.194010972604239       0.183152021827248       0.312563763574934     
  0.301704812797943       0.290845862020952       0.279986911243961     
  0.269127960466971       0.258269009689979       0.247410058912989     
  0.236551108135998       0.225692157359007       0.214833206582017     
  0.203974255805025       0.338767740888166       0.327908790111175     
  0.317049839334184       0.306190888557193       0.295331937780203     
  0.284472987003212       0.273614036226220       0.262755085449230     
  0.251896134672239       0.241037183895248       0.230178233118258     
  0.369940209161126       0.359081258384136       0.348222307607145     
  0.337363356830154       0.326504406053162       0.315645455276172     
  0.304786504499181       0.293927553722190       0.283068602945199     
  0.272209652168208       0.261350701391217       0.405589559947619     
  0.394730609170629       0.383871658393638       0.373012707616646     
  0.362153756839656       0.351294806062666       0.340435855285674     
  0.329576904508683       0.318717953731692       0.307859002954702     
  0.297000052177712       0.445153581689853       0.434294630912863     
  0.423435680135872       0.412576729358881       0.401717778581890     
  0.390858827804899       0.379999877027908       0.369140926250918     
  0.358281975473926       0.347423024696936       0.336564073919945     
  0.488008326130551       0.477149375353560       0.466290424576570     
  0.455431473799578       0.444572523022588       0.433713572245597     
  0.422854621468606       0.411995670691616       0.401136719914624     
  0.390277769137634       0.379418818360643       0.533477948349701     
  0.522618997572711       0.511760046795720       0.500901096018729     
  0.490042145241737       0.479183194464747       0.468324243687756     
  0.457465292910766       0.446606342133775       0.435747391356784     
  0.424888440579792       0.580845365242670       0.569986414465678     
  0.559127463688687       0.548268512911697       0.537409562134706     
  0.526550611357716       0.515691660580722       0.504832709803734     
  0.493973759026743       0.483114808249752       0.472255857472761     
  0.629363564349132       0.618504613572142       0.607645662795150     
  0.596786712018161       0.585927761241169       0.575068810464178     
  0.564209859687187       0.553350908910196       0.542491958133206     
  0.531633007356215       0.520774056579224       0.678267384685813     
  0.667408433908822       0.656549483131831       0.645690532354840     
  0.634831581577850       0.623972630800860       0.613113680023867     
  0.602254729246878       0.591395778469886       0.580536827692895     
  0.569677876915905       0.726785583792276       0.715926633015286     
  0.705067682238295       0.694208731461304       0.683349780684314     
  0.672490829907322       0.661631879130331       0.650772928353340     
  0.639913977576350       0.629055026799360       0.618196076022369     
  0.774153000685243       0.763294049908254       0.752435099131263     
  0.741576148354272       0.730717197577282       0.719858246800291     
  0.708999296023300       0.698140345246309       0.687281394469317     
  0.676422443692327       0.665563492915337       0.819622622904394     
  0.808763672127402       0.797904721350413       0.787045770573423     
  0.776186819796432       0.765327869019439       0.754468918242448     
  0.743609967465459       0.732751016688467       0.721892065911478     
  0.711033115134487       0.862477367345092       0.851618416568101     
  0.840759465791109       0.829900515014121       0.819041564237128     
  0.808182613460138       0.797323662683147       0.786464711906157     
  0.775605761129165       0.764746810352174       0.753887859575184     
  0.902041389087326       0.891182438310336       0.880323487533343     
  0.869464536756354       0.858605585979363       0.847746635202371     
  0.836887684425379       0.826028733648391       0.815169782871400     
  0.804310832094408       0.793451881317417       0.937690739873820     
  0.926831789096828       0.915972838319836       0.905113887542848     
  0.894254936765856       0.883395985988864       0.872537035211875     
  0.861678084434883       0.850819133657895       0.839960182880902     
  0.829101232103911       0.968863208146778       0.958004257369789     
  0.947145306592797       0.936286355815808       0.925427405038816     
  0.914568454261825       0.903709503484837       0.892850552707843     
  0.881991601930853       0.871132651153862       0.860273700376870     
  0.995067185460012       0.984208234683022       0.973349283906030     
  0.962490333129039       0.951631382352049       0.940772431575057     
  0.929913480798066       0.919054530021075       0.908195579244084     
  0.897336628467094       0.886477677690104        1.01588941943779     
   1.00503046866080       0.994171517883809       0.983312567106815     
  0.972453616329826       0.961594665552835       0.950735714775842     
  0.939876763998853       0.929017813221862       0.918158862444873     
  0.907299911667879        1.03100153101168        1.02014258023469     
   1.00928362945770       0.998424678680710       0.987565727903721     
  0.976706777126728       0.965847826349738       0.954988875572747     
  0.944129924795757       0.933270974018764       0.922412023241774     
   1.04016519315463        1.02930624237764        1.01844729160065     
   1.00758834082366       0.996729390046671       0.985870439269679     
  0.975011488492688       0.964152537715695       0.953293586938708     
  0.942434636161719       0.931575685384725        1.04323588944054     
   1.03237693866355        1.02151798788656        1.01065903710957     
  0.999800086332577       0.988941135555587       0.978082184778597     
  0.967223234001605       0.956364283224617       0.945505332447625     
  0.934646381670636     
  4.457980085412819E-002  2.915395973190684E-002  1.372811860968539E-002
 -1.697722512535782E-003 -1.712356363475696E-002 -3.254940475697822E-002
 -4.797524587919944E-002 -6.340108700142097E-002 -7.882692812364217E-002
 -9.425276924586312E-002 -0.109678610368085       4.241819815411459E-002
  2.699235703189373E-002  1.156651590967235E-002 -3.859325212548679E-003
 -1.928516633477027E-002 -3.471100745699131E-002 -5.013684857921268E-002
 -6.556268970143411E-002 -8.098853082365540E-002 -9.641437194587649E-002
 -0.111840213068098       3.596747981993353E-002  2.054163869771248E-002
  5.115797575490991E-003 -1.031004354673036E-002 -2.573588466895160E-002
 -4.116172579117296E-002 -5.658756691339392E-002 -7.201340803561543E-002
 -8.743924915783662E-002 -0.102865090280058      -0.118290931402279     
  2.532937753318616E-002  9.903536410964619E-003 -5.522304711256612E-003
 -2.094814583347787E-002 -3.637398695569899E-002 -5.179982807792025E-002
 -6.722566920014141E-002 -8.265151032236256E-002 -9.807735144458388E-002
 -0.113503192566805      -0.128929033689026       1.067166052182895E-002
 -4.754180600392009E-003 -2.018002172261351E-002 -3.560586284483446E-002
 -5.103170396705559E-002 -6.645754508927737E-002 -8.188338621149818E-002
 -9.730922733371970E-002 -0.112735068455941      -0.128160909578162     
 -0.143586750700383      -7.774510260772241E-003 -2.320035138299353E-002
 -3.862619250521469E-002 -5.405203362743607E-002 -6.947787474965725E-002
 -8.490371587187864E-002 -0.100329556994100      -0.115755398116321     
 -0.131181239238542      -0.146607080360763      -0.162032921482985     
 -2.971822768216933E-002 -4.514406880439048E-002 -6.056990992661103E-002
 -7.599575104883277E-002 -9.142159217105401E-002 -0.106847433293275     
 -0.122273274415496      -0.137699115537718      -0.153124956659940     
 -0.168550797782160      -0.183976638904381      -5.481342621008332E-002
 -7.023926733230443E-002 -8.566510845452657E-002 -0.101090949576747     
 -0.116516790698969      -0.131942631821190      -0.147368472943411     
 -0.162794314065632      -0.178220155187854      -0.193645996310075     
 -0.209071837432296      -8.266433957258595E-002 -9.809018069480735E-002
 -0.113516021817029      -0.128941862939249      -0.144367704061471     
 -0.159793545183692      -0.175219386305913      -0.190645227428135     
 -0.206071068550355      -0.221496909672578      -0.236922750794798     
 -0.112831742228621      -0.128257583350841      -0.143683424473063     
 -0.159109265595284      -0.174535106717505      -0.189960947839727     
 -0.205386788961948      -0.220812630084169      -0.236238471206390     
 -0.251664312328611      -0.267090153450833      -0.144839876217168     
 -0.160265717339390      -0.175691558461611      -0.191117399583832     
 -0.206543240706054      -0.221969081828274      -0.237394922950496     
 -0.252820764072717      -0.268246605194939      -0.283672446317159     
 -0.299098287439381      -0.178183954144498      -0.193609795266719     
 -0.209035636388941      -0.224461477511161      -0.239887318633384     
 -0.255313159755604      -0.270739000877825      -0.286164842000046     
 -0.301590683122268      -0.317016524244490      -0.332442365366710     
 -0.212338119982909      -0.227763961105130      -0.243189802227352     
 -0.258615643349573      -0.274041484471793      -0.289467325594015     
 -0.304893166716236      -0.320319007838457      -0.335744848960678     
 -0.351170690082899      -0.366596531205121      -0.246763742134420     
 -0.262189583256641      -0.277615424378861      -0.293041265501083     
 -0.308467106623304      -0.323892947745526      -0.339318788867746     
 -0.354744629989967      -0.370170471112188      -0.385596312234411     
 -0.401022153356631      -0.280917907972829      -0.296343749095051     
 -0.311769590217271      -0.327195431339494      -0.342621272461715     
 -0.358047113583935      -0.373472954706158      -0.388898795828377     
 -0.404324636950600      -0.419750478072822      -0.435176319195043     
 -0.314261985900158      -0.329687827022381      -0.345113668144601     
 -0.360539509266824      -0.375965350389045      -0.391391191511265     
 -0.406817032633487      -0.422242873755709      -0.437668714877928     
 -0.453094556000151      -0.468520397122373      -0.346270119888709     
 -0.361695961010927      -0.377121802133150      -0.392547643255371     
 -0.407973484377593      -0.423399325499812      -0.438825166622034     
 -0.454251007744256      -0.469676848866477      -0.485102689988699     
 -0.500528531110920      -0.376437522544741      -0.391863363666963     
 -0.407289204789183      -0.422715045911406      -0.438140887033627     
 -0.453566728155848      -0.468992569278070      -0.484418410400291     
 -0.499844251522512      -0.515270092644733      -0.530695933766953     
 -0.404288435907245      -0.419714277029465      -0.435140118151687     
 -0.450565959273908      -0.465991800396128      -0.481417641518350     
 -0.496843482640571      -0.512269323762794      -0.527695164885015     
 -0.543121006007235      -0.558546847129456      -0.429383634435159     
 -0.444809475557380      -0.460235316679600      -0.475661157801822     
 -0.491086998924044      -0.506512840046264      -0.521938681168487     
 -0.537364522290708      -0.552790363412930      -0.568216204535149     
 -0.583642045657370      -0.451327351856556      -0.466753192978777     
 -0.482179034100996      -0.497604875223220      -0.513030716345441     
 -0.528456557467662      -0.543882398589884      -0.559308239712103     
 -0.574734080834325      -0.590159921956547      -0.605585763078767     
 -0.469773522639157      -0.485199363761378      -0.500625204883600     
 -0.516051046005821      -0.531476887128042      -0.546902728250263     
 -0.562328569372483      -0.577754410494705      -0.593180251616927     
 -0.608606092739147      -0.624031933861372      -0.484431239650513     
 -0.499857080772737      -0.515282921894959      -0.530708763017176     
 -0.546134604139400      -0.561560445261620      -0.576986286383840     
 -0.592412127506062      -0.607837968628283      -0.623263809750507     
 -0.638689650872726      -0.495069341937261      -0.510495183059481     
 -0.525921024181704      -0.541346865303925      -0.556772706426147     
 -0.572198547548368      -0.587624388670588      -0.603050229792810     
 -0.618476070915032      -0.633901912037252      -0.649327753159474     
 -0.501520060271444      -0.516945901393664      -0.532371742515883     
 -0.547797583638107      -0.563223424760330      -0.578649265882548     
 -0.594075107004770      -0.609500948126989      -0.624926789249213     
 -0.640352630371435      -0.655778471493654      -0.503681662971458     
 -0.519107504093677      -0.534533345215898      -0.549959186338120     
 -0.565385027460341      -0.580810868582560      -0.596236709704783     
 -0.611662550827004      -0.627088391949226      -0.642514233071449     
 -0.657940074193671     
  2.651247573289247E-002  2.386122815960322E-002  2.120998058631397E-002
  1.855873301302472E-002  1.590748543973548E-002  1.325623786644623E-002
  1.060499029315698E-002  7.953742719867740E-003  5.302495146578492E-003
  2.651247573289244E-003  0.000000000000000E+000  2.651247573289247E-002
  2.386122815960322E-002  2.120998058631397E-002  1.855873301302472E-002
  1.590748543973548E-002  1.325623786644623E-002  1.060499029315698E-002
  7.953742719867740E-003  5.302495146578492E-003  2.651247573289244E-003
  0.000000000000000E+000  2.651247573289247E-002  2.386122815960322E-002
  2.120998058631397E-002  1.855873301302472E-002  1.590748543973548E-002
  1.325623786644623E-002  1.060499029315698E-002  7.953742719867740E-003
  5.302495146578492E-003  2.651247573289244E-003  0.000000000000000E+000
  2.651247573289247E-002  2.386122815960322E-002  2.120998058631397E-002
  1.855873301302472E-002  1.590748543973548E-002  1.325623786644623E-002
  1.060499029315698E-002  7.953742719867740E-003  5.302495146578492E-003
  2.651247573289244E-003  0.000000000000000E+000  2.651247573289247E-002
  2.386122815960322E-002  2.120998058631397E-002  1.855873301302472E-002
  1.590748543973548E-002  1.325623786644623E-002  1.060499029315698E-002
  7.953742719867740E-003  5.302495146578492E-003  2.651247573289244E-003
  0.000000000000000E+000  2.651247573289247E-002  2.386122815960322E-002
  2.120998058631397E-002  1.855873301302472E-002  1.590748543973548E-002
  1.325623786644623E-002  1.060499029315698E-002  7.953742719867740E-003
  5.302495146578492E-003  2.651247573289244E-003  0.000000000000000E+000
  2.651247573289247E-002  2.386122815960322E-002  2.120998058631397E-002
  1.855873301302472E-002  1.590748543973548E-002  1.325623786644623E-002
  1.060499029315698E-002  7.953742719867740E-003  5.302495146578492E-003
  2.651247573289244E-003  0.000000000000000E+000  2.651247573289247E-002
  2.386122815960322E-002  2.120998058631397E-002  1.855873301302472E-002
  1.590748543973548E-002  1.325623786644623E-002  1.060499029315698E-002
  7.953742719867740E-003  5.302495146578492E-003  2.651247573289244E-003
  0.000000000000000E+000  2.651247573289247E-002  2.386122815960322E-002
  2.120998058631397E-002  1.855873301302472E-002  1.590748543973548E-002
  1.325623786644623E-002  1.060499029315698E-002  7.953742719867740E-003
  5.302495146578492E-003  2.651247573289244E-003  0.000000000000000E+000
  2.651247573289247E-002  2.386122815960322E-002  2.120998058631397E-002
  1.855873301302472E-002  1.590748543973548E-002  1.325623786644623E-002
  1.060499029315698E-002  7.953742719867740E-003  5.302495146578492E-003
  2.651247573289244E-003  0.000000000000000E+000  2.651247573289247E-002
  2.386122815960322E-002  2.120998058631397E-002  1.855873301302472E-002
  1.590748543973548E-002  1.325623786644623E-002  1.060499029315698E-002
  7.953742719867740E-003  5.302495146578492E-003  2.651247573289244E-003
  0.000000000000000E+000  2.651247573289247E-002  2.386122815960322E-002
  2.120998058631397E-002  1.855873301302472E-002  1.590748543973548E-002
  1.325623786644623E-002  1.060499029315698E-002  7.953742719867740E-003
  5.302495146578492E-003  2.651247573289244E-003  0.000000000000000E+000
  2.651247573289247E-002  2.386122815960322E-002  2.120998058631397E-002
  1.855873301302472E-002  1.590748543973548E-002  1.325623786644623E-002
  1.060499029315698E-002  7.953742719867740E-003  5.302495146578492E-003
  2.651247573289244E-003  0.000000000000000E+000  2.651247573289247E-002
  2.386122815960322E-002  2.120998058631397E-002  1.855873301302472E-002
  1.590748543973548E-002  1.325623786644623E-002  1.060499029315698E-002
  7.953742719867740E-003  5.302495146578492E-003  2.651247573289244E-003
  0.000000000000000E+000  2.651247573289247E-002  2.386122815960322E-002
  2.120998058631397E-002  1.855873301302472E-002  1.590748543973548E-002
  1.325623786644623E-002  1.060499029315698E-002  7.953742719867740E-003
  5.302495146578492E-003  2.651247573289244E-003  0.000000000000000E+000
  2.651247573289247E-002  2.386122815960322E-002  2.120998058631397E-002
  1.855873301302472E-002  1.590748543973548E-002  1.325623786644623E-002
  1.060499029315698E-002  7.953742719867740E-003  5.302495146578492E-003
  2.651247573289244E-003  0.000000000000000E+000  2.651247573289247E-002
  2.386122815960322E-002  2.120998058631397E-002  1.855873301302472E-002
  1.590748543973548E-002  1.325623786644623E-002  1.060499029315698E-002
  7.953742719867740E-003  5.302495146578492E-003  2.651247573289244E-003
  0.000000000000000E+000  2.651247573289247E-002  2.386122815960322E-002
  2.120998058631397E-002  1.855873301302472E-002  1.590748543973548E-002
  1.325623786644623E-002  1.060499029315698E-002  7.953742719867740E-003
  5.302495146578492E-003  2.651247573289244E-003  0.000000000000000E+000
  2.651247573289247E-002  2.386122815960322E-002  2.120998058631397E-002
  1.855873301302472E-002  1.590748543973548E-002  1.325623786644623E-002
  1.060499029315698E-002  7.953742719867740E-003  5.302495146578492E-003
  2.651247573289244E-003  0.000000000000000E+000  2.651247573289247E-002
  2.386122815960322E-002  2.120998058631397E-002  1.855873301302472E-002
  1.590748543973548E-002  1.325623786644623E-002  1.060499029315698E-002
  7.953742719867740E-003  5.302495146578492E-003  2.651247573289244E-003
  0.000000000000000E+000  2.651247573289247E-002  2.386122815960322E-002
  2.120998058631397E-002  1.855873301302472E-002  1.590748543973548E-002
  1.325623786644623E-002  1.060499029315698E-002  7.953742719867740E-003
  5.302495146578492E-003  2.651247573289244E-003  0.000000000000000E+000
  2.651247573289247E-002  2.386122815960322E-002  2.120998058631397E-002
  1.855873301302472E-002  1.590748543973548E-002  1.325623786644623E-002
  1.060499029315698E-002  7.953742719867740E-003  5.302495146578492E-003
  2.651247573289244E-003  0.000000000000000E+000  2.651247573289247E-002
  2.386122815960322E-002  2.120998058631397E-002  1.855873301302472E-002
  1.590748543973548E-002  1.325623786644623E-002  1.060499029315698E-002
  7.953742719867740E-003  5.302495146578492E-003  2.651247573289244E-003
  0.000000000000000E+000  2.651247573289247E-002  2.386122815960322E-002
  2.120998058631397E-002  1.855873301302472E-002  1.590748543973548E-002
  1.325623786644623E-002  1.060499029315698E-002  7.953742719867740E-003
  5.302495146578492E-003  2.651247573289244E-003  0.000000000000000E+000
  2.651247573289247E-002  2.386122815960322E-002  2.120998058631397E-002
  1.855873301302472E-002  1.590748543973548E-002  1.325623786644623E-002
  1.060499029315698E-002  7.953742719867740E-003  5.302495146578492E-003
  2.651247573289244E-003  0.000000000000000E+000  2.651247573289247E-002
  2.386122815960322E-002  2.120998058631397E-002  1.855873301302472E-002
  1.590748543973548E-002  1.325623786644623E-002  1.060499029315698E-002
  7.953742719867740E-003  5.302495146578492E-003  2.651247573289244E-003
  0.000000000000000E+000
 -6.667141450447754E-003  5.867771372932391E-003  2.426409077194451E-002
  4.676376257053595E-002  7.229491410747323E-002  9.989283866194520E-002
  0.128478930685523       0.156757316973751       0.183732709941948     
  0.207511856134944      -8.226485640530140E-003  1.208241123352524E-002
  4.223391584353945E-002  7.934099988280187E-002  0.121734587922228     
  0.167779376314840       0.215632198879622       0.263122460121714     
  0.308701273480005       0.349595558586162      -1.667873369558862E-003
  2.489002625974426E-002  6.356503387413964E-002  0.111299681528659     
  0.166438708173740       0.227059664870380       0.290751554207851     
  0.354679624394567       0.416097415014819       0.469915598479367     
  1.450528352510669E-002  4.764461741902488E-002  9.130393186659121E-002
  0.143624783891027       0.203680715962930       0.270169024371270     
  0.340979687942153       0.413140844066515       0.482655507063526     
  0.542806280188687       4.120743576933893E-002  8.367885984405567E-002
  0.131483883057673       0.184630355832800       0.242980174469654     
  0.306186228950378       0.373188658116108       0.441164723238616     
  0.506564348338986       0.563584284331717       7.988459524587573E-002
  0.136523761682461       0.190872292422902       0.245678815941486     
  0.301688613389043       0.358966478844156       0.416792164720809     
  0.473484797377177       0.526490403181708       0.571020198409297     
  0.132099869483033       0.209469057793586       0.275174411227830     
  0.335725542783238       0.393201742165965       0.448316919890855     
  0.500984672250777       0.550381475473446       0.594880093671085     
  0.630938799646694       0.198415914949906       0.303902902582578     
  0.386860149684878       0.458457504713635       0.522600807499965     
  0.580979070368981       0.634228750405407       0.682233754651098     
  0.724061580348207       0.756982593722442       0.277967610752171     
  0.418519242815084       0.524245749833774       0.611839165181552     
  0.687313386027956       0.753436265862842       0.811514007840122     
  0.861941890369761       0.904239517390972       0.936058839832747     
  0.368497219376892       0.549670746822127       0.682394540529350     
  0.789558327559637       0.879510231838285       0.956183161316516     
   1.02158051314878        1.07656986239012        1.12099889523570     
   1.15269722242100       0.467152372221847       0.692855562658689     
  0.855381434730426       0.984365391536248        1.09073002223618     
   1.17970811726926        1.25407383580031        1.31518956908771     
   1.36318695703900        1.39597222186279       0.571765699585450     
  0.844829069760687        1.03919130778611        1.19165341826944     
   1.31590157851771        1.41857998911578        1.50328615811176     
   1.57188507037811        1.62477526101428        1.65986113710655     
  0.681171994568729        1.00385041916505        1.23167121084638     
   1.40894387204511        1.55225833571414        1.66973750585215     
   1.76583402501357        1.84292752480459        1.90168512983345     
   1.93997927353136       0.794654375853667        1.16877975708473     
   1.43130607605923        1.63433599082498        1.79747732752243     
   1.93039949713404        2.03845152981409        2.12455312462604     
   2.18965979654494        2.23162503369467       0.911721032357712     
   1.33875023616764        1.63682205813387        1.86609750412825     
   2.04931101772919        2.19775296904817        2.31773448792830     
   2.41276988121216        2.48415418952057        2.52978191179682     
   1.03346192518677        1.51508281435005        1.84942219230144     
   2.10507585227333        2.30809298109007        2.47151416613282     
   2.60273013954319        2.70596286536178        2.78295376170654     
   2.83177185543757        1.16824509315116        1.70874894513727     
   2.08091875780651        2.36307491493251        2.58522870298072     
   2.76254485484090        2.90371648992644        3.01383923098816     
   3.09526259798828        3.14642664401971        1.34887452033904     
   1.95985206617292        2.37301894176252        2.68212401843821     
   2.92316854403305        3.11402189723119        3.26485912018203     
   3.38175279426598        3.46772719493194        3.52156813579898     
   1.59476000041291        2.29302211172965        2.75200430524330     
   3.08846823552157        3.34703753859104        3.54934376246565     
   3.70769947643089        3.82954406573692        3.91877590274601     
   3.97466807123742        1.76422501228827        2.51958929042915     
   3.00496365638467        3.35255368348075        3.61374086581910     
   3.81420341866445        3.96857173602232        4.08557121591767     
   4.16990801495329        4.22179211512606        1.80566560105812     
   2.55865864543644        3.03035333294355        3.36063902321559     
   3.60419558664010        3.78824074702496        3.92802141160879     
   4.03237587515482        4.10599751332126        4.14977605362850     
   1.70384646885322        2.38525953064461        2.79791819735388     
   3.07994609814609        3.28458612569872        3.43757132137952     
   3.55270824939540        3.63758927273586        3.69592023316147     
   3.72837182442080        1.47752390680340        2.02310580437392     
   2.34114293510288        2.55530387649549        2.70976657825229     
   2.82491361336034        2.91141677159713        2.97508339800137     
   3.01885937310650        3.04358471583900        1.13086347717459     
   1.49979289912811        1.71200927186962        1.85527069135006     
   1.95897313401686        2.03653071181256        2.09502313754203     
   2.13846198866135        2.16945181849095        2.19174764387938     
  0.687642496722040       0.894260212190707        1.01424948769789     
   1.09571665718895        1.15489946970870        1.19926776796218     
   1.23278542302421        1.25767837853655        1.27516554624926     
   1.28558821064861     
  0.000000000000000E+000  0.000000000000000E+000  0.000000000000000E+000
  0.000000000000000E+000  0.000000000000000E+000  0.000000000000000E+000
  0.000000000000000E+000  0.000000000000000E+000  0.000000000000000E+000
  0.000000000000000E+000  0.000000000000000E+000  0.000000000000000E+000
  0.000000000000000E+000  0.000000000000000E+000  0.000000000000000E+000
  0.000000000000000E+000  0.000000000000000E+000  0.000000000000000E+000
  0.000000000000000E+000  0.000000000000000E+000  0.000000000000000E+000
  0.000000000000000E+000  0.000000000000000E+000  0.000000000000000E+000
  0.000000000000000E+000  0.000000000000000E+000  0.000000000000000E+000
  0.000000000000000E+000  0.000000000000000E+000  0.000000000000000E+000
  0.000000000000000E+000  0.000000000000000E+000  0.000000000000000E+000
  0.000000000000000E+000  0.000000000000000E+000  0.000000000000000E+000
  0.000000000000000E+000  0.000000000000000E+000  0.000000000000000E+000
  0.000000000000000E+000  0.000000000000000E+000  0.000000000000000E+000
  0.000000000000000E+000  0.000000000000000E+000  0.000000000000000E+000
  0.000000000000000E+000  0.000000000000000E+000  0.000000000000000E+000
  0.000000000000000E+000  0.000000000000000E+000  0.000000000000000E+000
  0.000000000000000E+000  0.000000000000000E+000  0.000000000000000E+000
  0.000000000000000E+000  0.000000000000000E+000  0.000000000000000E+000
  0.000000000000000E+000  0.000000000000000E+000  0.000000000000000E+000
  0.000000000000000E+000  0.000000000000000E+000  0.000000000000000E+000
  0.000000000000000E+000  0.000000000000000E+000  0.000000000000000E+000
  0.000000000000000E+000  0.000000000000000E+000  0.000000000000000E+000
  0.000000000000000E+000  0.000000000000000E+000  0.000000000000000E+000
  0.000000000000000E+000  0.000000000000000E+000  0.000000000000000E+000
  0.000000000000000E+000  0.000000000000000E+000  0.000000000000000E+000
  0.000000000000000E+000  0.000000000000000E+000  0.000000000000000E+000
  0.000000000000000E+000  0.000000000000000E+000  0.000000000000000E+000
  0.000000000000000E+000  0.000000000000000E+000  0.000000000000000E+000
  0.000000000000000E+000  0.000000000000000E+000  0.000000000000000E+000
  0.000000000000000E+000  0.000000000000000E+000  0.000000000000000E+000
  0.000000000000000E+000  0.000000000000000E+000  0.000000000000000E+000
  0.000000000000000E+000  0.000000000000000E+000  0.000000000000000E+000
  0.000000000000000E+000  0.000000000000000E+000  0.000000000000000E+000
  0.000000000000000E+000  0.000000000000000E+000  0.000000000000000E+000
  0.000000000000000E+000  0.000000000000000E+000  0.000000000000000E+000
  0.000000000000000E+000  0.000000000000000E+000  0.000000000000000E+000
  0.000000000000000E+000  0.000000000000000E+000  0.000000000000000E+000
  0.000000000000000E+000  0.000000000000000E+000  0.000000000000000E+000