 Title = "Wing and Wake"
 VARIABLES = "X" "Y" "Z" "GAM" "skew"
 Zone I=   11 J=   26 K=1  T="Blade"
 DATAPACKING=BLOCK
 VARLOCATION=([4]=CELLCENTERED,[5]=CELLCENTERED)
 -0.267953023765514      -0.255171963208513      -0.242390902651512     
 -0.229609842094512      -0.216828781537511      -0.204047720980511     
 -0.191266660423510      -0.178485599866510      -0.165704539309509     
 -0.152923478752509      -0.140142418195508      -0.270715022924157     
 -0.257933962367156      -0.245152901810156      -0.232371841253155     
 -0.219590780696155      -0.206809720139154      -0.194028659582153     
 -0.181247599025153      -0.168466538468152      -0.155685477911152     
 -0.142904417354151      -0.278957462023415      -0.266176401466415     
 -0.253395340909414      -0.240614280352414      -0.227833219795413     
 -0.215052159238413      -0.202271098681412      -0.189490038124412     
 -0.176708977567411      -0.163927917010411      -0.151146856453410     
 -0.292550352874901      -0.279769292317900      -0.266988231760900     
 -0.254207171203899      -0.241426110646899      -0.228645050089898     
 -0.215863989532897      -0.203082928975897      -0.190301868418896     
 -0.177520807861896      -0.164739747304895      -0.311279327469885     
 -0.298498266912884      -0.285717206355883      -0.272936145798883     
 -0.260155085241883      -0.247374024684881      -0.234592964127881     
 -0.221811903570881      -0.209030843013880      -0.196249782456880     
 -0.183468721899879      -0.334849018690857      -0.322067958133857     
 -0.309286897576856      -0.296505837019856      -0.283724776462855     
 -0.270943715905855      -0.258162655348854      -0.245381594791854     
 -0.232600534234853      -0.219819473677852      -0.207038413120852     
 -0.362887718427413      -0.350106657870413      -0.337325597313412     
 -0.324544536756412      -0.311763476199411      -0.298982415642411     
 -0.286201355085410      -0.273420294528409      -0.260639233971409     
 -0.247858173414408      -0.235077112857407      -0.394953239635199     
 -0.382172179078199      -0.369391118521198      -0.356610057964197     
 -0.343828997407197      -0.331047936850197      -0.318266876293195     
 -0.305485815736195      -0.292704755179195      -0.279923694622195     
 -0.267142634065194      -0.430539889889755      -0.417758829332754     
 -0.404977768775754      -0.392196708218753      -0.379415647661752     
 -0.366634587104752      -0.353853526547751      -0.341072465990751     
 -0.328291405433750      -0.315510344876750      -0.302729284319750     
 -0.469086446458131      -0.456305385901130      -0.443524325344130     
 -0.430743264787128      -0.417962204230129      -0.405181143673128     
 -0.392400083116127      -0.379619022559127      -0.366837962002126     
 -0.354056901445126      -0.341275840888125      -0.509985007116648     
 -0.497203946559648      -0.484422886002647      -0.471641825445646     
 -0.458860764888646      -0.446079704331645      -0.433298643774644     
 -0.420517583217644      -0.407736522660644      -0.394955462103643     
 -0.382174401546643      -0.552590577132105      -0.539809516575103     
 -0.527028456018104      -0.514247395461103      -0.501466334904102     
 -0.488685274347103      -0.475904213790101      -0.463123153233101     
 -0.450342092676101      -0.437561032119100      -0.424779971562100     
 -0.596231241214024      -0.583450180657024      -0.570669120100023     
 -0.557888059543023      -0.545106998986021      -0.532325938429021     
 -0.519544877872021      -0.506763817315021      -0.493982756758020     
 -0.481201696201020      -0.468420635644019      -0.640218760020165     
 -0.627437699463165      -0.614656638906163      -0.601875578349163     
 -0.589094517792163      -0.576313457235162      -0.563532396678161     
 -0.550751336121161      -0.537970275564160      -0.525189215007159     
 -0.512408154450160      -0.683859424102084      -0.671078363545084     
 -0.658297302988084      -0.645516242431083      -0.632735181874083     
 -0.619954121317082      -0.607173060760081      -0.594392000203080     
 -0.581610939646081      -0.568829879089081      -0.556048818532080     
 -0.726464994117540      -0.713683933560540      -0.700902873003540     
 -0.688121812446539      -0.675340751889540      -0.662559691332538     
 -0.649778630775538      -0.636997570218537      -0.624216509661536     
 -0.611435449104536      -0.598654388547536      -0.767363554776058     
 -0.754582494219057      -0.741801433662057      -0.729020373105057     
 -0.716239312548056      -0.703458251991055      -0.690677191434054     
 -0.677896130877054      -0.665115070320053      -0.652334009763054     
 -0.639552949206054      -0.805910111344434      -0.793129050787433     
 -0.780347990230432      -0.767566929673433      -0.754785869116432     
 -0.742004808559432      -0.729223748002431      -0.716442687445431     
 -0.703661626888430      -0.690880566331429      -0.678099505774429     
 -0.841496761598990      -0.828715701041990      -0.815934640484988     
 -0.803153579927988      -0.790372519370988      -0.777591458813986     
 -0.764810398256985      -0.752029337699986      -0.739248277142986     
 -0.726467216585985      -0.713686156028985      -0.873562282806776     
 -0.860781222249775      -0.848000161692774      -0.835219101135774     
 -0.822438040578774      -0.809656980021772      -0.796875919464773     
 -0.784094858907772      -0.771313798350773      -0.758532737793772     
 -0.745751677236770      -0.901600982543329      -0.888819921986330     
 -0.876038861429330      -0.863257800872330      -0.850476740315329     
 -0.837695679758328      -0.824914619201330      -0.812133558644328     
 -0.799352498087328      -0.786571437530326      -0.773790376973325     
 -0.925170673764304      -0.912389613207306      -0.899608552650303     
 -0.886827492093303      -0.874046431536302      -0.861265370979300     
 -0.848484310422301      -0.835703249865301      -0.822922189308299     
 -0.810141128751299      -0.797360068194299      -0.943899648359290     
 -0.931118587802288      -0.918337527245288      -0.905556466688286     
 -0.892775406131286      -0.879994345574285      -0.867213285017283     
 -0.854432224460284      -0.841651163903283      -0.828870103346284     
 -0.816089042789282      -0.957492539210774      -0.944711478653774     
 -0.931930418096773      -0.919149357539772      -0.906368296982771     
 -0.893587236425769      -0.880806175868770      -0.868025115311771     
 -0.855244054754770      -0.842462994197768      -0.829681933640767     
 -0.965734978310032      -0.952953917753032      -0.940172857196031     
 -0.927391796639030      -0.914610736082030      -0.901829675525029     
 -0.889048614968028      -0.876267554411026      -0.863486493854028     
 -0.850705433297027      -0.837924372740027      -0.968496977468675     
 -0.955715916911676      -0.942934856354674      -0.930153795797674     
 -0.917372735240673      -0.904591674683672      -0.891810614126672     
 -0.879029553569670      -0.866248493012671      -0.853467432455671     
 -0.840686371898671     
 -9.658324753303159E-003  4.216756411987734E-003  1.809183757727873E-002
  3.196691874256970E-002  4.584199990786050E-002  5.971708107315138E-002
  7.359216223844217E-002  8.746724340373339E-002  0.101342324569024     
  0.115217405734315       0.129092486899606      -7.114103347714973E-003
  6.760977817575693E-003  2.063605898286655E-002  3.451114014815729E-002
  4.838622131344836E-002  6.226130247873923E-002  7.613638364403018E-002
  9.001146480932114E-002  0.103886545974612       0.117761627139903     
  0.131636708305194       4.784369776375332E-004  1.435351814292847E-002
  2.822859930821939E-002  4.210368047351037E-002  5.597876163880130E-002
  6.985384280409222E-002  8.372892396938290E-002  9.760400513467421E-002
  0.111479086299965       0.125354167465256       0.139229248630546     
  1.299955732626168E-002  2.687463849155250E-002  4.074971965684360E-002
  5.462480082213419E-002  6.849988198742514E-002  8.237496315271611E-002
  9.625004431800689E-002  0.110125125483298       0.124000206648589     
  0.137875287813879       0.151750368979170       3.025179215050354E-002
  4.412687331579428E-002  5.800195448108518E-002  7.187703564637604E-002
  8.575211681166695E-002  9.962719797695799E-002  0.113502279142248     
  0.127377360307540       0.141252441472830       0.155127522638121     
  0.169002603803412       5.196306340119925E-002  6.583814456649036E-002
  7.971322573178104E-002  9.358830689707213E-002  0.107463388062363     
  0.121338469227654       0.135213550392945       0.149088631558236     
  0.162963712723526       0.176838793888817       0.190713875054109     
  7.779097136104214E-002  9.166605252633277E-002  0.105541133691623     
  0.119416214856914       0.133291296022205       0.147166377187496     
  0.161041458352787       0.174916539518078       0.188791620683369     
  0.202666701848660       0.216541783013950       0.107328194492659     
  0.121203275657950       0.135078356823241       0.148953437988531     
  0.162828519153822       0.176703600319114       0.190578681484405     
  0.204453762649695       0.218328843814986       0.232203924980277     
  0.246079006145568       0.140108913142584       0.153983994307875     
  0.167859075473166       0.181734156638456       0.195609237803748     
  0.209484318969038       0.223359400134329       0.237234481299620     
  0.251109562464911       0.264984643630202       0.278859724795493     
  0.175616155795455       0.189491236960745       0.203366318126037     
  0.217241399291327       0.231116480456618       0.244991561621909     
  0.258866642787200       0.272741723952491       0.286616805117782     
  0.300491886283072       0.314366967448363       0.213289952023637     
  0.227165033188929       0.241040114354219       0.254915195519510     
  0.268790276684801       0.282665357850092       0.296540439015383     
  0.310415520180674       0.324290601345965       0.338165682511255     
  0.352040763676546       0.252536163555378       0.266411244720669     
  0.280286325885961       0.294161407051250       0.308036488216542     
  0.321911569381833       0.335786650547124       0.349661731712415     
  0.363536812877705       0.377411894042997       0.391286975208287     
  0.292735854190272       0.306610935355562       0.320486016520854     
  0.334361097686144       0.348236178851435       0.362111260016726     
  0.375986341182017       0.389861422347308       0.403736503512599     
  0.417611584677889       0.431486665843181       0.333255050792874     
  0.347130131958165       0.361005213123456       0.374880294288746     
  0.388755375454038       0.402630456619328       0.416505537784619     
  0.430380618949909       0.444255700115201       0.458130781280492     
  0.472005862445783       0.373454741427767       0.387329822593058     
  0.401204903758349       0.415079984923641       0.428955066088930     
  0.442830147254221       0.456705228419513       0.470580309584802     
  0.484455390750095       0.498330471915386       0.512205553080677     
  0.412700952959507       0.426576034124799       0.440451115290089     
  0.454326196455381       0.468201277620672       0.482076358785962     
  0.495951439951253       0.509826521116545       0.523701602281834     
  0.537576683447126       0.551451764612417       0.450374749187692     
  0.464249830352981       0.478124911518272       0.491999992683564     
  0.505875073848854       0.519750155014144       0.533625236179435     
  0.547500317344727       0.561375398510018       0.575250479675309     
  0.589125560840600       0.485881991840561       0.499757073005853     
  0.513632154171142       0.527507235336436       0.541382316501726     
  0.555257397667017       0.569132478832307       0.583007559997598     
  0.596882641162889       0.610757722328180       0.624632803493470     
  0.518662710490487       0.532537791655777       0.546412872821069     
  0.560287953986359       0.574163035151650       0.588038116316940     
  0.601913197482231       0.615788278647523       0.629663359812814     
  0.643538440978104       0.657413522143395       0.548199933622103     
  0.562075014787395       0.575950095952684       0.589825177117976     
  0.603700258283267       0.617575339448558       0.631450420613849     
  0.645325501779140       0.659200582944432       0.673075664109721     
  0.686950745275012       0.574027841581945       0.587902922747237     
  0.601778003912527       0.615653085077819       0.629528166243110     
  0.643403247408400       0.657278328573693       0.671153409738982     
  0.685028490904274       0.698903572069565       0.712778653234854     
  0.595739112832642       0.609614193997934       0.623489275163225     
  0.637364356328515       0.651239437493805       0.665114518659096     
  0.678989599824386       0.692864680989678       0.706739762154969     
  0.720614843320259       0.734489924485552       0.612991347656884     
  0.626866428822176       0.640741509987467       0.654616591152755     
  0.668491672318047       0.682366753483337       0.696241834648628     
  0.710116915813919       0.723991996979211       0.737867078144504     
  0.751742159309793       0.625512468005508       0.639387549170798     
  0.653262630336090       0.667137711501380       0.681012792666671     
  0.694887873831963       0.708762954997253       0.722638036162545     
  0.736513117327835       0.750388198493125       0.764263279658417     
  0.633105008330862       0.646980089496151       0.660855170661441     
  0.674730251826734       0.688605332992026       0.702480414157314     
  0.716355495322606       0.730230576487894       0.744105657653188     
  0.757980738818479       0.771855819983769       0.635649229736450     
  0.649524310901739       0.663399392067031       0.677274473232321     
  0.691149554397612       0.705024635562902       0.718899716728194     
  0.732774797893484       0.746649879058775       0.760524960224068     
  0.774400041389359     
  2.651247573289247E-002  2.386122815960322E-002  2.120998058631397E-002
  1.855873301302472E-002  1.590748543973548E-002  1.325623786644623E-002
  1.060499029315698E-002  7.953742719867740E-003  5.302495146578492E-003
  2.651247573289244E-003  0.000000000000000E+000  2.651247573289247E-002
  2.386122815960322E-002  2.120998058631397E-002  1.855873301302472E-002
  1.590748543973548E-002  1.325623786644623E-002  1.060499029315698E-002
  7.953742719867740E-003  5.302495146578492E-003  2.651247573289244E-003
  0.000000000000000E+000  2.651247573289247E-002  2.386122815960322E-002
  2.120998058631397E-002  1.855873301302472E-002  1.590748543973548E-002
  1.325623786644623E-002  1.060499029315698E-002  7.953742719867740E-003
  5.302495146578492E-003  2.651247573289244E-003  0.000000000000000E+000
  2.651247573289247E-002  2.386122815960322E-002  2.120998058631397E-002
  1.855873301302472E-002  1.590748543973548E-002  1.325623786644623E-002
  1.060499029315698E-002  7.953742719867740E-003  5.302495146578492E-003
  2.651247573289244E-003  0.000000000000000E+000  2.651247573289247E-002
  2.386122815960322E-002  2.120998058631397E-002  1.855873301302472E-002
  1.590748543973548E-002  1.325623786644623E-002  1.060499029315698E-002
  7.953742719867740E-003  5.302495146578492E-003  2.651247573289244E-003
  0.000000000000000E+000  2.651247573289247E-002  2.386122815960322E-002
  2.120998058631397E-002  1.855873301302472E-002  1.590748543973548E-002
  1.325623786644623E-002  1.060499029315698E-002  7.953742719867740E-003
  5.302495146578492E-003  2.651247573289244E-003  0.000000000000000E+000
  2.651247573289247E-002  2.386122815960322E-002  2.120998058631397E-002
  1.855873301302472E-002  1.590748543973548E-002  1.325623786644623E-002
  1.060499029315698E-002  7.953742719867740E-003  5.302495146578492E-003
  2.651247573289244E-003  0.000000000000000E+000  2.651247573289247E-002
  2.386122815960322E-002  2.120998058631397E-002  1.855873301302472E-002
  1.590748543973548E-002  1.325623786644623E-002  1.060499029315698E-002
  7.953742719867740E-003  5.302495146578492E-003  2.651247573289244E-003
  0.000000000000000E+000  2.651247573289247E-002  2.386122815960322E-002
  2.120998058631397E-002  1.855873301302472E-002  1.590748543973548E-002
  1.325623786644623E-002  1.060499029315698E-002  7.953742719867740E-003
  5.302495146578492E-003  2.651247573289244E-003  0.000000000000000E+000
  2.651247573289247E-002  2.386122815960322E-002  2.120998058631397E-002
  1.855873301302472E-002  1.590748543973548E-002  1.325623786644623E-002
  1.060499029315698E-002  7.953742719867740E-003  5.302495146578492E-003
  2.651247573289244E-003  0.000000000000000E+000  2.651247573289247E-002
  2.386122815960322E-002  2.120998058631397E-002  1.855873301302472E-002
  1.590748543973548E-002  1.325623786644623E-002  1.060499029315698E-002
  7.953742719867740E-003  5.302495146578492E-003  2.651247573289244E-003
  0.000000000000000E+000  2.651247573289247E-002  2.386122815960322E-002
  2.120998058631397E-002  1.855873301302472E-002  1.590748543973548E-002
  1.325623786644623E-002  1.060499029315698E-002  7.953742719867740E-003
  5.302495146578492E-003  2.651247573289244E-003  0.000000000000000E+000
  2.651247573289247E-002  2.386122815960322E-002  2.120998058631397E-002
  1.855873301302472E-002  1.590748543973548E-002  1.325623786644623E-002
  1.060499029315698E-002  7.953742719867740E-003  5.302495146578492E-003
  2.651247573289244E-003  0.000000000000000E+000  2.651247573289247E-002
  2.386122815960322E-002  2.120998058631397E-002  1.855873301302472E-002
  1.590748543973548E-002  1.325623786644623E-002  1.060499029315698E-002
  7.953742719867740E-003  5.302495146578492E-003  2.651247573289244E-003
  0.000000000000000E+000  2.651247573289247E-002  2.386122815960322E-002
  2.120998058631397E-002  1.855873301302472E-002  1.590748543973548E-002
  1.325623786644623E-002  1.060499029315698E-002  7.953742719867740E-003
  5.302495146578492E-003  2.651247573289244E-003  0.000000000000000E+000
  2.651247573289247E-002  2.386122815960322E-002  2.120998058631397E-002
  1.855873301302472E-002  1.590748543973548E-002  1.325623786644623E-002
  1.060499029315698E-002  7.953742719867740E-003  5.302495146578492E-003
  2.651247573289244E-003  0.000000000000000E+000  2.651247573289247E-002
  2.386122815960322E-002  2.120998058631397E-002  1.855873301302472E-002
  1.590748543973548E-002  1.325623786644623E-002  1.060499029315698E-002
  7.953742719867740E-003  5.302495146578492E-003  2.651247573289244E-003
  0.000000000000000E+000  2.651247573289247E-002  2.386122815960322E-002
  2.120998058631397E-002  1.855873301302472E-002  1.590748543973548E-002
  1.325623786644623E-002  1.060499029315698E-002  7.953742719867740E-003
  5.302495146578492E-003  2.651247573289244E-003  0.000000000000000E+000
  2.651247573289247E-002  2.386122815960322E-002  2.120998058631397E-002
  1.855873301302472E-002  1.590748543973548E-002  1.325623786644623E-002
  1.060499029315698E-002  7.953742719867740E-003  5.302495146578492E-003
  2.651247573289244E-003  0.000000000000000E+000  2.651247573289247E-002
  2.386122815960322E-002  2.120998058631397E-002  1.855873301302472E-002
  1.590748543973548E-002  1.325623786644623E-002  1.060499029315698E-002
  7.953742719867740E-003  5.302495146578492E-003  2.651247573289244E-003
  0.000000000000000E+000  2.651247573289247E-002  2.386122815960322E-002
  2.120998058631397E-002  1.855873301302472E-002  1.590748543973548E-002
  1.325623786644623E-002  1.060499029315698E-002  7.953742719867740E-003
  5.302495146578492E-003  2.651247573289244E-003  0.000000000000000E+000
  2.651247573289247E-002  2.386122815960322E-002  2.120998058631397E-002
  1.855873301302472E-002  1.590748543973548E-002  1.325623786644623E-002
  1.060499029315698E-002  7.953742719867740E-003  5.302495146578492E-003
  2.651247573289244E-003  0.000000000000000E+000  2.651247573289247E-002
  2.386122815960322E-002  2.120998058631397E-002  1.855873301302472E-002
  1.590748543973548E-002  1.325623786644623E-002  1.060499029315698E-002
  7.953742719867740E-003  5.302495146578492E-003  2.651247573289244E-003
  0.000000000000000E+000  2.651247573289247E-002  2.386122815960322E-002
  2.120998058631397E-002  1.855873301302472E-002  1.590748543973548E-002
  1.325623786644623E-002  1.060499029315698E-002  7.953742719867740E-003
  5.302495146578492E-003  2.651247573289244E-003  0.000000000000000E+000
  2.651247573289247E-002  2.386122815960322E-002  2.120998058631397E-002
  1.855873301302472E-002  1.590748543973548E-002  1.325623786644623E-002
  1.060499029315698E-002  7.953742719867740E-003  5.302495146578492E-003
  2.651247573289244E-003  0.000000000000000E+000  2.651247573289247E-002
  2.386122815960322E-002  2.120998058631397E-002  1.855873301302472E-002
  1.590748543973548E-002  1.325623786644623E-002  1.060499029315698E-002
  7.953742719867740E-003  5.302495146578492E-003  2.651247573289244E-003
  0.000000000000000E+000
  6.631303117579554E-003  1.761134234710741E-002  3.145943087742621E-002
  4.305636608521311E-002  5.010464028200621E-002  5.313300629524816E-002
  5.425276073904766E-002  5.796053603379620E-002  6.342540346413547E-002
  6.991033803934645E-002  3.656737123123185E-003  1.971924606137593E-002
  4.111107306365626E-002  5.957537162267797E-002  7.159169176012942E-002
  7.820337603866666E-002  8.140833291659054E-002  8.809456377011776E-002
  9.778417734100589E-002  0.109716331292361      -1.514548173177835E-002
 -7.525790347693388E-004  2.253267344806167E-002  4.428582314191804E-002
  6.047499898100998E-002  7.256150556624819E-002  8.199250192191838E-002
  9.359541859316411E-002  0.108241789429230       0.125909921719061     
 -3.565073203446625E-002 -2.846309134185674E-002 -8.722898528957702E-003
  1.289707452864764E-002  3.171028592699630E-002  4.896871169674358E-002
  6.652064696319064E-002  8.530261473780468E-002  0.105931190608252     
  0.129131317521807      -3.381871668709831E-002 -3.089761293480119E-002
 -1.641805401115077E-002  3.173329018090214E-003  2.492181913180646E-002
  4.797860891168206E-002  7.208939706057792E-002  9.730128537689785E-002
  0.124351723923954       0.153212041577974      -3.802819827829059E-003
  8.158171070706141E-003  2.619404112592918E-002  4.770286183635474E-002
  7.163866677429456E-002  9.770613366090475E-002  0.125763877383604     
  0.155738950978077       0.187717940281342       0.220728175478383     
  4.667752392656152E-002  7.902070041623611E-002  0.109341357611619     
  0.139185636405705       0.169065783376993       0.199476515087663     
  0.230963000371909       0.263927592451734       0.298517835902924     
  0.333368243888977       0.113750292696094       0.175290360424524     
  0.224485724236687       0.267797338705314       0.307693845715366     
  0.345539028372665       0.382361193134161       0.418964513040013     
  0.455740472926247       0.491426267002264       0.196846763388811     
  0.295677426705503       0.369730902687136       0.431228706126744     
  0.484890195928333       0.533202756388088       0.577730078940898     
  0.619598889306669       0.659429991379445       0.696012088461244     
  0.294307799636246       0.437603233054158       0.541856428193374     
  0.625891339509357       0.696909461152706       0.758621804999525     
  0.813252848158161       0.862214584491471       0.906233791146431     
  0.944071015848570       0.403061372531579       0.596442616654562     
  0.735056656828761       0.845012455965257       0.936231240189102     
   1.01373349564612        1.08044511731857        1.13812279701837     
   1.18752609925326        1.22720272992663       0.519998722111652     
  0.767378521718586       0.943132734908051        1.08118253378875     
   1.19437804760683        1.28915794928792        1.36919739545100     
   1.43662647639382        1.49228505610992        1.53445432447550     
  0.642586032774537       0.946430792836492        1.16090702616585     
   1.32815479853287        1.46412302580404        1.57676989208834     
   1.67059016845255        1.74813815973666        1.81037799932761     
   1.85538509043947       0.768918025709282        1.13060837247172     
   1.38448955923287        1.58123385362266        1.74002818346923     
   1.87043835303386        1.97785445250936        2.06532433546034     
   2.13400662219733        2.18184291788562       0.897799333769935     
   1.31803577706294        1.61142059222379        1.83740424621227     
   2.01854247087036        2.16610234350174        2.28644915579511     
   2.38320476567289        2.45781194442378        2.50820100332958     
   1.03018374517801        1.50983770683712        1.84269002804661     
   2.09732423909041        2.29986192795396        2.46343333655892     
   2.59552227131679        2.70045086369768        2.78007166301657     
   2.83246193212808        1.17469392544550        1.71713152920845     
   2.09011360458077        2.37270223186677        2.59526337978405     
   2.77317523154526        2.91527479138465        3.02676250905390     
   3.11006861039415        3.16362388193658        1.36042082006469     
   1.97532174853661        2.39030295798154        2.70016059921666     
   2.94146659432785        3.13248605329276        3.28360828413172     
   3.40099700427386        3.48770539549584        3.54248533629257     
   1.58885449306459        2.28597200012697        2.74441611617134     
   3.07981876632992        3.33694698475915        3.53786469561454     
   3.69502309971574        3.81584597266013        3.90417898962871     
   3.95926892584931        1.73909607118795        2.48572332418750     
   2.96608692081648        3.30996288934062        3.56817127619318     
   3.76624071964017        3.91865801665429        4.03400088128497     
   4.11683966547219        4.16731429262102        1.76685301914205     
   2.50595866090173        2.96979732353751        3.29465782555582     
   3.53420386768057        3.71525767229608        3.85276602737081     
   3.95531914673668        4.02740139653915        4.06974107111646     
   1.66270621938677        2.32892241243190        2.73298467977540     
   3.00935973969724        3.20995009649273        3.35989459882442     
   3.47267424802753        3.55567002660954        3.61242952133536     
   3.64350098619050        1.44140780123661        1.97416901754321     
   2.28506282475469        2.49458377336016        2.64576872030823     
   2.75847988130529        2.84310810636043        2.90528480704352     
   2.94783014379414        2.97150165946709        1.10340850330394     
   1.46355647361258        1.67089011063056        1.81095437553824     
   1.91238784210310        1.98825570256135        2.04544532595955     
   2.08784364565542        2.11795436984271        2.13940245948886     
  0.671016439174764       0.872702450150728       0.989913965339763     
   1.06954776355241        1.12742328791532        1.17081537467543     
   1.20357944123614        1.22787139064433        1.24485904079636     
   1.25485393263131     
  0.000000000000000E+000  0.000000000000000E+000  0.000000000000000E+000
  0.000000000000000E+000  0.000000000000000E+000  0.000000000000000E+000
  0.000000000000000E+000  0.000000000000000E+000  0.000000000000000E+000
  0.000000000000000E+000  0.000000000000000E+000  0.000000000000000E+000
  0.000000000000000E+000  0.000000000000000E+000  0.000000000000000E+000
  0.000000000000000E+000  0.000000000000000E+000  0.000000000000000E+000
  0.000000000000000E+000  0.000000000000000E+000  0.000000000000000E+000
  0.000000000000000E+000  0.000000000000000E+000  0.000000000000000E+000
  0.000000000000000E+000  0.000000000000000E+000  0.000000000000000E+000
  0.000000000000000E+000  0.000000000000000E+000  0.000000000000000E+000
  0.000000000000000E+000  0.000000000000000E+000  0.000000000000000E+000
  0.000000000000000E+000  0.000000000000000E+000  0.000000000000000E+000
  0.000000000000000E+000  0.000000000000000E+000  0.000000000000000E+000
  0.000000000000000E+000  0.000000000000000E+000  0.000000000000000E+000
  0.000000000000000E+000  0.000000000000000E+000  0.000000000000000E+000
  0.000000000000000E+000  0.000000000000000E+000  0.000000000000000E+000
  0.000000000000000E+000  0.000000000000000E+000  0.000000000000000E+000
  0.000000000000000E+000  0.000000000000000E+000  0.000000000000000E+000
  0.000000000000000E+000  0.000000000000000E+000  0.000000000000000E+000
  0.000000000000000E+000  0.000000000000000E+000  0.000000000000000E+000
  0.000000000000000E+000  0.000000000000000E+000  0.000000000000000E+000
  0.000000000000000E+000  0.000000000000000E+000  0.000000000000000E+000
  0.000000000000000E+000  0.000000000000000E+000  0.000000000000000E+000
  0.000000000000000E+000  0.000000000000000E+000  0.000000000000000E+000
  0.000000000000000E+000  0.000000000000000E+000  0.000000000000000E+000
  0.000000000000000E+000  0.000000000000000E+000  0.000000000000000E+000
  0.000000000000000E+000  0.000000000000000E+000  0.000000000000000E+000
  0.000000000000000E+000  0.000000000000000E+000  0.000000000000000E+000
  0.000000000000000E+000  0.000000000000000E+000  0.000000000000000E+000
  0.000000000000000E+000  0.000000000000000E+000  0.000000000000000E+000
  0.000000000000000E+000  0.000000000000000E+000  0.000000000000000E+000
  0.000000000000000E+000  0.000000000000000E+000  0.000000000000000E+000
  0.000000000000000E+000  0.000000000000000E+000  0.000000000000000E+000
  0.000000000000000E+000  0.000000000000000E+000  0.000000000000000E+000
  0.000000000000000E+000  0.000000000000000E+000  0.000000000000000E+000
  0.000000000000000E+000  0.000000000000000E+000  0.000000000000000E+000
  0.000000000000000E+000  0.000000000000000E+000  0.000000000000000E+000
  0.000000000000000E+000  0.000000000000000E+000  0.000000000000000E+000
  0.000000000000000E+000  0.000000000000000E+000  0.000000000000000E+000