 Title = "Wing and Wake"
 VARIABLES = "X" "Y" "Z" "GAM" "skew"
 Zone I=   11 J=   26 K=1  T="Blade"
 DATAPACKING=BLOCK
 VARLOCATION=([4]=CELLCENTERED,[5]=CELLCENTERED)
 -0.236862829472326      -0.218855649888616      -0.200848470304906     
 -0.182841290721197      -0.164834111137487      -0.146826931553777     
 -0.128819751970067      -0.110812572386357      -9.280539280264756E-002
 -7.479821321893780E-002 -5.679103363522807E-002 -0.237982096494678     
 -0.219974916910969      -0.201967737327259      -0.183960557743549     
 -0.165953378159839      -0.147946198576130      -0.129939018992420     
 -0.111931839408710      -9.392465982500008E-002 -7.591748024129041E-002
 -5.791030065758059E-002 -0.241322246052175      -0.223315066468466     
 -0.205307886884756      -0.187300707301046      -0.169293527717336     
 -0.151286348133627      -0.133279168549917      -0.115271988966207     
 -9.726480938249750E-002 -7.925762979878764E-002 -6.125045021507791E-002
 -0.246830601990987      -0.228823422407277      -0.210816242823568     
 -0.192809063239858      -0.174801883656148      -0.156794704072439     
 -0.138787524488729      -0.120780344905019      -0.102773165321309     
 -8.476598573759951E-002 -6.675880615388977E-002 -0.254420294247426     
 -0.236413114663716      -0.218405935080007      -0.200398755496297     
 -0.182391575912587      -0.164384396328877      -0.146377216745168     
 -0.128370037161458      -0.110362857577748      -9.235567799403843E-002
 -7.434849841032859E-002 -0.263971628840746      -0.245964449257036     
 -0.227957269673326      -0.209950090089617      -0.191942910505907     
 -0.173935730922197      -0.155928551338487      -0.137921371754777     
 -0.119914192171068      -0.101907012587358      -8.389983300364796E-002
 -0.275333975518719      -0.257326795935009      -0.239319616351299     
 -0.221312436767589      -0.203305257183879      -0.185298077600170     
 -0.167290898016460      -0.149283718432750      -0.131276538849040     
 -0.113269359265330      -9.526217968162078E-002 -0.288328143286696     
 -0.270320963702986      -0.252313784119276      -0.234306604535567     
 -0.216299424951857      -0.198292245368147      -0.180285065784437     
 -0.162277886200728      -0.144270706617018      -0.126263527033308     
 -0.108256347449598      -0.302749206356638      -0.284742026772928     
 -0.266734847189218      -0.248727667605508      -0.230720488021798     
 -0.212713308438089      -0.194706128854379      -0.176698949270669     
 -0.158691769686960      -0.140684590103250      -0.122677410519540     
 -0.318369735949205      -0.300362556365495      -0.282355376781785     
 -0.264348197198076      -0.246341017614366      -0.228333838030656     
 -0.210326658446946      -0.192319478863236      -0.174312299279527     
 -0.156305119695817      -0.138297940112107      -0.334943386981471     
 -0.316936207397761      -0.298929027814052      -0.280921848230342     
 -0.262914668646632      -0.244907489062922      -0.226900309479212     
 -0.208893129895502      -0.190885950311793      -0.172878770728083     
 -0.154871591144373      -0.352208783076038      -0.334201603492328     
 -0.316194423908618      -0.298187244324909      -0.280180064741199     
 -0.262172885157489      -0.244165705573779      -0.226158525990069     
 -0.208151346406359      -0.190144166822650      -0.172136987238940     
 -0.369893638622646      -0.351886459038937      -0.333879279455227     
 -0.315872099871517      -0.297864920287807      -0.279857740704098     
 -0.261850561120388      -0.243843381536678      -0.225836201952968     
 -0.207829022369259      -0.189821842785549      -0.387719052884906     
 -0.369711873301196      -0.351704693717486      -0.333697514133777     
 -0.315690334550067      -0.297683154966357      -0.279675975382647     
 -0.261668795798938      -0.243661616215228      -0.225654436631518     
 -0.207647257047808      -0.405403908431514      -0.387396728847805     
 -0.369389549264095      -0.351382369680385      -0.333375190096676     
 -0.315368010512966      -0.297360830929256      -0.279353651345546     
 -0.261346471761836      -0.243339292178127      -0.225332112594417     
 -0.422669304526081      -0.404662124942371      -0.386654945358662     
 -0.368647765774952      -0.350640586191242      -0.332633406607533     
 -0.314626227023822      -0.296619047440113      -0.278611867856403     
 -0.260604688272694      -0.242597508688984      -0.439242955558347     
 -0.421235775974638      -0.403228596390928      -0.385221416807219     
 -0.367214237223508      -0.349207057639799      -0.331199878056089     
 -0.313192698472379      -0.295185518888669      -0.277178339304960     
 -0.259171159721250      -0.454863485150915      -0.436856305567205     
 -0.418849125983495      -0.400841946399785      -0.382834766816076     
 -0.364827587232366      -0.346820407648656      -0.328813228064947     
 -0.310806048481236      -0.292798868897527      -0.274791689313817     
 -0.469284548220856      -0.451277368637146      -0.433270189053437     
 -0.415263009469727      -0.397255829886017      -0.379248650302307     
 -0.361241470718598      -0.343234291134888      -0.325227111551178     
 -0.307219931967469      -0.289212752383759      -0.482278715988834     
 -0.464271536405124      -0.446264356821414      -0.428257177237705     
 -0.410249997653994      -0.392242818070285      -0.374235638486575     
 -0.356228458902865      -0.338221279319156      -0.320214099735446     
 -0.302206920151736      -0.493641062666807      -0.475633883083096     
 -0.457626703499387      -0.439619523915677      -0.421612344331967     
 -0.403605164748257      -0.385597985164548      -0.367590805580838     
 -0.349583625997129      -0.331576446413418      -0.313569266829709     
 -0.503192397260125      -0.485185217676417      -0.467178038092706     
 -0.449170858508997      -0.431163678925287      -0.413156499341577     
 -0.395149319757867      -0.377142140174158      -0.359134960590447     
 -0.341127781006738      -0.323120601423029      -0.510782089516565     
 -0.492774909932855      -0.474767730349145      -0.456760550765435     
 -0.438753371181726      -0.420746191598016      -0.402739012014306     
 -0.384731832430597      -0.366724652846887      -0.348717473263177     
 -0.330710293679467      -0.516290445455377      -0.498283265871667     
 -0.480276086287957      -0.462268906704248      -0.444261727120538     
 -0.426254547536828      -0.408247367953118      -0.390240188369409     
 -0.372233008785699      -0.354225829201989      -0.336218649618279     
 -0.519630595012874      -0.501623415429164      -0.483616235845455     
 -0.465609056261745      -0.447601876678035      -0.429594697094325     
 -0.411587517510615      -0.393580337926905      -0.375573158343196     
 -0.357565978759486      -0.339558799175776      -0.520749862035226     
 -0.502742682451517      -0.484735502867807      -0.466728323284098     
 -0.448721143700388      -0.430713964116677      -0.412706784532968     
 -0.394699604949258      -0.376692425365548      -0.358685245781839     
 -0.340678066198129     
  0.125650730982699       0.131273441160643       0.136896151338587     
  0.142518861516531       0.148141571694475       0.153764281872419     
  0.159386992050363       0.165009702228307       0.170632412406251     
  0.176255122584195       0.181877832762138       0.129235273247156     
  0.134857983425099       0.140480693603043       0.146103403780987     
  0.151726113958931       0.157348824136875       0.162971534314819     
  0.168594244492763       0.174216954670706       0.179839664848651     
  0.185462375026594       0.139932369667710       0.145555079845654     
  0.151177790023598       0.156800500201542       0.162423210379486     
  0.168045920557430       0.173668630735374       0.179291340913318     
  0.184914051091262       0.190536761269206       0.196159471447150     
  0.157573320643677       0.163196030821621       0.168818740999565     
  0.174441451177509       0.180064161355453       0.185686871533397     
  0.191309581711341       0.196932291889285       0.202555002067229     
  0.208177712245172       0.213800422423116       0.181879917839972     
  0.187502628017915       0.193125338195859       0.198748048373803     
  0.204370758551747       0.209993468729691       0.215616178907635     
  0.221238889085579       0.226861599263523       0.232484309441467     
  0.238107019619411       0.212468831698750       0.218091541876694     
  0.223714252054638       0.229336962232582       0.234959672410526     
  0.240582382588470       0.246205092766413       0.251827802944357     
  0.257450513122301       0.263073223300245       0.268695933478189     
  0.248857656775529       0.254480366953472       0.260103077131416     
  0.265725787309360       0.271348497487304       0.276971207665248     
  0.282593917843192       0.288216628021136       0.293839338199080     
  0.299462048377024       0.305084758554967       0.290472519561216     
  0.296095229739160       0.301717939917104       0.307340650095048     
  0.312963360272992       0.318586070450936       0.324208780628879     
  0.329831490806824       0.335454200984767       0.341076911162711     
  0.346699621340655       0.336657128810168       0.342279838988112     
  0.347902549166056       0.353525259344000       0.359147969521944     
  0.364770679699887       0.370393389877831       0.376016100055775     
  0.381638810233719       0.387261520411663       0.392884230589607     
  0.386683125645180       0.392305835823124       0.397928546001068     
  0.403551256179012       0.409173966356956       0.414796676534900     
  0.420419386712843       0.426042096890787       0.431664807068731     
  0.437287517246675       0.442910227424619       0.439761570212082     
  0.445384280390026       0.451006990567970       0.456629700745914     
  0.462252410923858       0.467875121101802       0.473497831279746     
  0.479120541457690       0.484743251635634       0.490365961813577     
  0.495988671991521       0.495055383732529       0.500678093910473     
  0.506300804088417       0.511923514266360       0.517546224444304     
  0.523168934622248       0.528791644800192       0.534414354978136     
  0.540037065156080       0.545659775334024       0.551282485511968     
  0.551692549736379       0.557315259914323       0.562937970092267     
  0.568560680270210       0.574183390448155       0.579806100626099     
  0.585428810804042       0.591051520981986       0.596674231159930     
  0.602296941337874       0.607919651515818       0.608779866282349     
  0.614402576460293       0.620025286638236       0.625647996816181     
  0.631270706994125       0.636893417172068       0.642516127350012     
  0.648138837527956       0.653761547705900       0.659384257883844     
  0.665006968061788       0.665417032286199       0.671039742464143     
  0.676662452642087       0.682285162820031       0.687907872997975     
  0.693530583175918       0.699153293353863       0.704776003531806     
  0.710398713709750       0.716021423887695       0.721644134065638     
  0.720710845806646       0.726333555984589       0.731956266162533     
  0.737578976340477       0.743201686518421       0.748824396696365     
  0.754447106874309       0.760069817052253       0.765692527230196     
  0.771315237408141       0.776937947586085       0.773789290373548     
  0.779412000551492       0.785034710729436       0.790657420907380     
  0.796280131085324       0.801902841263267       0.807525551441211     
  0.813148261619155       0.818770971797099       0.824393681975043     
  0.830016392152987       0.823815287208560       0.829437997386504     
  0.835060707564448       0.840683417742392       0.846306127920335     
  0.851928838098279       0.857551548276223       0.863174258454167     
  0.868796968632111       0.874419678810055       0.880042388987998     
  0.869999896457512       0.875622606635456       0.881245316813400     
  0.886868026991343       0.892490737169287       0.898113447347231     
  0.903736157525175       0.909358867703119       0.914981577881063     
  0.920604288059007       0.926226998236951       0.911614759243199     
  0.917237469421143       0.922860179599087       0.928482889777031     
  0.934105599954975       0.939728310132919       0.945351020310863     
  0.950973730488806       0.956596440666751       0.962219150844694     
  0.967841861022638       0.948003584319978       0.953626294497922     
  0.959249004675865       0.964871714853809       0.970494425031754     
  0.976117135209697       0.981739845387641       0.987362555565586     
  0.992985265743529       0.998607975921472        1.00423068609942     
  0.978592498178756       0.984215208356701       0.989837918534644     
  0.995460628712588        1.00108333889053        1.00670604906848     
   1.01232875924642        1.01795146942436        1.02357417960231     
   1.02919688978025        1.03481959995820        1.00289909537505     
   1.00852180555299        1.01414451573094        1.01976722590888     
   1.02538993608683        1.03101264626477        1.03663535644271     
   1.04225806662066        1.04788077679860        1.05350348697655     
   1.05912619715449        1.02054004635102        1.02616275652896     
   1.03178546670691        1.03740817688485        1.04303088706279     
   1.04865359724074        1.05427630741868        1.05989901759662     
   1.06552172777457        1.07114443795251        1.07676714813046     
   1.03123714277157        1.03685985294952        1.04248256312746     
   1.04810527330540        1.05372798348335        1.05935069366129     
   1.06497340383924        1.07059611401718        1.07621882419512     
   1.08184153437307        1.08746424455101        1.03482168503603     
   1.04044439521397        1.04606710539192        1.05168981556986     
   1.05731252574780        1.06293523592575        1.06855794610369     
   1.07418065628164        1.07980336645958        1.08542607663752     
   1.09104878681547     
  2.651247573289247E-002  2.386122815960322E-002  2.120998058631397E-002
  1.855873301302472E-002  1.590748543973548E-002  1.325623786644623E-002
  1.060499029315698E-002  7.953742719867740E-003  5.302495146578492E-003
  2.651247573289244E-003  0.000000000000000E+000  2.651247573289247E-002
  2.386122815960322E-002  2.120998058631397E-002  1.855873301302472E-002
  1.590748543973548E-002  1.325623786644623E-002  1.060499029315698E-002
  7.953742719867740E-003  5.302495146578492E-003  2.651247573289244E-003
  0.000000000000000E+000  2.651247573289247E-002  2.386122815960322E-002
  2.120998058631397E-002  1.855873301302472E-002  1.590748543973548E-002
  1.325623786644623E-002  1.060499029315698E-002  7.953742719867740E-003
  5.302495146578492E-003  2.651247573289244E-003  0.000000000000000E+000
  2.651247573289247E-002  2.386122815960322E-002  2.120998058631397E-002
  1.855873301302472E-002  1.590748543973548E-002  1.325623786644623E-002
  1.060499029315698E-002  7.953742719867740E-003  5.302495146578492E-003
  2.651247573289244E-003  0.000000000000000E+000  2.651247573289247E-002
  2.386122815960322E-002  2.120998058631397E-002  1.855873301302472E-002
  1.590748543973548E-002  1.325623786644623E-002  1.060499029315698E-002
  7.953742719867740E-003  5.302495146578492E-003  2.651247573289244E-003
  0.000000000000000E+000  2.651247573289247E-002  2.386122815960322E-002
  2.120998058631397E-002  1.855873301302472E-002  1.590748543973548E-002
  1.325623786644623E-002  1.060499029315698E-002  7.953742719867740E-003
  5.302495146578492E-003  2.651247573289244E-003  0.000000000000000E+000
  2.651247573289247E-002  2.386122815960322E-002  2.120998058631397E-002
  1.855873301302472E-002  1.590748543973548E-002  1.325623786644623E-002
  1.060499029315698E-002  7.953742719867740E-003  5.302495146578492E-003
  2.651247573289244E-003  0.000000000000000E+000  2.651247573289247E-002
  2.386122815960322E-002  2.120998058631397E-002  1.855873301302472E-002
  1.590748543973548E-002  1.325623786644623E-002  1.060499029315698E-002
  7.953742719867740E-003  5.302495146578492E-003  2.651247573289244E-003
  0.000000000000000E+000  2.651247573289247E-002  2.386122815960322E-002
  2.120998058631397E-002  1.855873301302472E-002  1.590748543973548E-002
  1.325623786644623E-002  1.060499029315698E-002  7.953742719867740E-003
  5.302495146578492E-003  2.651247573289244E-003  0.000000000000000E+000
  2.651247573289247E-002  2.386122815960322E-002  2.120998058631397E-002
  1.855873301302472E-002  1.590748543973548E-002  1.325623786644623E-002
  1.060499029315698E-002  7.953742719867740E-003  5.302495146578492E-003
  2.651247573289244E-003  0.000000000000000E+000  2.651247573289247E-002
  2.386122815960322E-002  2.120998058631397E-002  1.855873301302472E-002
  1.590748543973548E-002  1.325623786644623E-002  1.060499029315698E-002
  7.953742719867740E-003  5.302495146578492E-003  2.651247573289244E-003
  0.000000000000000E+000  2.651247573289247E-002  2.386122815960322E-002
  2.120998058631397E-002  1.855873301302472E-002  1.590748543973548E-002
  1.325623786644623E-002  1.060499029315698E-002  7.953742719867740E-003
  5.302495146578492E-003  2.651247573289244E-003  0.000000000000000E+000
  2.651247573289247E-002  2.386122815960322E-002  2.120998058631397E-002
  1.855873301302472E-002  1.590748543973548E-002  1.325623786644623E-002
  1.060499029315698E-002  7.953742719867740E-003  5.302495146578492E-003
  2.651247573289244E-003  0.000000000000000E+000  2.651247573289247E-002
  2.386122815960322E-002  2.120998058631397E-002  1.855873301302472E-002
  1.590748543973548E-002  1.325623786644623E-002  1.060499029315698E-002
  7.953742719867740E-003  5.302495146578492E-003  2.651247573289244E-003
  0.000000000000000E+000  2.651247573289247E-002  2.386122815960322E-002
  2.120998058631397E-002  1.855873301302472E-002  1.590748543973548E-002
  1.325623786644623E-002  1.060499029315698E-002  7.953742719867740E-003
  5.302495146578492E-003  2.651247573289244E-003  0.000000000000000E+000
  2.651247573289247E-002  2.386122815960322E-002  2.120998058631397E-002
  1.855873301302472E-002  1.590748543973548E-002  1.325623786644623E-002
  1.060499029315698E-002  7.953742719867740E-003  5.302495146578492E-003
  2.651247573289244E-003  0.000000000000000E+000  2.651247573289247E-002
  2.386122815960322E-002  2.120998058631397E-002  1.855873301302472E-002
  1.590748543973548E-002  1.325623786644623E-002  1.060499029315698E-002
  7.953742719867740E-003  5.302495146578492E-003  2.651247573289244E-003
  0.000000000000000E+000  2.651247573289247E-002  2.386122815960322E-002
  2.120998058631397E-002  1.855873301302472E-002  1.590748543973548E-002
  1.325623786644623E-002  1.060499029315698E-002  7.953742719867740E-003
  5.302495146578492E-003  2.651247573289244E-003  0.000000000000000E+000
  2.651247573289247E-002  2.386122815960322E-002  2.120998058631397E-002
  1.855873301302472E-002  1.590748543973548E-002  1.325623786644623E-002
  1.060499029315698E-002  7.953742719867740E-003  5.302495146578492E-003
  2.651247573289244E-003  0.000000000000000E+000  2.651247573289247E-002
  2.386122815960322E-002  2.120998058631397E-002  1.855873301302472E-002
  1.590748543973548E-002  1.325623786644623E-002  1.060499029315698E-002
  7.953742719867740E-003  5.302495146578492E-003  2.651247573289244E-003
  0.000000000000000E+000  2.651247573289247E-002  2.386122815960322E-002
  2.120998058631397E-002  1.855873301302472E-002  1.590748543973548E-002
  1.325623786644623E-002  1.060499029315698E-002  7.953742719867740E-003
  5.302495146578492E-003  2.651247573289244E-003  0.000000000000000E+000
  2.651247573289247E-002  2.386122815960322E-002  2.120998058631397E-002
  1.855873301302472E-002  1.590748543973548E-002  1.325623786644623E-002
  1.060499029315698E-002  7.953742719867740E-003  5.302495146578492E-003
  2.651247573289244E-003  0.000000000000000E+000  2.651247573289247E-002
  2.386122815960322E-002  2.120998058631397E-002  1.855873301302472E-002
  1.590748543973548E-002  1.325623786644623E-002  1.060499029315698E-002
  7.953742719867740E-003  5.302495146578492E-003  2.651247573289244E-003
  0.000000000000000E+000  2.651247573289247E-002  2.386122815960322E-002
  2.120998058631397E-002  1.855873301302472E-002  1.590748543973548E-002
  1.325623786644623E-002  1.060499029315698E-002  7.953742719867740E-003
  5.302495146578492E-003  2.651247573289244E-003  0.000000000000000E+000
  2.651247573289247E-002  2.386122815960322E-002  2.120998058631397E-002
  1.855873301302472E-002  1.590748543973548E-002  1.325623786644623E-002
  1.060499029315698E-002  7.953742719867740E-003  5.302495146578492E-003
  2.651247573289244E-003  0.000000000000000E+000  2.651247573289247E-002
  2.386122815960322E-002  2.120998058631397E-002  1.855873301302472E-002
  1.590748543973548E-002  1.325623786644623E-002  1.060499029315698E-002
  7.953742719867740E-003  5.302495146578492E-003  2.651247573289244E-003
  0.000000000000000E+000
  0.266634839954895       0.376607407440594       0.457171575294231     
  0.520673013283637       0.571962703657723       0.613708666127803     
  0.647380312352395       0.674249671926667       0.695329535671973     
  0.710474484096370       0.440642573464848       0.632235469155303     
  0.771064562587794       0.880889857274046       0.970066027334947     
   1.04305741362451        1.10224248685463        1.14975062364211     
   1.18749795955663        1.21682657204460       0.582557359554914     
  0.857554554823098        1.05556388178021        1.21390183044312     
   1.34351341746343        1.45111307382401        1.53968556285718     
   1.61176127683090        1.66875965625744        1.70834664840291     
  0.686406846363494        1.02791026207975        1.27925052144605     
   1.48048092134972        1.64623628475724        1.78496560654654     
   1.90070761236173        1.99572739390082        2.07037975950345     
   2.11918631349704       0.769804781119895        1.15787062761733     
   1.44722697110518        1.68180460894054        1.87762443062460     
   2.04204664784538        2.17981207610286        2.29242785081522     
   2.37935303541505        2.43490383515002       0.846476803781639     
   1.27347295632710        1.59200236786337        1.85145387860657     
   2.06914211618591        2.25135947731620        2.40333825609632     
   2.52680251101921        2.62196904288324        2.68162516199419     
  0.925284471422879        1.38570248010071        1.72716941835993     
   2.00561915129508        2.23903192603317        2.43584320485166     
   2.60036383646935        2.73388256906265        2.83616796806642     
   2.90208095408457        1.00863916715021        1.50415315041788     
   1.86760630366783        2.16150846313297        2.40775389402202     
   2.61622461576549        2.79114031067361        2.93333571809164     
   3.04306328937838        3.11561285842016        1.09367083837217     
   1.62653603078700        2.01433206702535        2.32549909851332     
   2.58476315355808        2.80386446312379        2.98823170874054     
   3.13904001273751        3.25565081463195        3.33313740368320     
   1.18192033544164        1.75365031179733        2.16649716019845     
   2.49530138864451        2.76760430631134        2.99657999982704     
   3.18860183623046        3.34586271050961        3.46792904493075     
   3.54930613024346        1.27062649206262        1.88108191286779     
   2.31894662073695        2.66563580142682        2.95120749426824     
   3.19005104249969        3.38951200244128        3.55259762268743     
   3.67905217482583        3.76322798144755        1.35642583902940     
   2.00426185996878        2.46621188579751        2.82992240319372     
   3.12797090303673        3.37608427537475        3.58253336075085     
   3.75106549848202        3.88158352668760        3.96798020148691     
   1.43942661728546        2.12334814694199        2.60837501076273     
   2.98813959517630        3.29761354021365        3.55378740110512     
   3.76578750083452        3.93807864833937        4.07104710518943     
   4.15865070329451        1.51492714381903        2.23134313121682     
   2.73684488413934        3.13049793699366        3.44947721832903     
   3.71198188230413        3.92790153630694        4.10229025263754     
   4.23604926634757        4.32352729075867        1.57644125210682     
   2.31857706755263        2.83976472042919        3.24365941719637     
   3.56928620402344        3.83582201959745        4.05374077103625     
   4.22851633327941        4.36150011919171        4.44768744303624     
   1.61688914198972        2.37455827341032        2.90409446022806     
   3.31240300633981        3.63986502156077        3.90642223034379     
   4.12305777095985        4.29565976071092        4.42604095406767     
   4.50990980577831        1.63000098111325        2.39005567332517     
   2.91842773702094        3.32353235054382        3.64650581440149     
   3.90782252532428        4.11891668148245        4.28609060162840     
   4.41158477859084        4.49175662970286        1.61472314133963     
   2.36287788950263        2.87920961275978        3.27204423601331     
   3.58280359609187        3.83223890821442        4.03203157444889     
   4.18881630542335        4.30534871761159        4.37892362010516     
   1.58632319573389        2.31194564762101        2.80563109856863     
   3.17595923397707        3.46525527254839        3.69470761765602     
   3.87586343597909        4.01540151385588        4.11677472628475     
   4.17881279149129        1.58114240023816        2.28372596694753     
   2.74969731929248        3.09133223758844        3.35340922448623     
   3.55722060578397        3.71404041973879        3.83089069039251     
   3.91228610940453        3.95863323348971        1.59598505882315     
   2.27201679956092        2.70365464393518        3.01220355136263     
   3.24305002507611        3.41749541035793        3.54751447933479     
   3.64113042303238        3.70282064035714        3.73390056760370     
   1.56712717721205        2.18582712387714        2.56052348038269     
   2.82089346808486        3.01252734294375        3.15484192017956     
   3.25904587294504        3.33227972320527        3.37858074764472     
   3.39937042662622        1.41914448926159        1.92507955501422     
   2.21545366941505        2.41348043881239        2.55850767783665     
   2.66615613982632        2.74510729936174        2.80079168239877     
   2.83646901443286        2.85374214274154        1.11747122249241     
   1.46277715537361        1.65688167531303        1.78985038869743     
   1.88830027700076        1.96172413672031        2.01587840103257     
   2.05460318673715        2.08074269020573        2.09847440682963     
  0.686686318249146       0.880228372027787       0.990034578425550     
   1.06580019858264        1.12223972476039        1.16445714181112     
   1.19564826171933        1.21798542455037        1.23286946300959     
   1.24100421552091     
  0.000000000000000E+000  0.000000000000000E+000  0.000000000000000E+000
  0.000000000000000E+000  0.000000000000000E+000  0.000000000000000E+000
  0.000000000000000E+000  0.000000000000000E+000  0.000000000000000E+000
  0.000000000000000E+000  0.000000000000000E+000  0.000000000000000E+000
  0.000000000000000E+000  0.000000000000000E+000  0.000000000000000E+000
  0.000000000000000E+000  0.000000000000000E+000  0.000000000000000E+000
  0.000000000000000E+000  0.000000000000000E+000  0.000000000000000E+000
  0.000000000000000E+000  0.000000000000000E+000  0.000000000000000E+000
  0.000000000000000E+000  0.000000000000000E+000  0.000000000000000E+000
  0.000000000000000E+000  0.000000000000000E+000  0.000000000000000E+000
  0.000000000000000E+000  0.000000000000000E+000  0.000000000000000E+000
  0.000000000000000E+000  0.000000000000000E+000  0.000000000000000E+000
  0.000000000000000E+000  0.000000000000000E+000  0.000000000000000E+000
  0.000000000000000E+000  0.000000000000000E+000  0.000000000000000E+000
  0.000000000000000E+000  0.000000000000000E+000  0.000000000000000E+000
  0.000000000000000E+000  0.000000000000000E+000  0.000000000000000E+000
  0.000000000000000E+000  0.000000000000000E+000  0.000000000000000E+000
  0.000000000000000E+000  0.000000000000000E+000  0.000000000000000E+000
  0.000000000000000E+000  0.000000000000000E+000  0.000000000000000E+000
  0.000000000000000E+000  0.000000000000000E+000  0.000000000000000E+000
  0.000000000000000E+000  0.000000000000000E+000  0.000000000000000E+000
  0.000000000000000E+000  0.000000000000000E+000  0.000000000000000E+000
  0.000000000000000E+000  0.000000000000000E+000  0.000000000000000E+000
  0.000000000000000E+000  0.000000000000000E+000  0.000000000000000E+000
  0.000000000000000E+000  0.000000000000000E+000  0.000000000000000E+000
  0.000000000000000E+000  0.000000000000000E+000  0.000000000000000E+000
  0.000000000000000E+000  0.000000000000000E+000  0.000000000000000E+000
  0.000000000000000E+000  0.000000000000000E+000  0.000000000000000E+000
  0.000000000000000E+000  0.000000000000000E+000  0.000000000000000E+000
  0.000000000000000E+000  0.000000000000000E+000  0.000000000000000E+000
  0.000000000000000E+000  0.000000000000000E+000  0.000000000000000E+000
  0.000000000000000E+000  0.000000000000000E+000  0.000000000000000E+000
  0.000000000000000E+000  0.000000000000000E+000  0.000000000000000E+000
  0.000000000000000E+000  0.000000000000000E+000  0.000000000000000E+000
  0.000000000000000E+000  0.000000000000000E+000  0.000000000000000E+000
  0.000000000000000E+000  0.000000000000000E+000  0.000000000000000E+000
  0.000000000000000E+000  0.000000000000000E+000  0.000000000000000E+000
  0.000000000000000E+000  0.000000000000000E+000  0.000000000000000E+000
  0.000000000000000E+000  0.000000000000000E+000  0.000000000000000E+000