 Title = "Wing and Wake"
 VARIABLES = "X" "Y" "Z" "GAM" "skew"
 Zone I=   11 J=   26 K=1  T="Blade"
 DATAPACKING=BLOCK
 VARLOCATION=([4]=CELLCENTERED,[5]=CELLCENTERED)
  9.639624047922707E-003 -4.234565081897341E-003 -1.810875421171728E-002
 -3.198294334153750E-002 -4.585713247135745E-002 -5.973132160117738E-002
 -7.360551073099733E-002 -8.747969986081758E-002 -0.101353888990638     
 -0.115228078120457      -0.129102267250278       7.095209886132145E-003
 -6.778979243687548E-003 -2.065316837350766E-002 -3.452735750332767E-002
 -4.840154663314783E-002 -6.227573576296771E-002 -7.614992489278771E-002
 -9.002411402260783E-002 -0.103898303152428      -0.117772492282248     
 -0.131646681412068      -4.979056679471212E-004 -1.437209479776729E-002
 -2.824628392758722E-002 -4.212047305740726E-002 -5.599466218722728E-002
 -6.986885131704734E-002 -8.374304044686731E-002 -9.761722957668745E-002
 -0.111491418706507      -0.125365607836327      -0.139239796966147     
 -1.301997464612157E-002 -2.689416377594152E-002 -4.076835290576181E-002
 -5.464254203558147E-002 -6.851673116540147E-002 -8.239092029522152E-002
 -9.626510942504146E-002 -0.110139298554861      -0.124013487684682     
 -0.137887676814502      -0.151761865944321      -3.027351654028288E-002
 -4.414770567010284E-002 -5.802189479992286E-002 -7.189608392974281E-002
 -8.577027305956283E-002 -9.964446218938298E-002 -0.113518651319203     
 -0.127392840449023      -0.141267029578843      -0.155141218708663     
 -0.169015407838483      -5.198643268799370E-002 -6.586062181781378E-002
 -7.973481094763371E-002 -9.360900007745390E-002 -0.107483189207274     
 -0.121357378337094      -0.135231567466914      -0.149105756596734     
 -0.162979945726554      -0.176854134856374      -0.190728323986194     
 -7.781629743093846E-002 -9.169048656075830E-002 -0.105564675690578     
 -0.119438864820398      -0.133313053950218      -0.147187243080038     
 -0.161061432209858      -0.174935621339678      -0.188809810469498     
 -0.202683999599318      -0.216558188729138      -0.107355758372106     
 -0.121229947501926      -0.135104136631746      -0.148978325761566     
 -0.162852514891386      -0.176726704021206      -0.190600893151026     
 -0.204475082280846      -0.218349271410666      -0.232223460540486     
 -0.246097649670307      -0.140138960566436      -0.154013149696257     
 -0.167887338826076      -0.181761527955896      -0.195635717085717     
 -0.209509906215536      -0.223384095345356      -0.237258284475177     
 -0.251132473604996      -0.265006662734817      -0.278880851864636     
 -0.175648893331590      -0.189523082461409      -0.203397271591230     
 -0.217271460721049      -0.231145649850870      -0.245019838980689     
 -0.258894028110509      -0.272768217240330      -0.286642406370150     
 -0.300516595499969      -0.314390784629789      -0.213325543815253     
 -0.227199732945073      -0.241073922074892      -0.254948111204713     
 -0.268822300334533      -0.282696489464353      -0.296570678594173     
 -0.310444867723993      -0.324319056853813      -0.338193245983633     
 -0.352067435113453      -0.252574728732359      -0.266448917862179     
 -0.280323106991999      -0.294197296121818      -0.308071485251639     
 -0.321945674381460      -0.335819863511279      -0.349694052641099     
 -0.363568241770919      -0.377442430900739      -0.391316620030559     
 -0.292777464990439      -0.306651654120258      -0.320525843250079     
 -0.334400032379898      -0.348274221509718      -0.362148410639539     
 -0.376022599769359      -0.389896788899179      -0.403770978028998     
 -0.417645167158818      -0.431519356288639      -0.333299731422752     
 -0.347173920552572      -0.361048109682392      -0.374922298812211     
 -0.388796487942032      -0.402670677071852      -0.416544866201672     
 -0.430419055331491      -0.444293244461312      -0.458167433591132     
 -0.472041622720952      -0.373502467680831      -0.387376656810652     
 -0.401250845940472      -0.415125035070292      -0.428999224200111     
 -0.442873413329931      -0.456747602459751      -0.470621791589570     
 -0.484495980719391      -0.498370169849212      -0.512244358979032     
 -0.412751652597937      -0.426625841727757      -0.440500030857577     
 -0.454374219987398      -0.468248409117217      -0.482122598247037     
 -0.495996787376858      -0.509870976506677      -0.523745165636496     
 -0.537619354766318      -0.551493543896138      -0.450428303081602     
 -0.464302492211421      -0.478176681341241      -0.492050870471061     
 -0.505925059600881      -0.519799248730700      -0.533673437860520     
 -0.547547626990341      -0.561421816120161      -0.575296005249981     
 -0.589170194379801      -0.485938235846754      -0.499812424976573     
 -0.513686614106393      -0.527560803236215      -0.541434992366034     
 -0.555309181495854      -0.569183370625674      -0.583057559755494     
 -0.596931748885314      -0.610805938015134      -0.624680127144953     
 -0.518721438041085      -0.532595627170904      -0.546469816300724     
 -0.560344005430545      -0.574218194560364      -0.588092383690184     
 -0.601966572820005      -0.615840761949825      -0.629714951079645     
 -0.643589140209464      -0.657463329339284      -0.548260898982252     
 -0.562135088112072      -0.576009277241891      -0.589883466371712     
 -0.603757655501532      -0.617631844631352      -0.631506033761172     
 -0.645380222890992      -0.659254412020813      -0.673128601150631     
 -0.687002790280452      -0.574090763725196      -0.587964952855017     
 -0.601839141984835      -0.615713331114657      -0.629587520244477     
 -0.643461709374297      -0.657335898504117      -0.671210087633937     
 -0.685084276763757      -0.698958465893577      -0.712832655023397     
 -0.595803679872907      -0.609677869002728      -0.623552058132549     
 -0.637426247262368      -0.651300436392187      -0.665174625522008     
 -0.679048814651828      -0.692923003781648      -0.706797192911467     
 -0.720671382041287      -0.734545571171108      -0.613057221767069     
 -0.626931410896889      -0.640805600026710      -0.654679789156528     
 -0.668553978286349      -0.682428167416168      -0.696302356545988     
 -0.710176545675808      -0.724050734805629      -0.737924923935450     
 -0.751799113065269      -0.625579290745243      -0.639453479875062     
 -0.653327669004884      -0.667201858134703      -0.681076047264523     
 -0.694950236394343      -0.708824425524163      -0.722698614653984     
 -0.736572803783803      -0.750446992913623      -0.764321182043443     
 -0.633172406299323      -0.647046595429142      -0.660920784558962     
 -0.674794973688783      -0.688669162818604      -0.702543351948422     
 -0.716417541078243      -0.730291730208061      -0.744165919337883     
 -0.758040108467703      -0.771914297597523      -0.635716820461113     
 -0.649591009590933      -0.663465198720754      -0.677339387850573     
 -0.691213576980393      -0.705087766110213      -0.718961955240033     
 -0.732836144369853      -0.746710333499673      -0.760584522629494     
 -0.774458711759314     
 -0.267953697176093      -0.255171668295860      -0.242389639415627     
 -0.229607610535394      -0.216825581655161      -0.204043552774928     
 -0.191261523894694      -0.178479495014461      -0.165697466134229     
 -0.152915437253996      -0.140133408373763      -0.270715518764515     
 -0.257933489884282      -0.245151461004049      -0.232369432123816     
 -0.219587403243583      -0.206805374363351      -0.194023345483117     
 -0.181241316602885      -0.168459287722651      -0.155677258842419     
 -0.142895229962185      -0.278957427953501      -0.266175399073269     
 -0.253393370193035      -0.240611341312802      -0.227829312432569     
 -0.215047283552336      -0.202265254672103      -0.189483225791871     
 -0.176701196911638      -0.163919168031404      -0.151137139151172     
 -0.292549444911663      -0.279767416031430      -0.266985387151197     
 -0.254203358270964      -0.241421329390731      -0.228639300510498     
 -0.215857271630265      -0.203075242750032      -0.190293213869799     
 -0.177511184989566      -0.164729156109333      -0.311277215412093     
 -0.298495186531860      -0.285713157651627      -0.272931128771394     
 -0.260149099891161      -0.247367071010928      -0.234585042130695     
 -0.221803013250462      -0.209020984370229      -0.196238955489996     
 -0.183456926609763      -0.334845391326571      -0.322063362446338     
 -0.309281333566105      -0.296499304685872      -0.283717275805639     
 -0.270935246925406      -0.258153218045172      -0.245371189164940     
 -0.232589160284707      -0.219807131404474      -0.207025102524241     
 -0.362882288441980      -0.350100259561747      -0.337318230681514     
 -0.324536201801281      -0.311754172921048      -0.298972144040815     
 -0.286190115160581      -0.273408086280349      -0.260626057400116     
 -0.247844028519883      -0.235061999639649      -0.394945748142379     
 -0.382163719262146      -0.369381690381913      -0.356599661501680     
 -0.343817632621447      -0.331035603741214      -0.318253574860981     
 -0.305471545980748      -0.292689517100515      -0.279907488220283     
 -0.267125459340050      -0.430530110514511      -0.417748081634279     
 -0.404966052754046      -0.392184023873813      -0.379401994993580     
 -0.366619966113347      -0.353837937233113      -0.341055908352881     
 -0.328273879472648      -0.315491850592415      -0.302709821712182     
 -0.469074188906701      -0.456292160026467      -0.443510131146235     
 -0.430728102266001      -0.417946073385769      -0.405164044505536     
 -0.392382015625302      -0.379599986745070      -0.366817957864836     
 -0.354035928984604      -0.341253900104371      -0.509970120177586     
 -0.497188091297352      -0.484406062417119      -0.471624033536886     
 -0.458842004656653      -0.446059975776420      -0.433277946896187     
 -0.420495918015954      -0.407713889135722      -0.394931860255488     
 -0.382149831375255      -0.552572951060978      -0.539790922180744     
 -0.527008893300512      -0.514226864420279      -0.501444835540046     
 -0.488662806659814      -0.475880777779580      -0.463098748899348     
 -0.450316720019114      -0.437534691138881      -0.424752662258648     
 -0.596210809464151      -0.583428780583918      -0.570646751703685     
 -0.557864722823452      -0.545082693943218      -0.532300665062986     
 -0.519518636182753      -0.506736607302520      -0.493954578422287     
 -0.481172549542054      -0.468390520661821      -0.640195500292092     
 -0.627413471411859      -0.614631442531626      -0.601849413651393     
 -0.589067384771160      -0.576285355890927      -0.563503327010694     
 -0.550721298130461      -0.537939269250228      -0.525157240369995     
 -0.512375211489762      -0.683833358695265      -0.671051329815032     
 -0.658269300934799      -0.645487272054566      -0.632705243174334     
 -0.619923214294099      -0.607141185413866      -0.594359156533633     
 -0.581577127653401      -0.568795098773169      -0.556013069892935     
 -0.726436189578656      -0.713654160698424      -0.700872131818192     
 -0.688090102937958      -0.675308074057726      -0.662526045177492     
 -0.649744016297259      -0.636961987417027      -0.624179958536793     
 -0.611397929656561      -0.598615900776328      -0.767332120849542     
 -0.754550091969309      -0.741768063089076      -0.728986034208844     
 -0.716204005328610      -0.703421976448377      -0.690639947568144     
 -0.677857918687911      -0.665075889807677      -0.652293860927446     
 -0.639511832047213      -0.805876199241731      -0.793094170361498     
 -0.780312141481264      -0.767530112601032      -0.754748083720799     
 -0.741966054840566      -0.729184025960333      -0.716401997080100     
 -0.703619968199867      -0.690837939319633      -0.678055910439401     
 -0.841460561613864      -0.828678532733631      -0.815896503853397     
 -0.803114474973164      -0.790332446092932      -0.777550417212698     
 -0.764768388332465      -0.751986359452233      -0.739204330572000     
 -0.726422301691767      -0.713640272811534      -0.873524021314263     
 -0.860741992434030      -0.847959963553797      -0.835177934673563     
 -0.822395905793331      -0.809613876913098      -0.796831848032865     
 -0.784049819152632      -0.771267790272400      -0.758485761392167     
 -0.745703732511932      -0.901560918429671      -0.888778889549439     
 -0.875996860669205      -0.863214831788974      -0.850432802908740     
 -0.837650774028507      -0.824868745148275      -0.812086716268042     
 -0.799304687387809      -0.786522658507575      -0.773740629627342     
 -0.925129094344149      -0.912347065463918      -0.899565036583684     
 -0.886783007703451      -0.874000978823218      -0.861218949942985     
 -0.848436921062753      -0.835654892182519      -0.822872863302285     
 -0.810090834422053      -0.797308805541819      -0.943856864844581     
 -0.931074835964346      -0.918292807084114      -0.905510778203880     
 -0.892728749323648      -0.879946720443413      -0.867164691563180     
 -0.854382662682948      -0.841600633802715      -0.828818604922483     
 -0.816036576042249      -0.957448881802741      -0.944666852922508     
 -0.931884824042277      -0.919102795162042      -0.906320766281809     
 -0.893538737401575      -0.880756708521343      -0.867974679641111     
 -0.855192650760878      -0.842410621880644      -0.829628593000411     
 -0.965690790991727      -0.952908762111494      -0.940126733231261     
 -0.927344704351029      -0.914562675470796      -0.901780646590562     
 -0.888998617710329      -0.876216588830095      -0.863434559949864     
 -0.850652531069630      -0.837870502189398      -0.968452612580149     
 -0.955670583699917      -0.942888554819685      -0.930106525939452     
 -0.917324497059218      -0.904542468178985      -0.891760439298751     
 -0.878978410418519      -0.866196381538286      -0.853414352658053     
 -0.840632323777821     
  2.651247573289247E-002  2.386122815960322E-002  2.120998058631397E-002
  1.855873301302472E-002  1.590748543973548E-002  1.325623786644623E-002
  1.060499029315698E-002  7.953742719867740E-003  5.302495146578492E-003
  2.651247573289244E-003  0.000000000000000E+000  2.651247573289247E-002
  2.386122815960322E-002  2.120998058631397E-002  1.855873301302472E-002
  1.590748543973548E-002  1.325623786644623E-002  1.060499029315698E-002
  7.953742719867740E-003  5.302495146578492E-003  2.651247573289244E-003
  0.000000000000000E+000  2.651247573289247E-002  2.386122815960322E-002
  2.120998058631397E-002  1.855873301302472E-002  1.590748543973548E-002
  1.325623786644623E-002  1.060499029315698E-002  7.953742719867740E-003
  5.302495146578492E-003  2.651247573289244E-003  0.000000000000000E+000
  2.651247573289247E-002  2.386122815960322E-002  2.120998058631397E-002
  1.855873301302472E-002  1.590748543973548E-002  1.325623786644623E-002
  1.060499029315698E-002  7.953742719867740E-003  5.302495146578492E-003
  2.651247573289244E-003  0.000000000000000E+000  2.651247573289247E-002
  2.386122815960322E-002  2.120998058631397E-002  1.855873301302472E-002
  1.590748543973548E-002  1.325623786644623E-002  1.060499029315698E-002
  7.953742719867740E-003  5.302495146578492E-003  2.651247573289244E-003
  0.000000000000000E+000  2.651247573289247E-002  2.386122815960322E-002
  2.120998058631397E-002  1.855873301302472E-002  1.590748543973548E-002
  1.325623786644623E-002  1.060499029315698E-002  7.953742719867740E-003
  5.302495146578492E-003  2.651247573289244E-003  0.000000000000000E+000
  2.651247573289247E-002  2.386122815960322E-002  2.120998058631397E-002
  1.855873301302472E-002  1.590748543973548E-002  1.325623786644623E-002
  1.060499029315698E-002  7.953742719867740E-003  5.302495146578492E-003
  2.651247573289244E-003  0.000000000000000E+000  2.651247573289247E-002
  2.386122815960322E-002  2.120998058631397E-002  1.855873301302472E-002
  1.590748543973548E-002  1.325623786644623E-002  1.060499029315698E-002
  7.953742719867740E-003  5.302495146578492E-003  2.651247573289244E-003
  0.000000000000000E+000  2.651247573289247E-002  2.386122815960322E-002
  2.120998058631397E-002  1.855873301302472E-002  1.590748543973548E-002
  1.325623786644623E-002  1.060499029315698E-002  7.953742719867740E-003
  5.302495146578492E-003  2.651247573289244E-003  0.000000000000000E+000
  2.651247573289247E-002  2.386122815960322E-002  2.120998058631397E-002
  1.855873301302472E-002  1.590748543973548E-002  1.325623786644623E-002
  1.060499029315698E-002  7.953742719867740E-003  5.302495146578492E-003
  2.651247573289244E-003  0.000000000000000E+000  2.651247573289247E-002
  2.386122815960322E-002  2.120998058631397E-002  1.855873301302472E-002
  1.590748543973548E-002  1.325623786644623E-002  1.060499029315698E-002
  7.953742719867740E-003  5.302495146578492E-003  2.651247573289244E-003
  0.000000000000000E+000  2.651247573289247E-002  2.386122815960322E-002
  2.120998058631397E-002  1.855873301302472E-002  1.590748543973548E-002
  1.325623786644623E-002  1.060499029315698E-002  7.953742719867740E-003
  5.302495146578492E-003  2.651247573289244E-003  0.000000000000000E+000
  2.651247573289247E-002  2.386122815960322E-002  2.120998058631397E-002
  1.855873301302472E-002  1.590748543973548E-002  1.325623786644623E-002
  1.060499029315698E-002  7.953742719867740E-003  5.302495146578492E-003
  2.651247573289244E-003  0.000000000000000E+000  2.651247573289247E-002
  2.386122815960322E-002  2.120998058631397E-002  1.855873301302472E-002
  1.590748543973548E-002  1.325623786644623E-002  1.060499029315698E-002
  7.953742719867740E-003  5.302495146578492E-003  2.651247573289244E-003
  0.000000000000000E+000  2.651247573289247E-002  2.386122815960322E-002
  2.120998058631397E-002  1.855873301302472E-002  1.590748543973548E-002
  1.325623786644623E-002  1.060499029315698E-002  7.953742719867740E-003
  5.302495146578492E-003  2.651247573289244E-003  0.000000000000000E+000
  2.651247573289247E-002  2.386122815960322E-002  2.120998058631397E-002
  1.855873301302472E-002  1.590748543973548E-002  1.325623786644623E-002
  1.060499029315698E-002  7.953742719867740E-003  5.302495146578492E-003
  2.651247573289244E-003  0.000000000000000E+000  2.651247573289247E-002
  2.386122815960322E-002  2.120998058631397E-002  1.855873301302472E-002
  1.590748543973548E-002  1.325623786644623E-002  1.060499029315698E-002
  7.953742719867740E-003  5.302495146578492E-003  2.651247573289244E-003
  0.000000000000000E+000  2.651247573289247E-002  2.386122815960322E-002
  2.120998058631397E-002  1.855873301302472E-002  1.590748543973548E-002
  1.325623786644623E-002  1.060499029315698E-002  7.953742719867740E-003
  5.302495146578492E-003  2.651247573289244E-003  0.000000000000000E+000
  2.651247573289247E-002  2.386122815960322E-002  2.120998058631397E-002
  1.855873301302472E-002  1.590748543973548E-002  1.325623786644623E-002
  1.060499029315698E-002  7.953742719867740E-003  5.302495146578492E-003
  2.651247573289244E-003  0.000000000000000E+000  2.651247573289247E-002
  2.386122815960322E-002  2.120998058631397E-002  1.855873301302472E-002
  1.590748543973548E-002  1.325623786644623E-002  1.060499029315698E-002
  7.953742719867740E-003  5.302495146578492E-003  2.651247573289244E-003
  0.000000000000000E+000  2.651247573289247E-002  2.386122815960322E-002
  2.120998058631397E-002  1.855873301302472E-002  1.590748543973548E-002
  1.325623786644623E-002  1.060499029315698E-002  7.953742719867740E-003
  5.302495146578492E-003  2.651247573289244E-003  0.000000000000000E+000
  2.651247573289247E-002  2.386122815960322E-002  2.120998058631397E-002
  1.855873301302472E-002  1.590748543973548E-002  1.325623786644623E-002
  1.060499029315698E-002  7.953742719867740E-003  5.302495146578492E-003
  2.651247573289244E-003  0.000000000000000E+000  2.651247573289247E-002
  2.386122815960322E-002  2.120998058631397E-002  1.855873301302472E-002
  1.590748543973548E-002  1.325623786644623E-002  1.060499029315698E-002
  7.953742719867740E-003  5.302495146578492E-003  2.651247573289244E-003
  0.000000000000000E+000  2.651247573289247E-002  2.386122815960322E-002
  2.120998058631397E-002  1.855873301302472E-002  1.590748543973548E-002
  1.325623786644623E-002  1.060499029315698E-002  7.953742719867740E-003
  5.302495146578492E-003  2.651247573289244E-003  0.000000000000000E+000
  2.651247573289247E-002  2.386122815960322E-002  2.120998058631397E-002
  1.855873301302472E-002  1.590748543973548E-002  1.325623786644623E-002
  1.060499029315698E-002  7.953742719867740E-003  5.302495146578492E-003
  2.651247573289244E-003  0.000000000000000E+000  2.651247573289247E-002
  2.386122815960322E-002  2.120998058631397E-002  1.855873301302472E-002
  1.590748543973548E-002  1.325623786644623E-002  1.060499029315698E-002
  7.953742719867740E-003  5.302495146578492E-003  2.651247573289244E-003
  0.000000000000000E+000
  2.968700326908101E-002  4.749403482175237E-002  6.307182229344489E-002
  7.763535986337909E-002  9.195857583698488E-002  0.106688413160846     
  0.121709933506597       0.135422706727077       0.146749921561084     
  0.154766170633813       5.100569248235541E-002  8.184517517041613E-002
  0.108443944448843       0.132998749764986       0.156681820493333     
  0.180480551594214       0.204400494815604       0.226479932179102     
  0.245041340860135       0.258546414108207       7.438418515538575E-002
  0.119265837045907       0.157112445676324       0.191210115407142     
  0.222901755915208       0.253123949930882       0.282174312288185     
  0.309054226424991       0.331948513940901       0.347809314117501     
  0.101205610976307       0.160609878619662       0.209619651473300     
  0.252745483248406       0.291517649259224       0.326682137034415     
  0.358604594985586       0.387121311849794       0.411166636339761     
  0.428119193659821       0.134083748173337       0.209713516286196     
  0.270627558041281       0.323196699625022       0.369477310655913     
  0.410315374590540       0.446097121984614       0.476996863487853     
  0.502728537364165       0.521463810460437       0.175259923251090     
  0.270260969550591       0.344892555114299       0.408187263255649     
  0.463126009677231       0.510996073131503       0.552446801323925     
  0.587769952079510       0.616643654555309       0.637192262537204     
  0.226120420457137       0.344391297443409       0.435049560653100     
  0.510629075742009       0.575456445175658       0.631489985989551     
  0.679644720739225       0.720183052330956       0.752707696562066     
  0.775305756150737       0.287098810356503       0.432826126221717     
  0.542086146747594       0.631710631712090       0.707658664642585     
  0.772638204138133       0.827948411776475       0.874057417619752     
  0.910651535264374       0.935717042969551       0.357968403869402     
  0.535510403086162       0.666182494512143       0.771787348214303     
  0.860194913191277       0.935059453035023       0.998209674325875     
   1.05042975988437        1.09150516429133        1.11929346134372     
  0.438172573337588       0.651891106482741       0.806945210609540     
  0.930709065144422        1.03320649506597        1.11918434602497     
   1.19109314388770        1.25005750533080        1.29601528281696     
   1.32675786585868       0.527190817982293       0.781272429187964     
  0.963615967847857        1.10773219346864        1.22600840531970     
   1.32438315725628        1.40599701712247        1.47238824250614     
   1.52369558823691        1.55764029359809       0.624399759813652     
  0.922656897682350        1.13491355100114        1.30134360488356     
   1.43689843944698        1.54882883764256        1.64103670223166     
   1.71551102324603        1.77261955078771        1.81002094285486     
  0.729012992568671        1.07477985428431        1.31916688908760     
   1.50952413296770        1.66357717159759        1.78999060690611     
   1.89348509460511        1.97654299962324        2.03979159325401     
   2.08084758056791       0.840221750510292        1.23631218698092     
   1.51459374990345        1.73007126810946        1.90343508988569     
   2.04487623826749        2.16000820323196        2.25185842560440     
   2.32135380084665        2.36610944802667       0.957469315295010     
   1.40623884621548        1.71969097360273        1.96096120913346     
   2.15391013125307        2.31038340504764        2.43698880484691     
   2.53737886788137        2.61285064999697        2.66109484798120     
   1.08191830566532        1.58576339671598        1.93529833949423     
   2.20244305260135        2.41454494886993        2.58530477628048     
   2.72247978293583        2.83048304248728        2.91110172898542     
   2.96224989695986        1.22089478467766        1.78382075124171     
   2.17033862648841        2.46274876245173        2.69264448444987     
   2.87600689779787        3.02199034016850        3.13593890878441     
   3.22028910696170        3.27337305765277        1.39167859791301     
   2.02072027169190        2.44494773505311        2.76107740187049     
   3.00657078067019        3.20034521761658        3.35320423628571     
   3.47153207359965        3.55848739794172        3.61290214561145     
   1.57720173455538        2.27285822397559        2.73173326001702     
   3.06727305097816        3.32376937253149        3.52358416317721     
   3.67945948558479        3.79896869180392        3.88606787079657     
   3.94023699375441        1.69276598674701        2.42369039350583     
   2.89579153121563        3.23417572880317        3.48815448048231     
   3.68282837508602        3.83252824942027        3.94574753758465     
   4.02705284796412        4.07674851184390        1.69986362171819     
   2.41449724145338        2.86456923047339        3.18023192015829     
   3.41299923785510        3.58887484668026        3.72242051072731     
   3.82202743009470        3.89212122698349        3.93354332185238     
   1.59425322434238        2.23481746150671        2.62425445257124     
   2.89103553327313        3.08479549047629        3.22966495127085     
   3.33864112448663        3.41887937456632        3.47387442795622     
   3.50427656704779        1.38228967927518        1.89377283408881     
   2.19269855061889        2.39442003756203        2.54011217680785     
   2.64879828966350        2.73045604809052        2.79052072209600     
   2.83176102179125        2.85501184489193        1.05890727344688     
   1.40455736076549        1.60374893426298        1.73846324545100     
   1.83611106073939        1.90920045649271        1.96433790176147     
   2.00527002510953        2.03444153454853        2.05541540724904     
  0.644174699581836       0.837724321134849       0.950308315912873     
   1.02687805431698        1.08257554616573        1.12436475192551     
   1.15594309657294        1.17938827729568        1.19584383825256     
   1.20565218412335     
  0.000000000000000E+000  0.000000000000000E+000  0.000000000000000E+000
  0.000000000000000E+000  0.000000000000000E+000  0.000000000000000E+000
  0.000000000000000E+000  0.000000000000000E+000  0.000000000000000E+000
  0.000000000000000E+000  0.000000000000000E+000  0.000000000000000E+000
  0.000000000000000E+000  0.000000000000000E+000  0.000000000000000E+000
  0.000000000000000E+000  0.000000000000000E+000  0.000000000000000E+000
  0.000000000000000E+000  0.000000000000000E+000  0.000000000000000E+000
  0.000000000000000E+000  0.000000000000000E+000  0.000000000000000E+000
  0.000000000000000E+000  0.000000000000000E+000  0.000000000000000E+000
  0.000000000000000E+000  0.000000000000000E+000  0.000000000000000E+000
  0.000000000000000E+000  0.000000000000000E+000  0.000000000000000E+000
  0.000000000000000E+000  0.000000000000000E+000  0.000000000000000E+000
  0.000000000000000E+000  0.000000000000000E+000  0.000000000000000E+000
  0.000000000000000E+000  0.000000000000000E+000  0.000000000000000E+000
  0.000000000000000E+000  0.000000000000000E+000  0.000000000000000E+000
  0.000000000000000E+000  0.000000000000000E+000  0.000000000000000E+000
  0.000000000000000E+000  0.000000000000000E+000  0.000000000000000E+000
  0.000000000000000E+000  0.000000000000000E+000  0.000000000000000E+000
  0.000000000000000E+000  0.000000000000000E+000  0.000000000000000E+000
  0.000000000000000E+000  0.000000000000000E+000  0.000000000000000E+000
  0.000000000000000E+000  0.000000000000000E+000  0.000000000000000E+000
  0.000000000000000E+000  0.000000000000000E+000  0.000000000000000E+000
  0.000000000000000E+000  0.000000000000000E+000  0.000000000000000E+000
  0.000000000000000E+000  0.000000000000000E+000  0.000000000000000E+000
  0.000000000000000E+000  0.000000000000000E+000  0.000000000000000E+000
  0.000000000000000E+000  0.000000000000000E+000  0.000000000000000E+000
  0.000000000000000E+000  0.000000000000000E+000  0.000000000000000E+000
  0.000000000000000E+000  0.000000000000000E+000  0.000000000000000E+000
  0.000000000000000E+000  0.000000000000000E+000  0.000000000000000E+000
  0.000000000000000E+000  0.000000000000000E+000  0.000000000000000E+000
  0.000000000000000E+000  0.000000000000000E+000  0.000000000000000E+000
  0.000000000000000E+000  0.000000000000000E+000  0.000000000000000E+000
  0.000000000000000E+000  0.000000000000000E+000  0.000000000000000E+000
  0.000000000000000E+000  0.000000000000000E+000  0.000000000000000E+000
  0.000000000000000E+000  0.000000000000000E+000  0.000000000000000E+000
  0.000000000000000E+000  0.000000000000000E+000  0.000000000000000E+000
  0.000000000000000E+000  0.000000000000000E+000  0.000000000000000E+000
  0.000000000000000E+000  0.000000000000000E+000  0.000000000000000E+000
  0.000000000000000E+000  0.000000000000000E+000  0.000000000000000E+000