 Title = "Wing and Wake"
 VARIABLES = "X" "Y" "Z" "GAM" "skew"
 Zone I=   11 J=   26 K=1  T="Blade"
 DATAPACKING=BLOCK
 VARLOCATION=([4]=CELLCENTERED,[5]=CELLCENTERED)
  0.142362010172808       0.123954922780041       0.105547835387274     
  8.714074799450705E-002  6.873366060174034E-002  5.032657320897366E-002
  3.191948581620678E-002  1.351239842343989E-002 -4.894688969326801E-003
 -2.330177636209320E-002 -4.170886375486008E-002  0.141539990344106     
  0.123132902951339       0.104725815558572       8.631872816580566E-002
  6.791164077303885E-002  4.950455338027225E-002  3.109746598750529E-002
  1.269037859473860E-002 -5.716708798028236E-003 -2.412379619079465E-002
 -4.253088358356168E-002  0.139086894601751       0.120679807208984     
  0.102272719816217       8.386563242345059E-002  6.545854503068392E-002
  4.705145763791706E-002  2.864437024515061E-002  1.023728285238377E-002
 -8.169804540383031E-003 -2.657689193314955E-002 -4.498397932591632E-002
  0.135041409731008       0.116634322338241       9.822723494547411E-002
  7.982014755270730E-002  6.141306015994089E-002  4.300597276717401E-002
  2.459888537440738E-002  6.191797981640960E-003 -1.221528941112602E-002
 -3.062237680389253E-002 -4.902946419665924E-002  0.129467335444944     
  0.111060248052177       9.265316065940991E-002  7.424607326664358E-002
  5.583898587387717E-002  3.743189848110975E-002  1.902481108834351E-002
  6.177236955765062E-004 -1.778936369718996E-002 -3.619645108995673E-002
 -5.460353848272346E-002  0.122452578224841       0.104045490832074     
  8.563840343930720E-002  6.723131604654035E-002  4.882422865377368E-002
  3.041714126100693E-002  1.201005386823980E-002 -6.397033524526595E-003
 -2.480412091729295E-002 -4.321120831005988E-002 -6.161829570282727E-002
  0.114107764982471       9.570067758970506E-002  7.729359019693897E-002
  5.888650280417198E-002  4.047941541140484E-002  2.207232801863854E-002
  3.665240625871932E-003 -1.474184676689528E-002 -3.314893415966239E-002
 -5.155602155242867E-002 -6.996310894519504E-002  0.104564498407620     
  8.615741101485348E-002  6.775032362208618E-002  4.934323622931965E-002
  3.093614883655314E-002  1.252906144378662E-002 -5.878025948980858E-003
 -2.428511334174730E-002 -4.269220073451416E-002 -6.109928812728102E-002
 -7.950637552004729E-002  9.397328151504102E-002  7.556619412227453E-002
  5.715910672950750E-002  3.875201933674127E-002  2.034493194397384E-002
  1.937844551207277E-003 -1.646924284155906E-002 -3.487633023432624E-002
 -5.328341762709220E-002 -7.169050501985957E-002 -9.009759241262594E-002
  8.250114412201714E-002  6.409405672925100E-002  4.568696933648417E-002
  2.727988194371771E-002  8.872794550950776E-003 -9.534292841815995E-003
 -2.794138023458279E-002 -4.634846762734934E-002 -6.475555502011639E-002
 -8.316264241288233E-002 -0.101569729805649       7.032900868836062E-002
  5.192192129559365E-002  3.351483390282722E-002  1.510774651006042E-002
 -3.299340882706957E-003 -2.170642827547266E-002 -4.011351566823997E-002
 -5.852060306100661E-002 -7.692769045377350E-002 -9.533477784653982E-002
 -0.113741865239307       5.764883706113983E-002  3.924174966837254E-002
  2.083466227560514E-002  2.427574882839646E-003 -1.597951250992797E-002
 -3.438659990269381E-002 -5.279368729546147E-002 -7.120077468822748E-002
 -8.960786208099425E-002 -0.108014949473761      -0.126422036866527     
  4.466060312168267E-002  2.625351572891666E-002  7.846428336148690E-003
 -1.056065905661682E-002 -2.896774644938379E-002 -4.737483384215011E-002
 -6.578192123491797E-002 -8.418900862768379E-002 -0.102596096020451     
 -0.121003183413217      -0.139410270805984       3.156913907801034E-002
  1.316205168524431E-002 -5.245035707522053E-003 -2.365212310028911E-002
 -4.205921049305585E-002 -6.046629788582230E-002 -7.887338527858882E-002
 -9.728047267135470E-002 -0.115687560064122      -0.134094647456890     
 -0.152501734849656       1.858090513855591E-002  1.738177457884013E-004
 -1.823326964697769E-002 -3.664035703974570E-002 -5.504744443251140E-002
 -7.345453182527766E-002 -9.186161921804593E-002 -0.110268706610811     
 -0.128675794003579      -0.147082881396345      -0.165489968789112     
  5.900733511334543E-003 -1.250635388143319E-002 -3.091344127419917E-002
 -4.932052866696671E-002 -6.772761605973329E-002 -8.613470345249924E-002
 -0.104541790845266      -0.122948878238034      -0.141355965630799     
 -0.159763053023567      -0.178170140416333      -6.271401922324793E-003
 -2.467848931508949E-002 -4.308557670785711E-002 -6.149266410062310E-002
 -7.989975149338999E-002 -9.830683888615629E-002 -0.116713926278923     
 -0.135121013671690      -0.153528101064457      -0.171935188457223     
 -0.190342275849990      -1.774353931534615E-002 -3.615062670811426E-002
 -5.455771410087985E-002 -7.296480149364742E-002 -9.137188888641365E-002
 -0.109778976279181      -0.128186063671948      -0.146593151064714     
 -0.165000238457481      -0.183407325850248      -0.201814413243013     
 -2.833475620792620E-002 -4.674184360069165E-002 -6.514893099346024E-002
 -8.355601838622594E-002 -0.101963105778991      -0.120370193171759     
 -0.138777280564526      -0.157184367957293      -0.175591455350060     
 -0.193998542742826      -0.212405630135593      -3.787802278277703E-002
 -5.628511017554443E-002 -7.469219756831040E-002 -9.309928496107681E-002
 -0.111506372353844      -0.129913459746611      -0.148320547139378     
 -0.166727634532145      -0.185134721924912      -0.203541809317677     
 -0.221948896710444      -4.622283602514676E-002 -6.462992341791357E-002
 -8.303701081067844E-002 -0.101444098203447      -0.119851185596214     
 -0.138258272988981      -0.156665360381747      -0.175072447774513     
 -0.193479535167279      -0.211886622560047      -0.230293709952813     
 -5.323759324524982E-002 -7.164468063801559E-002 -9.005176803078345E-002
 -0.108458855423550      -0.126865942816316      -0.145273030209083     
 -0.163680117601849      -0.182087204994616      -0.200494292387384     
 -0.218901379780149      -0.237308467172918      -5.881166753131190E-002
 -7.721875492408141E-002 -9.562584231684829E-002 -0.114032929709613     
 -0.132440017102381      -0.150847104495147      -0.169254191887913     
 -0.187661279280680      -0.206068366673447      -0.224475454066216     
 -0.242882541458981      -6.285715240205583E-002 -8.126423979482153E-002
 -9.967132718759011E-002 -0.118078414580357      -0.136485501973124     
 -0.154892589365891      -0.173299676758656      -0.191706764151424     
 -0.210113851544191      -0.228520938936957      -0.246928026329724     
 -6.531024814441265E-002 -8.371733553717824E-002 -0.102124422929943     
 -0.120531510322712      -0.138938597715480      -0.157345685108244     
 -0.175752772501012      -0.194159859893777      -0.212566947286545     
 -0.230974034679312      -0.249381122072078      -6.613226797311494E-002
 -8.453935536587882E-002 -0.102946442758646      -0.121353530151413     
 -0.139760617544180      -0.158167704936945      -0.176574792329713     
 -0.194981879722480      -0.213388967115247      -0.231796054508015     
 -0.250203141900781     
 -0.227211716779042      -0.223082247076989      -0.218952777374936     
 -0.214823307672883      -0.210693837970831      -0.206564368268778     
 -0.202434898566725      -0.198305428864673      -0.194175959162620     
 -0.190046489460567      -0.185917019758515      -0.230875865426984     
 -0.226746395724931      -0.222616926022878      -0.218487456320825     
 -0.214357986618773      -0.210228516916720      -0.206099047214667     
 -0.201969577512615      -0.197840107810562      -0.193710638108510     
 -0.189581168406457      -0.241810525557776      -0.237681055855723     
 -0.233551586153671      -0.229422116451618      -0.225292646749565     
 -0.221163177047513      -0.217033707345460      -0.212904237643408     
 -0.208774767941355      -0.204645298239302      -0.200515828537249     
 -0.259843251049107      -0.255713781347054      -0.251584311645002     
 -0.247454841942949      -0.243325372240897      -0.239195902538844     
 -0.235066432836791      -0.230936963134739      -0.226807493432686     
 -0.222678023730633      -0.218548554028580      -0.284689655047750     
 -0.280560185345697      -0.276430715643645      -0.272301245941592     
 -0.268171776239539      -0.264042306537486      -0.259912836835434     
 -0.255783367133381      -0.251653897431328      -0.247524427729276     
 -0.243394958027223      -0.315957894920123      -0.311828425218071     
 -0.307698955516018      -0.303569485813965      -0.299440016111913     
 -0.295310546409860      -0.291181076707807      -0.287051607005755     
 -0.282922137303702      -0.278792667601649      -0.274663197899597     
 -0.353154851844700      -0.349025382142648      -0.344895912440595     
 -0.340766442738543      -0.336636973036489      -0.332507503334436     
 -0.328378033632384      -0.324248563930331      -0.320119094228279     
 -0.315989624526226      -0.311860154824173      -0.395693907590393     
 -0.391564437888341      -0.387434968186289      -0.383305498484235     
 -0.379176028782183      -0.375046559080131      -0.370917089378077     
 -0.366787619676025      -0.362658149973972      -0.358528680271920     
 -0.354399210569868      -0.442904195836494      -0.438774726134442     
 -0.434645256432389      -0.430515786730336      -0.426386317028284     
 -0.422256847326231      -0.418127377624178      -0.413997907922126     
 -0.409868438220073      -0.405738968518021      -0.401609498815968     
 -0.494041182135302      -0.489911712433249      -0.485782242731197     
 -0.481652773029143      -0.477523303327092      -0.473393833625039     
 -0.469264363922986      -0.465134894220934      -0.461005424518880     
 -0.456875954816828      -0.452746485114776      -0.548298405665131     
 -0.544168935963079      -0.540039466261025      -0.535909996558972     
 -0.531780526856919      -0.527651057154867      -0.523521587452814     
 -0.519392117750762      -0.515262648048710      -0.511133178346656     
 -0.507003708644603      -0.604820197599219      -0.600690727897164     
 -0.596561258195113      -0.592431788493060      -0.588302318791008     
 -0.584172849088956      -0.580043379386901      -0.575913909684849     
 -0.571784439982798      -0.567654970280745      -0.563525500578692     
 -0.662715175514284      -0.658585705812232      -0.654456236110179     
 -0.650326766408127      -0.646197296706073      -0.642067827004021     
 -0.637938357301968      -0.633808887599915      -0.629679417897863     
 -0.625549948195810      -0.621420478493758      -0.721070301023825     
 -0.716940831321772      -0.712811361619719      -0.708681891917666     
 -0.704552422215614      -0.700422952513562      -0.696293482811507     
 -0.692164013109455      -0.688034543407402      -0.683905073705350     
 -0.679775604003298      -0.778965278938890      -0.774835809236839     
 -0.770706339534785      -0.766576869832734      -0.762447400130681     
 -0.758317930428628      -0.754188460726575      -0.750058991024521     
 -0.745929521322470      -0.741800051620418      -0.737670581918365     
 -0.835487070872977      -0.831357601170926      -0.827228131468873     
 -0.823098661766821      -0.818969192064769      -0.814839722362715     
 -0.810710252660663      -0.806580782958610      -0.802451313256555     
 -0.798321843554505      -0.794192373852453      -0.889744294402807     
 -0.885614824700753      -0.881485354998702      -0.877355885296650     
 -0.873226415594597      -0.869096945892542      -0.864967476190489     
 -0.860838006488438      -0.856708536786384      -0.852579067084334     
 -0.848449597382281      -0.940881280701614      -0.936751810999561     
 -0.932622341297508      -0.928492871595458      -0.924363401893403     
 -0.920233932191351      -0.916104462489298      -0.911974992787246     
 -0.907845523085193      -0.903716053383140      -0.899586583681087     
 -0.988091568947716      -0.983962099245663      -0.979832629543609     
 -0.975703159841557      -0.971573690139505      -0.967444220437450     
 -0.963314750735397      -0.959185281033347      -0.955055811331295     
 -0.950926341629240      -0.946796871927188       -1.03063062469341     
  -1.02650115499136       -1.02237168528930       -1.01824221558725     
  -1.01411274588520       -1.00998327618314       -1.00585380648109     
  -1.00172433677904      -0.997594867076989      -0.993465397374934     
 -0.989335927672882       -1.06782758161798       -1.06369811191593     
  -1.05956864221388       -1.05543917251183       -1.05130970280977     
  -1.04718023310772       -1.04305076340567       -1.03892129370362     
  -1.03479182400156       -1.03066235429951       -1.02653288459746     
  -1.09909582149036       -1.09496635178831       -1.09083688208625     
  -1.08670741238420       -1.08257794268215       -1.07844847298009     
  -1.07431900327804       -1.07018953357599       -1.06606006387394     
  -1.06193059417188       -1.05780112446983       -1.12394222548900     
  -1.11981275578695       -1.11568328608490       -1.11155381638284     
  -1.10742434668079       -1.10329487697874       -1.09916540727668     
  -1.09503593757463       -1.09090646787258       -1.08677699817053     
  -1.08264752846847       -1.14197495098033       -1.13784548127828     
  -1.13371601157623       -1.12958654187417       -1.12545707217212     
  -1.12132760247007       -1.11719813276802       -1.11306866306596     
  -1.10893919336391       -1.10480972366186       -1.10068025395981     
  -1.15290961111113       -1.14878014140907       -1.14465067170702     
  -1.14052120200497       -1.13639173230291       -1.13226226260086     
  -1.12813279289881       -1.12400332319675       -1.11987385349470     
  -1.11574438379265       -1.11161491409060       -1.15657375975907     
  -1.15244429005702       -1.14831482035496       -1.14418535065291     
  -1.14005588095086       -1.13592641124880       -1.13179694154675     
  -1.12766747184470       -1.12353800214265       -1.11940853244059     
  -1.11527906273854     
  2.651247573289247E-002  2.386122815960322E-002  2.120998058631397E-002
  1.855873301302472E-002  1.590748543973548E-002  1.325623786644623E-002
  1.060499029315698E-002  7.953742719867740E-003  5.302495146578492E-003
  2.651247573289244E-003  0.000000000000000E+000  2.651247573289247E-002
  2.386122815960322E-002  2.120998058631397E-002  1.855873301302472E-002
  1.590748543973548E-002  1.325623786644623E-002  1.060499029315698E-002
  7.953742719867740E-003  5.302495146578492E-003  2.651247573289244E-003
  0.000000000000000E+000  2.651247573289247E-002  2.386122815960322E-002
  2.120998058631397E-002  1.855873301302472E-002  1.590748543973548E-002
  1.325623786644623E-002  1.060499029315698E-002  7.953742719867740E-003
  5.302495146578492E-003  2.651247573289244E-003  0.000000000000000E+000
  2.651247573289247E-002  2.386122815960322E-002  2.120998058631397E-002
  1.855873301302472E-002  1.590748543973548E-002  1.325623786644623E-002
  1.060499029315698E-002  7.953742719867740E-003  5.302495146578492E-003
  2.651247573289244E-003  0.000000000000000E+000  2.651247573289247E-002
  2.386122815960322E-002  2.120998058631397E-002  1.855873301302472E-002
  1.590748543973548E-002  1.325623786644623E-002  1.060499029315698E-002
  7.953742719867740E-003  5.302495146578492E-003  2.651247573289244E-003
  0.000000000000000E+000  2.651247573289247E-002  2.386122815960322E-002
  2.120998058631397E-002  1.855873301302472E-002  1.590748543973548E-002
  1.325623786644623E-002  1.060499029315698E-002  7.953742719867740E-003
  5.302495146578492E-003  2.651247573289244E-003  0.000000000000000E+000
  2.651247573289247E-002  2.386122815960322E-002  2.120998058631397E-002
  1.855873301302472E-002  1.590748543973548E-002  1.325623786644623E-002
  1.060499029315698E-002  7.953742719867740E-003  5.302495146578492E-003
  2.651247573289244E-003  0.000000000000000E+000  2.651247573289247E-002
  2.386122815960322E-002  2.120998058631397E-002  1.855873301302472E-002
  1.590748543973548E-002  1.325623786644623E-002  1.060499029315698E-002
  7.953742719867740E-003  5.302495146578492E-003  2.651247573289244E-003
  0.000000000000000E+000  2.651247573289247E-002  2.386122815960322E-002
  2.120998058631397E-002  1.855873301302472E-002  1.590748543973548E-002
  1.325623786644623E-002  1.060499029315698E-002  7.953742719867740E-003
  5.302495146578492E-003  2.651247573289244E-003  0.000000000000000E+000
  2.651247573289247E-002  2.386122815960322E-002  2.120998058631397E-002
  1.855873301302472E-002  1.590748543973548E-002  1.325623786644623E-002
  1.060499029315698E-002  7.953742719867740E-003  5.302495146578492E-003
  2.651247573289244E-003  0.000000000000000E+000  2.651247573289247E-002
  2.386122815960322E-002  2.120998058631397E-002  1.855873301302472E-002
  1.590748543973548E-002  1.325623786644623E-002  1.060499029315698E-002
  7.953742719867740E-003  5.302495146578492E-003  2.651247573289244E-003
  0.000000000000000E+000  2.651247573289247E-002  2.386122815960322E-002
  2.120998058631397E-002  1.855873301302472E-002  1.590748543973548E-002
  1.325623786644623E-002  1.060499029315698E-002  7.953742719867740E-003
  5.302495146578492E-003  2.651247573289244E-003  0.000000000000000E+000
  2.651247573289247E-002  2.386122815960322E-002  2.120998058631397E-002
  1.855873301302472E-002  1.590748543973548E-002  1.325623786644623E-002
  1.060499029315698E-002  7.953742719867740E-003  5.302495146578492E-003
  2.651247573289244E-003  0.000000000000000E+000  2.651247573289247E-002
  2.386122815960322E-002  2.120998058631397E-002  1.855873301302472E-002
  1.590748543973548E-002  1.325623786644623E-002  1.060499029315698E-002
  7.953742719867740E-003  5.302495146578492E-003  2.651247573289244E-003
  0.000000000000000E+000  2.651247573289247E-002  2.386122815960322E-002
  2.120998058631397E-002  1.855873301302472E-002  1.590748543973548E-002
  1.325623786644623E-002  1.060499029315698E-002  7.953742719867740E-003
  5.302495146578492E-003  2.651247573289244E-003  0.000000000000000E+000
  2.651247573289247E-002  2.386122815960322E-002  2.120998058631397E-002
  1.855873301302472E-002  1.590748543973548E-002  1.325623786644623E-002
  1.060499029315698E-002  7.953742719867740E-003  5.302495146578492E-003
  2.651247573289244E-003  0.000000000000000E+000  2.651247573289247E-002
  2.386122815960322E-002  2.120998058631397E-002  1.855873301302472E-002
  1.590748543973548E-002  1.325623786644623E-002  1.060499029315698E-002
  7.953742719867740E-003  5.302495146578492E-003  2.651247573289244E-003
  0.000000000000000E+000  2.651247573289247E-002  2.386122815960322E-002
  2.120998058631397E-002  1.855873301302472E-002  1.590748543973548E-002
  1.325623786644623E-002  1.060499029315698E-002  7.953742719867740E-003
  5.302495146578492E-003  2.651247573289244E-003  0.000000000000000E+000
  2.651247573289247E-002  2.386122815960322E-002  2.120998058631397E-002
  1.855873301302472E-002  1.590748543973548E-002  1.325623786644623E-002
  1.060499029315698E-002  7.953742719867740E-003  5.302495146578492E-003
  2.651247573289244E-003  0.000000000000000E+000  2.651247573289247E-002
  2.386122815960322E-002  2.120998058631397E-002  1.855873301302472E-002
  1.590748543973548E-002  1.325623786644623E-002  1.060499029315698E-002
  7.953742719867740E-003  5.302495146578492E-003  2.651247573289244E-003
  0.000000000000000E+000  2.651247573289247E-002  2.386122815960322E-002
  2.120998058631397E-002  1.855873301302472E-002  1.590748543973548E-002
  1.325623786644623E-002  1.060499029315698E-002  7.953742719867740E-003
  5.302495146578492E-003  2.651247573289244E-003  0.000000000000000E+000
  2.651247573289247E-002  2.386122815960322E-002  2.120998058631397E-002
  1.855873301302472E-002  1.590748543973548E-002  1.325623786644623E-002
  1.060499029315698E-002  7.953742719867740E-003  5.302495146578492E-003
  2.651247573289244E-003  0.000000000000000E+000  2.651247573289247E-002
  2.386122815960322E-002  2.120998058631397E-002  1.855873301302472E-002
  1.590748543973548E-002  1.325623786644623E-002  1.060499029315698E-002
  7.953742719867740E-003  5.302495146578492E-003  2.651247573289244E-003
  0.000000000000000E+000  2.651247573289247E-002  2.386122815960322E-002
  2.120998058631397E-002  1.855873301302472E-002  1.590748543973548E-002
  1.325623786644623E-002  1.060499029315698E-002  7.953742719867740E-003
  5.302495146578492E-003  2.651247573289244E-003  0.000000000000000E+000
  2.651247573289247E-002  2.386122815960322E-002  2.120998058631397E-002
  1.855873301302472E-002  1.590748543973548E-002  1.325623786644623E-002
  1.060499029315698E-002  7.953742719867740E-003  5.302495146578492E-003
  2.651247573289244E-003  0.000000000000000E+000  2.651247573289247E-002
  2.386122815960322E-002  2.120998058631397E-002  1.855873301302472E-002
  1.590748543973548E-002  1.325623786644623E-002  1.060499029315698E-002
  7.953742719867740E-003  5.302495146578492E-003  2.651247573289244E-003
  0.000000000000000E+000
  4.162519435754798E-003  2.257332840262956E-002  4.743592033093624E-002
  7.704382671635963E-002  0.109811373469713       0.143796917963204     
  0.176800318057650       0.206858638115530       0.232905794470895     
  0.253491716018436       9.427113045500559E-003  3.967227161695743E-002
  8.040408363679780E-002  0.129076999567767       0.183402658344223     
  0.240343547394551       0.296097786856500       0.347120748458284     
  0.391605619765936       0.427649114355952       2.129940396834779E-002
  6.123802847781776E-002  0.113095673762327       0.174756549213949     
  0.244381144717712       0.319133110277582       0.394052361291498     
  0.463722899956397       0.525032538612793       0.573354927161031     
  4.214574594618525E-002  9.099593606245912E-002  0.148302030218641     
  0.213693554437930       0.286812700239171       0.365936428639534     
  0.446319397940752       0.522993170386094       0.592017325290178     
  0.645692735956835       7.424625955017367E-002  0.134443920590720     
  0.195980177824242       0.260432607784630       0.328220683525898     
  0.398682126555942       0.469262108308684       0.537289562062729     
  0.598964709170369       0.645147934870349       0.118219932583099     
  0.194689019539567       0.263798080337228       0.329949326641231     
  0.394036316185056       0.455747885356231       0.514078050561735     
  0.567525390453070       0.613584223437578       0.647519782325515     
  0.173461919126568       0.271755149926770       0.352888080273840     
  0.425321036472058       0.491483393476305       0.551988813270427     
  0.606631473468325       0.654655671871485       0.694606070411773     
  0.723389089042932       0.238732887348055       0.364449285248540     
  0.462253512256626       0.545427947390341       0.618373747351006     
  0.682822381121306       0.739329744822183       0.787740382091928     
  0.827181811772238       0.855099731398870       0.313231716545702     
  0.471451099959410       0.590134328790302       0.687910441909636     
  0.771321588145136       0.843258331430934       0.905026055376311     
  0.956982250053032       0.998587189435758        1.02744511058956     
  0.396672311492367       0.592104917867767       0.735392289478526     
  0.850998546678899       0.947759925149245        1.02976732917125     
   1.09904995546853        1.15642721546959        1.20162700604334     
   1.23231259360842       0.488713143656722       0.725560496000899     
  0.896534846008331        1.03247039327059        1.14468257200395     
   1.23854483763621        1.31684983486439        1.38089551226675     
   1.43067080549321        1.46384510969730       0.588225580766877     
  0.870007933175390        1.07115539250990        1.22936780197776     
   1.35862289933527        1.46566468384411        1.55409313831636     
   1.62570573071684        1.68075727143443        1.71690196504763     
  0.693823768231256        1.02332797492143        1.25655668789314     
   1.43849518899830        1.58594764964604        1.70710626046290     
   1.80641591849489        1.88619010651734        1.94697309760609     
   1.98642324467788       0.804199029474146        1.18352244533527     
   1.45020119743726        1.65684068526440        1.82320354369024     
   1.95900280839875        2.06957675725576        2.15779283505922     
   2.22451078220358        2.26741855291001       0.918539628414257     
   1.34930867222437        1.65037909868971        1.88226320379891     
   2.06780147233938        2.21831211609492        2.34009595952425     
   2.43662811978336        2.50913192684699        2.55538367881910     
   1.03807059853407        1.52222273615723        1.85858480255329     
   2.11598643901805        2.32054833717218        2.48533006407922     
   2.61771324182797        2.72189121338984        2.79955701680992     
   2.84870396547158        1.17150925449689        1.71371694295053     
   2.08719685269549        2.37045206640911        2.59355375237420     
   2.77168618528164        2.91354057321343        3.02419570220100     
   3.10597103969861        3.15726236023917        1.35148793418014     
   1.96369898675869        2.37773213187345        2.68750358915293     
   2.92908635127330        3.12038603170457        3.27158901798921     
   3.38876393632189        3.47492036849090        3.52882025623546     
   1.59521889729763        2.29397686438347        2.75340345879680     
   3.09018524658350        3.34898123720052        3.55147391642050     
   3.70998973014207        3.83196582187804        3.92129433165740     
   3.97724241786621        1.76280627358823        2.51784891308744     
   3.00315290801459        3.35074657253049        3.61197040887494     
   3.81249579334427        3.96694928024562        4.08405190930608     
   4.16850593526695        4.22051639368083        1.80287716783788     
   2.55502633965714        3.02634003031303        3.35641708245365     
   3.59987003425165        3.78389173227996        3.92370758430392     
   4.02813987027469        4.10187196324716        4.14578597983590     
   1.70062742117926        2.38095261006428        2.79306443261769     
   3.07477891036527        3.27923003871520        3.43210668665691     
   3.54719362391231        3.63207180671418        3.69044225221991     
   3.72297233567802        1.47464038001110        2.01925645185276     
   2.33679870913871        2.55067135664352        2.70495769983155     
   2.81999886437687        2.90644631763256        2.97009727903864     
   3.01389385971060        3.03867572118390        1.12866682797247     
   1.49692657382589        1.70879687715734        1.85185280854417     
   1.95542772933757        2.03290778252749        2.09135849512896     
   2.13478396385465        2.16578499800705        2.18811221578008     
  0.686312918198222       0.892554097407026        1.01234569342016     
   1.09369415747807        1.15280274656147        1.19712569962095     
   1.23061886635415        1.25550392248426        1.27299791791201     
   1.28344233611182     
  0.000000000000000E+000  0.000000000000000E+000  0.000000000000000E+000
  0.000000000000000E+000  0.000000000000000E+000  0.000000000000000E+000
  0.000000000000000E+000  0.000000000000000E+000  0.000000000000000E+000
  0.000000000000000E+000  0.000000000000000E+000  0.000000000000000E+000
  0.000000000000000E+000  0.000000000000000E+000  0.000000000000000E+000
  0.000000000000000E+000  0.000000000000000E+000  0.000000000000000E+000
  0.000000000000000E+000  0.000000000000000E+000  0.000000000000000E+000
  0.000000000000000E+000  0.000000000000000E+000  0.000000000000000E+000
  0.000000000000000E+000  0.000000000000000E+000  0.000000000000000E+000
  0.000000000000000E+000  0.000000000000000E+000  0.000000000000000E+000
  0.000000000000000E+000  0.000000000000000E+000  0.000000000000000E+000
  0.000000000000000E+000  0.000000000000000E+000  0.000000000000000E+000
  0.000000000000000E+000  0.000000000000000E+000  0.000000000000000E+000
  0.000000000000000E+000  0.000000000000000E+000  0.000000000000000E+000
  0.000000000000000E+000  0.000000000000000E+000  0.000000000000000E+000
  0.000000000000000E+000  0.000000000000000E+000  0.000000000000000E+000
  0.000000000000000E+000  0.000000000000000E+000  0.000000000000000E+000
  0.000000000000000E+000  0.000000000000000E+000  0.000000000000000E+000
  0.000000000000000E+000  0.000000000000000E+000  0.000000000000000E+000
  0.000000000000000E+000  0.000000000000000E+000  0.000000000000000E+000
  0.000000000000000E+000  0.000000000000000E+000  0.000000000000000E+000
  0.000000000000000E+000  0.000000000000000E+000  0.000000000000000E+000
  0.000000000000000E+000  0.000000000000000E+000  0.000000000000000E+000
  0.000000000000000E+000  0.000000000000000E+000  0.000000000000000E+000
  0.000000000000000E+000  0.000000000000000E+000  0.000000000000000E+000
  0.000000000000000E+000  0.000000000000000E+000  0.000000000000000E+000
  0.000000000000000E+000  0.000000000000000E+000  0.000000000000000E+000
  0.000000000000000E+000  0.000000000000000E+000  0.000000000000000E+000
  0.000000000000000E+000  0.000000000000000E+000  0.000000000000000E+000
  0.000000000000000E+000  0.000000000000000E+000  0.000000000000000E+000
  0.000000000000000E+000  0.000000000000000E+000  0.000000000000000E+000
  0.000000000000000E+000  0.000000000000000E+000  0.000000000000000E+000
  0.000000000000000E+000  0.000000000000000E+000  0.000000000000000E+000
  0.000000000000000E+000  0.000000000000000E+000  0.000000000000000E+000
  0.000000000000000E+000  0.000000000000000E+000  0.000000000000000E+000
  0.000000000000000E+000  0.000000000000000E+000  0.000000000000000E+000
  0.000000000000000E+000  0.000000000000000E+000  0.000000000000000E+000
  0.000000000000000E+000  0.000000000000000E+000  0.000000000000000E+000
  0.000000000000000E+000  0.000000000000000E+000  0.000000000000000E+000