 Title = "Wing and Wake"
 VARIABLES = "X" "Y" "Z" "GAM" "skew"
 Zone I=   11 J=   26 K=1  T="Blade"
 DATAPACKING=BLOCK
 VARLOCATION=([4]=CELLCENTERED,[5]=CELLCENTERED)
  0.155470977174651       0.158697013396561       0.161923049618471     
  0.165149085840381       0.168375122062291       0.171601158284201     
  0.174827194506111       0.178053230728022       0.181279266949932     
  0.184505303171842       0.187731339393752       0.159170883371025     
  0.162396919592935       0.165622955814846       0.168848992036756     
  0.172075028258666       0.175301064480576       0.178527100702486     
  0.181753136924397       0.184979173146307       0.188205209368217     
  0.191431245590127       0.170212252229215       0.173438288451125     
  0.176664324673035       0.179890360894946       0.183116397116856     
  0.186342433338766       0.189568469560676       0.192794505782586     
  0.196020542004496       0.199246578226406       0.202472614448317     
  0.188420954766533       0.191646990988443       0.194873027210353     
  0.198099063432263       0.201325099654173       0.204551135876084     
  0.207777172097994       0.211003208319904       0.214229244541814     
  0.217455280763724       0.220681316985634       0.213509828866613     
  0.216735865088523       0.219961901310433       0.223187937532343     
  0.226413973754254       0.229640009976164       0.232866046198074     
  0.236092082419984       0.239318118641894       0.242544154863805     
  0.245770191085715       0.245083207997530       0.248309244219441     
  0.251535280441351       0.254761316663261       0.257987352885171     
  0.261213389107081       0.264439425328991       0.267665461550902     
  0.270891497772811       0.274117533994722       0.277343570216632     
  0.282643161109369       0.285869197331279       0.289095233553189     
  0.292321269775099       0.295547305997009       0.298773342218919     
  0.301999378440829       0.305225414662739       0.308451450884650     
  0.311677487106560       0.314903523328469       0.325597345304324     
  0.328823381526235       0.332049417748145       0.335275453970055     
  0.338501490191965       0.341727526413875       0.344953562635785     
  0.348179598857696       0.351405635079606       0.354631671301517     
  0.357857707523427       0.373268347438058       0.376494383659969     
  0.379720419881879       0.382946456103789       0.386172492325699     
  0.389398528547609       0.392624564769519       0.395850600991430     
  0.399076637213339       0.402302673435250       0.405528709657160     
  0.424904367329645       0.428130403551555       0.431356439773466     
  0.434582475995375       0.437808512217286       0.441034548439196     
  0.444260584661106       0.447486620883016       0.450712657104926     
  0.453938693326836       0.457164729548747       0.479691074099531     
  0.482917110321441       0.486143146543351       0.489369182765261     
  0.492595218987172       0.495821255209082       0.499047291430992     
  0.502273327652902       0.505499363874813       0.508725400096722     
  0.511951436318632       0.536764448653963       0.539990484875872     
  0.543216521097783       0.546442557319692       0.549668593541603     
  0.552894629763514       0.556120665985423       0.559346702207334     
  0.562572738429243       0.565798774651154       0.569024810873064     
  0.595224409782235       0.598450446004145       0.601676482226055     
  0.604902518447966       0.608128554669875       0.611354590891786     
  0.614580627113696       0.617806663335606       0.621032699557516     
  0.624258735779427       0.627484772001337       0.654149008975068     
  0.657375045196978       0.660601081418888       0.663827117640798     
  0.667053153862709       0.670279190084619       0.673505226306529     
  0.676731262528438       0.679957298750349       0.683183334972259     
  0.686409371194170       0.712608970103340       0.715835006325251     
  0.719061042547161       0.722287078769072       0.725513114990981     
  0.728739151212891       0.731965187434801       0.735191223656711     
  0.738417259878622       0.741643296100533       0.744869332322443     
  0.769682344657771       0.772908380879682       0.776134417101592     
  0.779360453323502       0.782586489545413       0.785812525767322     
  0.789038561989233       0.792264598211143       0.795490634433052     
  0.798716670654963       0.801942706876874       0.824469051427658     
  0.827695087649568       0.830921123871478       0.834147160093388     
  0.837373196315298       0.840599232537207       0.843825268759118     
  0.847051304981029       0.850277341202938       0.853503377424850     
  0.856729413646760       0.876105071319244       0.879331107541154     
  0.882557143763064       0.885783179984976       0.889009216206885     
  0.892235252428796       0.895461288650705       0.898687324872616     
  0.901913361094526       0.905139397316436       0.908365433538346     
  0.923776073452979       0.927002109674888       0.930228145896799     
  0.933454182118708       0.936680218340619       0.939906254562528     
  0.943132290784439       0.946358327006350       0.949584363228260     
  0.952810399450170       0.956036435672080       0.966730257647934     
  0.969956293869844       0.973182330091754       0.976408366313664     
  0.979634402535574       0.982860438757485       0.986086474979396     
  0.989312511201305       0.992538547423217       0.995764583645126     
  0.998990619867035        1.00429021075977        1.00751624698168     
   1.01074228320359        1.01396831942550        1.01719435564741     
   1.02042039186932        1.02364642809123        1.02687246431314     
   1.03009850053505        1.03332453675696        1.03655057297887     
   1.03586358989069        1.03908962611260        1.04231566233451     
   1.04554169855642        1.04876773477833        1.05199377100024     
   1.05521980722215        1.05844584344406        1.06167187966597     
   1.06489791588788        1.06812395210979        1.06095246399077     
   1.06417850021268        1.06740453643459        1.07063057265650     
   1.07385660887841        1.07708264510032        1.08030868132223     
   1.08353471754414        1.08676075376605        1.08998678998796     
   1.09321282620987        1.07916116652809        1.08238720275000     
   1.08561323897191        1.08883927519382        1.09206531141573     
   1.09529134763764        1.09851738385955        1.10174342008146     
   1.10496945630337        1.10819549252528        1.11142152874719     
   1.09020253538628        1.09342857160819        1.09665460783010     
   1.09988064405201        1.10310668027392        1.10633271649583     
   1.10955875271774        1.11278478893965        1.11601082516156     
   1.11923686138347        1.12246289760538        1.09390244158265     
   1.09712847780456        1.10035451402647        1.10358055024838     
   1.10680658647029        1.11003262269220        1.11325865891411     
   1.11648469513602        1.11971073135793        1.12293676757984     
   1.12616280380176     
  0.218451096217166       0.199864378470344       0.181277660723521     
  0.162690942976699       0.144104225229876       0.125517507483053     
  0.106930789736231       8.834407198940805E-002  6.975735424258553E-002
  5.117063649576314E-002  3.258391874894044E-002  0.219093276916834     
  0.200506559170011       0.181919841423188       0.163333123676366     
  0.144746405929543       0.126159688182721       0.107572970435898     
  8.898625268907566E-002  7.039953494225291E-002  5.181281719543050E-002
  3.322609944860778E-002  0.221009691442582       0.202422973695759     
  0.183836255948937       0.165249538202114       0.146662820455291     
  0.128076102708469       0.109489384961646       9.090266721482378E-002
  7.231594946800118E-002  5.372923172117851E-002  3.514251397435605E-002
  0.224170116792529       0.205583399045706       0.186996681298884     
  0.168409963552061       0.149823245805239       0.131236528058416     
  0.112649810311594       9.406309256477127E-002  7.547637481794835E-002
  5.688965707112607E-002  3.830293932430349E-002  0.228524711170961     
  0.209937993424138       0.191351275677315       0.172764557930493     
  0.154177840183670       0.135591122436847       0.117004404690025     
  9.841768694320235E-002  7.983096919637979E-002  6.124425144955738E-002
  4.265753370273475E-002  0.234004800023219       0.215418082276397     
  0.196831364529574       0.178244646782752       0.159657929035929     
  0.141071211289106       0.122484493542284       0.103897775795461     
  8.531105804863860E-002  6.672434030181594E-002  4.813762255499324E-002
  0.240523959074459       0.221937241327636       0.203350523580814     
  0.184763805833991       0.166177088087168       0.147590370340346     
  0.129003652593523       0.110416934846701       9.183021709987801E-002
  7.324349935305573E-002  5.465678160623318E-002  0.247979377292085     
  0.229392659545262       0.210805941798439       0.192219224051617     
  0.173632506304794       0.155045788557972       0.136459070811149     
  0.117872353064327       9.928563531750395E-002  8.069891757068180E-002
  6.211219982385899E-002  0.256253478277154       0.237666760530331     
  0.219080042783509       0.200493325036686       0.181906607289863     
  0.163319889543041       0.144733171796218       0.126146454049395     
  0.107559736302573       8.897301855575046E-002  7.038630080892823E-002
  0.265215774514423       0.246629056767600       0.228042339020778     
  0.209455621273955       0.190868903527132       0.172282185780310     
  0.153695468033487       0.135108750286665       0.116522032539842     
  9.793531479301981E-002  7.934859704619728E-002  0.274724925238415     
  0.256138207491591       0.237551489744769       0.218964771997947     
  0.200378054251124       0.181791336504301       0.163204618757479     
  0.144617901010656       0.126031183263834       0.107444465517011     
  8.885774777018866E-002  0.284630965461720       0.266044247714896     
  0.247457529968074       0.228870812221252       0.210284094474429     
  0.191697376727607       0.173110658980783       0.154523941233962     
  0.135937223487139       0.117350505740316       9.876378799349390E-002
  0.294777671012435       0.276190953265613       0.257604235518789     
  0.239017517771968       0.220430800025144       0.201844082278322     
  0.183257364531499       0.164670646784677       0.146083929037854     
  0.127497211291032       0.108910493544209       0.305005022282678     
  0.286418304535856       0.267831586789033       0.249244869042210     
  0.230658151295388       0.212071433548565       0.193484715801742     
  0.174897998054921       0.156311280308097       0.137724562561275     
  0.119137844814452       0.315151727833394       0.296565010086571     
  0.277978292339749       0.259391574592926       0.240804856846104     
  0.222218139099281       0.203631421352458       0.185044703605636     
  0.166457985858813       0.147871268111991       0.129284550365168     
  0.325057768056698       0.306471050309876       0.287884332563054     
  0.269297614816231       0.250710897069409       0.232124179322586     
  0.213537461575763       0.194950743828941       0.176364026082118     
  0.157777308335296       0.139190590588473       0.334566918780690     
  0.315980201033868       0.297393483287045       0.278806765540223     
  0.260220047793400       0.241633330046578       0.223046612299755     
  0.204459894552933       0.185873176806109       0.167286459059287     
  0.148699741312465       0.343529215017959       0.324942497271137     
  0.306355779524314       0.287769061777491       0.269182344030669     
  0.250595626283847       0.232008908537024       0.213422190790201     
  0.194835473043378       0.176248755296555       0.157662037549734     
  0.351803316003028       0.333216598256206       0.314629880509383     
  0.296043162762560       0.277456445015738       0.258869727268915     
  0.240283009522092       0.221696291775270       0.203109574028448     
  0.184522856281625       0.165936138534803       0.359258734220654     
  0.340672016473831       0.322085298727009       0.303498580980186     
  0.284911863233364       0.266325145486542       0.247738427739719     
  0.229151709992896       0.210564992246074       0.191978274499252     
  0.173391556752428       0.365777893271894       0.347191175525071     
  0.328604457778249       0.310017740031426       0.291431022284603     
  0.272844304537781       0.254257586790959       0.235670869044137     
  0.217084151297314       0.198497433550490       0.179910715803668     
  0.371257982124152       0.352671264377331       0.334084546630507     
  0.315497828883685       0.296911111136863       0.278324393390040     
  0.259737675643218       0.241150957896395       0.222564240149572     
  0.203977522402750       0.185390804655926       0.375612576502585     
  0.357025858755761       0.338439141008939       0.319852423262116     
  0.301265705515294       0.282678987768471       0.264092270021647     
  0.245505552274826       0.226918834528003       0.208332116781180     
  0.189745399034358       0.378773001852532       0.360186284105709     
  0.341599566358887       0.323012848612063       0.304426130865241     
  0.285839413118417       0.267252695371596       0.248665977624774     
  0.230079259877951       0.211492542131128       0.192905824384305     
  0.380689416378279       0.362102698631457       0.343515980884635     
  0.324929263137812       0.306342545390989       0.287755827644167     
  0.269169109897344       0.250582392150521       0.231995674403699     
  0.213408956656876       0.194822238910054       0.381331597077946     
  0.362744879331125       0.344158161584301       0.325571443837480     
  0.306984726090656       0.288398008343834       0.269811290597011     
  0.251224572850188       0.232637855103367       0.214051137356543     
  0.195464419609721     
  2.651247573289247E-002  2.386122815960322E-002  2.120998058631397E-002
  1.855873301302472E-002  1.590748543973548E-002  1.325623786644623E-002
  1.060499029315698E-002  7.953742719867740E-003  5.302495146578492E-003
  2.651247573289244E-003  0.000000000000000E+000  2.651247573289247E-002
  2.386122815960322E-002  2.120998058631397E-002  1.855873301302472E-002
  1.590748543973548E-002  1.325623786644623E-002  1.060499029315698E-002
  7.953742719867740E-003  5.302495146578492E-003  2.651247573289244E-003
  0.000000000000000E+000  2.651247573289247E-002  2.386122815960322E-002
  2.120998058631397E-002  1.855873301302472E-002  1.590748543973548E-002
  1.325623786644623E-002  1.060499029315698E-002  7.953742719867740E-003
  5.302495146578492E-003  2.651247573289244E-003  0.000000000000000E+000
  2.651247573289247E-002  2.386122815960322E-002  2.120998058631397E-002
  1.855873301302472E-002  1.590748543973548E-002  1.325623786644623E-002
  1.060499029315698E-002  7.953742719867740E-003  5.302495146578492E-003
  2.651247573289244E-003  0.000000000000000E+000  2.651247573289247E-002
  2.386122815960322E-002  2.120998058631397E-002  1.855873301302472E-002
  1.590748543973548E-002  1.325623786644623E-002  1.060499029315698E-002
  7.953742719867740E-003  5.302495146578492E-003  2.651247573289244E-003
  0.000000000000000E+000  2.651247573289247E-002  2.386122815960322E-002
  2.120998058631397E-002  1.855873301302472E-002  1.590748543973548E-002
  1.325623786644623E-002  1.060499029315698E-002  7.953742719867740E-003
  5.302495146578492E-003  2.651247573289244E-003  0.000000000000000E+000
  2.651247573289247E-002  2.386122815960322E-002  2.120998058631397E-002
  1.855873301302472E-002  1.590748543973548E-002  1.325623786644623E-002
  1.060499029315698E-002  7.953742719867740E-003  5.302495146578492E-003
  2.651247573289244E-003  0.000000000000000E+000  2.651247573289247E-002
  2.386122815960322E-002  2.120998058631397E-002  1.855873301302472E-002
  1.590748543973548E-002  1.325623786644623E-002  1.060499029315698E-002
  7.953742719867740E-003  5.302495146578492E-003  2.651247573289244E-003
  0.000000000000000E+000  2.651247573289247E-002  2.386122815960322E-002
  2.120998058631397E-002  1.855873301302472E-002  1.590748543973548E-002
  1.325623786644623E-002  1.060499029315698E-002  7.953742719867740E-003
  5.302495146578492E-003  2.651247573289244E-003  0.000000000000000E+000
  2.651247573289247E-002  2.386122815960322E-002  2.120998058631397E-002
  1.855873301302472E-002  1.590748543973548E-002  1.325623786644623E-002
  1.060499029315698E-002  7.953742719867740E-003  5.302495146578492E-003
  2.651247573289244E-003  0.000000000000000E+000  2.651247573289247E-002
  2.386122815960322E-002  2.120998058631397E-002  1.855873301302472E-002
  1.590748543973548E-002  1.325623786644623E-002  1.060499029315698E-002
  7.953742719867740E-003  5.302495146578492E-003  2.651247573289244E-003
  0.000000000000000E+000  2.651247573289247E-002  2.386122815960322E-002
  2.120998058631397E-002  1.855873301302472E-002  1.590748543973548E-002
  1.325623786644623E-002  1.060499029315698E-002  7.953742719867740E-003
  5.302495146578492E-003  2.651247573289244E-003  0.000000000000000E+000
  2.651247573289247E-002  2.386122815960322E-002  2.120998058631397E-002
  1.855873301302472E-002  1.590748543973548E-002  1.325623786644623E-002
  1.060499029315698E-002  7.953742719867740E-003  5.302495146578492E-003
  2.651247573289244E-003  0.000000000000000E+000  2.651247573289247E-002
  2.386122815960322E-002  2.120998058631397E-002  1.855873301302472E-002
  1.590748543973548E-002  1.325623786644623E-002  1.060499029315698E-002
  7.953742719867740E-003  5.302495146578492E-003  2.651247573289244E-003
  0.000000000000000E+000  2.651247573289247E-002  2.386122815960322E-002
  2.120998058631397E-002  1.855873301302472E-002  1.590748543973548E-002
  1.325623786644623E-002  1.060499029315698E-002  7.953742719867740E-003
  5.302495146578492E-003  2.651247573289244E-003  0.000000000000000E+000
  2.651247573289247E-002  2.386122815960322E-002  2.120998058631397E-002
  1.855873301302472E-002  1.590748543973548E-002  1.325623786644623E-002
  1.060499029315698E-002  7.953742719867740E-003  5.302495146578492E-003
  2.651247573289244E-003  0.000000000000000E+000  2.651247573289247E-002
  2.386122815960322E-002  2.120998058631397E-002  1.855873301302472E-002
  1.590748543973548E-002  1.325623786644623E-002  1.060499029315698E-002
  7.953742719867740E-003  5.302495146578492E-003  2.651247573289244E-003
  0.000000000000000E+000  2.651247573289247E-002  2.386122815960322E-002
  2.120998058631397E-002  1.855873301302472E-002  1.590748543973548E-002
  1.325623786644623E-002  1.060499029315698E-002  7.953742719867740E-003
  5.302495146578492E-003  2.651247573289244E-003  0.000000000000000E+000
  2.651247573289247E-002  2.386122815960322E-002  2.120998058631397E-002
  1.855873301302472E-002  1.590748543973548E-002  1.325623786644623E-002
  1.060499029315698E-002  7.953742719867740E-003  5.302495146578492E-003
  2.651247573289244E-003  0.000000000000000E+000  2.651247573289247E-002
  2.386122815960322E-002  2.120998058631397E-002  1.855873301302472E-002
  1.590748543973548E-002  1.325623786644623E-002  1.060499029315698E-002
  7.953742719867740E-003  5.302495146578492E-003  2.651247573289244E-003
  0.000000000000000E+000  2.651247573289247E-002  2.386122815960322E-002
  2.120998058631397E-002  1.855873301302472E-002  1.590748543973548E-002
  1.325623786644623E-002  1.060499029315698E-002  7.953742719867740E-003
  5.302495146578492E-003  2.651247573289244E-003  0.000000000000000E+000
  2.651247573289247E-002  2.386122815960322E-002  2.120998058631397E-002
  1.855873301302472E-002  1.590748543973548E-002  1.325623786644623E-002
  1.060499029315698E-002  7.953742719867740E-003  5.302495146578492E-003
  2.651247573289244E-003  0.000000000000000E+000  2.651247573289247E-002
  2.386122815960322E-002  2.120998058631397E-002  1.855873301302472E-002
  1.590748543973548E-002  1.325623786644623E-002  1.060499029315698E-002
  7.953742719867740E-003  5.302495146578492E-003  2.651247573289244E-003
  0.000000000000000E+000  2.651247573289247E-002  2.386122815960322E-002
  2.120998058631397E-002  1.855873301302472E-002  1.590748543973548E-002
  1.325623786644623E-002  1.060499029315698E-002  7.953742719867740E-003
  5.302495146578492E-003  2.651247573289244E-003  0.000000000000000E+000
  2.651247573289247E-002  2.386122815960322E-002  2.120998058631397E-002
  1.855873301302472E-002  1.590748543973548E-002  1.325623786644623E-002
  1.060499029315698E-002  7.953742719867740E-003  5.302495146578492E-003
  2.651247573289244E-003  0.000000000000000E+000  2.651247573289247E-002
  2.386122815960322E-002  2.120998058631397E-002  1.855873301302472E-002
  1.590748543973548E-002  1.325623786644623E-002  1.060499029315698E-002
  7.953742719867740E-003  5.302495146578492E-003  2.651247573289244E-003
  0.000000000000000E+000
  1.807974754683423E-002  3.449759707527057E-002  5.150366999545906E-002
  6.997846696681174E-002  8.951301269450700E-002  0.108186068199255     
  0.122938141960783       0.131476958544617       0.136145823422083     
  0.136519482873943       3.201677155111671E-002  5.959319590369552E-002
  8.759751815930604E-002  0.117415252186058       0.148730133521502     
  0.178616510324400       0.202337773946286       0.216940996824574     
  0.225653467775831       0.228086735481054       4.994801239134675E-002
  8.819912228873798E-002  0.125301609874392       0.163164800125505     
  0.201779634280423       0.237830119364367       0.266876950202490     
  0.287462181535473       0.301236427011775       0.307474804119808     
  7.439810141931986E-002  0.124181465055923       0.169408451538875     
  0.212994652889821       0.255133186469288       0.293665442305476     
  0.325927672254111       0.351523254770447       0.370691948676740     
  0.381869428305319       0.108887546376900       0.173851639183047     
  0.228841829297248       0.278694783789436       0.324556386008524     
  0.366012012851886       0.402061749161126       0.432075395076884     
  0.455611742076500       0.471173129462570       0.154407139293923     
  0.239439978574940       0.307460508952872       0.366280974023903     
  0.418311828464257       0.464348633918324       0.504528023891804     
  0.538726719392127       0.566377901819600       0.585691924369533     
  0.209811835179927       0.319494914775016       0.403783749298264     
  0.474377984045021       0.535273798262631       0.588235297035510     
  0.634053343795612       0.672909420399717       0.704410450413475     
  0.726706586749700       0.274340064774471       0.413020437441866     
  0.516740761855289       0.601729345842248       0.673770745574569     
  0.735524406334120       0.788296547746964       0.832573985332873     
  0.868056774497678       0.892795570044460       0.347818666745007     
  0.519730334799776       0.645886718787308       0.747606322350088     
  0.832638136341673       0.904619190148916       0.965392176943142     
   1.01577098576550        1.05559549020256        1.08280447823004     
  0.430006067597657       0.639235090344704       0.790679946932503     
  0.911305549520160        1.01101898216020        1.09453661039965     
   1.16432439662504        1.22154579012506        1.26618903977009     
   1.29612799217524       0.520504738696965       0.770924887115063     
  0.950323060480582        1.09186028694982        1.20781775286462     
   1.30410743766352        1.38387197211039        1.44867204473115     
   1.49869055807240        1.53172965710183       0.618655051950524     
  0.913776374287638        1.12351496267183        1.28774123539549     
   1.42130843009495        1.53143567705689        1.62202158876102     
   1.69506824064752        1.75097482476644        1.78747140840727     
  0.723704822665275        1.06660386916279        1.30870644674345     
   1.49707636823208        1.64934501797608        1.77414381686348     
   1.87618578794039        1.95795848713897        2.02011126548627     
   2.06032043518868       0.834911710775445        1.22819079936781     
   1.50427035882889        1.71786046653490        1.88955229265401     
   2.02949727259154        2.14329567430093        2.23397352035048     
   2.30246982349323        2.34644823070569       0.951797086270244     
   1.39765937151963        1.70889562613145        1.94830992498733     
   2.13964771097309        2.29470368739831        2.42006290967024     
   2.51936955885610        2.59392388516036        2.64145499903419     
   1.07563749955301        1.57640951177212        1.92369255658866     
   2.18900979113045        2.39956429426844        2.56898962567624     
   2.70500895779628        2.81201852179064        2.89180342244242     
   2.94230835099977        1.21403039434647        1.77381216011763     
   2.15814410806489        2.44884961924517        2.67734306817881     
   2.85951952187228        3.00448724410951        3.11756684570839     
   3.20118891041643        3.25371128287080        1.38612920476228     
   2.01256258855532        2.43496473641927        2.74971099350371     
   2.99412268344960        3.18702073442758        3.33914405540165     
   3.45684099271414        3.54325416759967        3.59722417454053     
   1.57798423779418        2.27326192492893        2.73152419783153     
   3.06649551835281        3.32254605153982        3.52200449344028     
   3.67756360615885        3.79676408469509        3.88353920011284     
   3.93734935402254        1.69956979116425        2.43253204522480     
   2.90546786862771        3.24421927236643        3.49835882376829     
   3.69306688971934        3.84269438835736        3.95573691965575     
   4.03675014952662        4.08601739767982        1.71029030908123     
   2.42853439645371        2.88045605095453        3.19719288628948     
   3.43062674206597        3.60690861939264        3.74066174829833     
   3.84029904853272        3.91023840532858        3.95128959392279     
   1.60519772347699        2.24968250742270        2.64120719093538     
   2.90923043891147        3.10376563578627        3.24911304754243     
   3.35834730607382        3.43865198820617        3.49351431815951     
   3.52355222374896        1.39190903929494        1.90669948838181     
   2.20736877485536        2.41012983315305        2.55646979716223     
   2.66555193297432        2.74741945463322        2.80753280423593     
   2.84865606892897        2.87159769599696        1.06621725704784     
   1.41413176892521        1.61451432071186        1.74994572355129     
   1.84804339880039        1.92140838910356        1.97669168759969     
   2.01765824831774        2.04675294139112        2.06753454743834     
  0.648598209669005       0.843418027285050       0.956678494344695     
   1.03365878956902        1.08961507124222        1.13156322822890     
   1.16322578408498        1.18669076290824        1.20310075391249     
   1.21278709807101     
  0.000000000000000E+000  0.000000000000000E+000  0.000000000000000E+000
  0.000000000000000E+000  0.000000000000000E+000  0.000000000000000E+000
  0.000000000000000E+000  0.000000000000000E+000  0.000000000000000E+000
  0.000000000000000E+000  0.000000000000000E+000  0.000000000000000E+000
  0.000000000000000E+000  0.000000000000000E+000  0.000000000000000E+000
  0.000000000000000E+000  0.000000000000000E+000  0.000000000000000E+000
  0.000000000000000E+000  0.000000000000000E+000  0.000000000000000E+000
  0.000000000000000E+000  0.000000000000000E+000  0.000000000000000E+000
  0.000000000000000E+000  0.000000000000000E+000  0.000000000000000E+000
  0.000000000000000E+000  0.000000000000000E+000  0.000000000000000E+000
  0.000000000000000E+000  0.000000000000000E+000  0.000000000000000E+000
  0.000000000000000E+000  0.000000000000000E+000  0.000000000000000E+000
  0.000000000000000E+000  0.000000000000000E+000  0.000000000000000E+000
  0.000000000000000E+000  0.000000000000000E+000  0.000000000000000E+000
  0.000000000000000E+000  0.000000000000000E+000  0.000000000000000E+000
  0.000000000000000E+000  0.000000000000000E+000  0.000000000000000E+000
  0.000000000000000E+000  0.000000000000000E+000  0.000000000000000E+000
  0.000000000000000E+000  0.000000000000000E+000  0.000000000000000E+000
  0.000000000000000E+000  0.000000000000000E+000  0.000000000000000E+000
  0.000000000000000E+000  0.000000000000000E+000  0.000000000000000E+000
  0.000000000000000E+000  0.000000000000000E+000  0.000000000000000E+000
  0.000000000000000E+000  0.000000000000000E+000  0.000000000000000E+000
  0.000000000000000E+000  0.000000000000000E+000  0.000000000000000E+000
  0.000000000000000E+000  0.000000000000000E+000  0.000000000000000E+000
  0.000000000000000E+000  0.000000000000000E+000  0.000000000000000E+000
  0.000000000000000E+000  0.000000000000000E+000  0.000000000000000E+000
  0.000000000000000E+000  0.000000000000000E+000  0.000000000000000E+000
  0.000000000000000E+000  0.000000000000000E+000  0.000000000000000E+000
  0.000000000000000E+000  0.000000000000000E+000  0.000000000000000E+000
  0.000000000000000E+000  0.000000000000000E+000  0.000000000000000E+000
  0.000000000000000E+000  0.000000000000000E+000  0.000000000000000E+000
  0.000000000000000E+000  0.000000000000000E+000  0.000000000000000E+000
  0.000000000000000E+000  0.000000000000000E+000  0.000000000000000E+000
  0.000000000000000E+000  0.000000000000000E+000  0.000000000000000E+000
  0.000000000000000E+000  0.000000000000000E+000  0.000000000000000E+000
  0.000000000000000E+000  0.000000000000000E+000  0.000000000000000E+000
  0.000000000000000E+000  0.000000000000000E+000  0.000000000000000E+000
  0.000000000000000E+000  0.000000000000000E+000  0.000000000000000E+000
  0.000000000000000E+000  0.000000000000000E+000  0.000000000000000E+000