 Title = "Wing and Wake"
 VARIABLES = "X" "Y" "Z" "GAM" "skew"
 Zone I=   11 J=   26 K=1  T="Blade"
 DATAPACKING=BLOCK
 VARLOCATION=([4]=CELLCENTERED,[5]=CELLCENTERED)
 -0.218440245226214      -0.199853302376695      -0.181266359527177     
 -0.162679416677659      -0.144092473828141      -0.125505530978623     
 -0.106918588129104      -8.833164527958601E-002 -6.974470243006793E-002
 -5.115775958054970E-002 -3.257081673103154E-002 -0.219082167704545     
 -0.200495224855027      -0.181908282005509      -0.163321339155990     
 -0.144734396306472      -0.126147453456954      -0.107560510607436     
 -8.897356775791761E-002 -7.038662490839931E-002 -5.179968205888126E-002
 -3.321273920936293E-002 -0.220997811638590      -0.202410868789072     
 -0.183823925939554      -0.165236983090036      -0.146650040240517     
 -0.128063097390999      -0.109476154541481      -9.088921169196278E-002
 -7.230226884244470E-002 -5.371532599292635E-002 -3.512838314340821E-002
 -0.224156966179159      -0.205570023329641      -0.186983080480123     
 -0.168396137630604      -0.149809194781086      -0.131222251931568     
 -0.112635309082050      -9.404836623253165E-002 -7.546142338301336E-002
 -5.687448053349520E-002 -3.828753768397709E-002 -0.228509809571959     
 -0.209922866722441      -0.191335923872923      -0.172748981023405     
 -0.154162038173887      -0.135575095324368      -0.116988152474850     
 -9.840120962533190E-002 -7.981426677581367E-002 -6.122732392629557E-002
 -4.264038107677731E-002 -0.233987694876424      -0.215400752026906     
 -0.196813809177387      -0.178226866327869      -0.159639923478351     
 -0.141052980628833      -0.122466037779315      -0.103879094929797     
 -8.529215208027831E-002 -6.670520923075994E-002 -4.811826638124177E-002
 -0.240504232568971      -0.221917289719453      -0.203330346869935     
 -0.184743404020417      -0.166156461170898      -0.147569518321380     
 -0.128982575471862      -0.110395632622344      -9.180868977282561E-002
 -7.322174692330746E-002 -5.463480407378939E-002 -0.247956652957399     
 -0.229369710107881      -0.210782767258363      -0.192195824408845     
 -0.173608881559327      -0.155021938709808      -0.136434995860290     
 -0.117848053010772      -9.926111016125358E-002 -8.067416731173563E-002
 -6.208722446221725E-002 -0.256227426920322      -0.237640484070804     
 -0.219053541221286      -0.200466598371768      -0.181879655522249     
 -0.163292712672731      -0.144705769823213      -0.126118826973695     
 -0.107531884124177      -8.894494127465832E-002 -7.035799842514026E-002
 -0.265186119411624      -0.246599176562105      -0.228012233712587     
 -0.209425290863069      -0.190838348013551      -0.172251405164032     
 -0.153664462314514      -0.135077519464996      -0.116490576615478     
 -9.790363376595974E-002 -7.931669091644154E-002 -0.274691446499052     
 -0.256104503649534      -0.237517560800016      -0.218930617950498     
 -0.200343675100979      -0.181756732251461      -0.163169789401943     
 -0.144582846552425      -0.125995903702907      -0.107408960853388     
 -8.882201800387035E-002 -0.284593503496233      -0.266006560646714     
 -0.247419617797196      -0.228832674947678      -0.210245732098160     
 -0.191658789248641      -0.173071846399123      -0.154484903549605     
 -0.135897960700087      -0.117311017850569      -9.872407500105061E-002
 -0.294736129049116      -0.276149186199598      -0.257562243350080     
 -0.238975300500562      -0.220388357651043      -0.201801414801526     
 -0.183214471952007      -0.164627529102489      -0.146040586252971     
 -0.127453643403453      -0.108866700553934      -0.304959367893824     
 -0.286372425044306      -0.267785482194788      -0.249198539345269     
 -0.230611596495752      -0.212024653646233      -0.193437710796715     
 -0.174850767947197      -0.156263825097678      -0.137676882248160     
 -0.119089939398642      -0.315101993446708      -0.296515050597190     
 -0.277928107747672      -0.259341164898153      -0.240754222048636     
 -0.222167279199117      -0.203580336349598      -0.184993393500081     
 -0.166406450650563      -0.147819507801044      -0.129232564951526     
 -0.325004050443888      -0.306417107594369      -0.287830164744852     
 -0.269243221895334      -0.250656279045815      -0.232069336196298     
 -0.213482393346778      -0.194895450497261      -0.176308507647743     
 -0.157721564798225      -0.139134621948706      -0.334509377531316     
 -0.315922434681799      -0.297335491832281      -0.278748548982763     
 -0.260161606133244      -0.241574663283726      -0.222987720434207     
 -0.204400777584690      -0.185813834735171      -0.167226891885653     
 -0.148639949036135      -0.343468070022618      -0.324881127173100     
 -0.306294184323582      -0.287707241474063      -0.269120298624545     
 -0.250533355775027      -0.231946412925509      -0.213359470075991     
 -0.194772527226472      -0.176185584376954      -0.157598641527436     
 -0.351738843985541      -0.333151901136023      -0.314564958286505     
 -0.295978015436986      -0.277391072587469      -0.258804129737950     
 -0.240217186888432      -0.221630244038914      -0.203043301189396     
 -0.184456358339877      -0.165869415490359      -0.359191264373969     
 -0.340604321524451      -0.322017378674933      -0.303430435825415     
 -0.284843492975896      -0.266256550126378      -0.247669607276860     
 -0.229082664427342      -0.210495721577823      -0.191908778728306     
 -0.173321835878787      -0.365707802066517      -0.347120859216998     
 -0.328533916367480      -0.309946973517962      -0.291360030668443     
 -0.272773087818925      -0.254186144969408      -0.235599202119889     
 -0.217012259270371      -0.198425316420852      -0.179838373571334     
 -0.371185687370981      -0.352598744521463      -0.334011801671944     
 -0.315424858822427      -0.296837915972908      -0.278250973123390     
 -0.259664030273872      -0.241077087424354      -0.222490144574835     
 -0.203903201725317      -0.185316258875799      -0.375538530763782     
 -0.356951587914263      -0.338364645064744      -0.319777702215227     
 -0.301190759365709      -0.282603816516190      -0.264016873666672     
 -0.245429930817154      -0.226842987967636      -0.208256045118117     
 -0.189669102268599      -0.378697685304350      -0.360110742454832     
 -0.341523799605314      -0.322936856755795      -0.304349913906277     
 -0.285762971056759      -0.267176028207241      -0.248589085357723     
 -0.230002142508205      -0.211415199658686      -0.192828256809168     
 -0.380613329238395      -0.362026386388877      -0.343439443539359     
 -0.324852500689841      -0.306265557840323      -0.287678614990804     
 -0.269091672141286      -0.250504729291768      -0.231917786442250     
 -0.213330843592732      -0.194743900743213      -0.381255251716727     
 -0.362668308867209      -0.344081366017690      -0.325494423168173     
 -0.306907480318654      -0.288320537469136      -0.269733594619617     
 -0.251146651770100      -0.232559708920581      -0.213972766071062     
 -0.195385823221545     
  0.155486222693956       0.158710961724307       0.161935700754658     
  0.165160439785010       0.168385178815361       0.171609917845712     
  0.174834656876063       0.178059395906415       0.181284134936766     
  0.184508873967118       0.187733612997469       0.159186173699687     
  0.162410912730038       0.165635651760389       0.168860390790741     
  0.172085129821092       0.175309868851443       0.178534607881795     
  0.181759346912146       0.184984085942497       0.188208824972849     
  0.191433564003200       0.170227676279275       0.173452415309626     
  0.176677154339978       0.179901893370329       0.183126632400680     
  0.186351371431032       0.189576110461383       0.192800849491734     
  0.196025588522086       0.199250327552437       0.202475066582788     
  0.188436599341167       0.191661338371518       0.194886077401870     
  0.198110816432221       0.201335555462573       0.204560294492924     
  0.207785033523275       0.211009772553627       0.214234511583978     
  0.217459250614329       0.220683989644681       0.213525777291194     
  0.216750516321545       0.219975255351897       0.223199994382248     
  0.226424733412599       0.229649472442951       0.232874211473302     
  0.236098950503653       0.239323689534004       0.242548428564356     
  0.245773167594707       0.245099538805534       0.248324277835886     
  0.251549016866237       0.254773755896589       0.257998494926939     
  0.261223233957291       0.264447972987642       0.267672712017994     
  0.270897451048345       0.274122190078696       0.277346929109048     
  0.282659946803857       0.285884685834208       0.289109424864559     
  0.292334163894911       0.295558902925262       0.298783641955613     
  0.302008380985965       0.305233120016316       0.308457859046667     
  0.311682598077018       0.314907337107370       0.325614651214527     
  0.328839390244878       0.332064129275230       0.335288868305581     
  0.338513607335932       0.341738346366284       0.344963085396635     
  0.348187824426987       0.351412563457338       0.354637302487689     
  0.357862041518041       0.373286230689093       0.376510969719444     
  0.379735708749796       0.382960447780147       0.386185186810498     
  0.389409925840849       0.392634664871201       0.395859403901552     
  0.399084142931903       0.402308881962255       0.405533620992606     
  0.424922875941619       0.428147614971970       0.431372354002322     
  0.434597093032673       0.437821832063024       0.441046571093376     
  0.444271310123727       0.447496049154078       0.450720788184429     
  0.453945527214781       0.457170266245132       0.479710246230236     
  0.482934985260588       0.486159724290938       0.489384463321290     
  0.492609202351641       0.495833941381992       0.499058680412344     
  0.502283419442695       0.505508158473047       0.508732897503398     
  0.511957636533749       0.536784311997105       0.540009051027455     
  0.543233790057807       0.546458529088158       0.549683268118509     
  0.552908007148861       0.556132746179212       0.559357485209564     
  0.562582224239914       0.565806963270266       0.569031702300618     
  0.595244981130686       0.598469720161037       0.601694459191388     
  0.604919198221739       0.608143937252090       0.611368676282442     
  0.614593415312793       0.617818154343145       0.621042893373496     
  0.624267632403848       0.627492371434199       0.654170293956032     
  0.657395032986384       0.660619772016735       0.663844511047086     
  0.667069250077438       0.670293989107789       0.673518728138140     
  0.676743467168491       0.679968206198843       0.683192945229194     
  0.686417684259546       0.712630963089613       0.715855702119965     
  0.719080441150316       0.722305180180668       0.725529919211019     
  0.728754658241370       0.731979397271721       0.735204136302072     
  0.738428875332424       0.741653614362776       0.744878353393127     
  0.769705028856481       0.772929767886833       0.776154506917184     
  0.779379245947535       0.782603984977887       0.785828724008238     
  0.789053463038590       0.792278202068941       0.795502941099291     
  0.798727680129644       0.801952419159995       0.824492399145099     
  0.827717138175450       0.830941877205801       0.834166616236153     
  0.837391355266505       0.840616094296855       0.843840833327206     
  0.847065572357558       0.850290311387909       0.853515050418261     
  0.856739789448613       0.876129044397624       0.879353783427975     
  0.882578522458327       0.885803261488679       0.889028000519030     
  0.892252739549382       0.895477478579733       0.898702217610084     
  0.901926956640436       0.905151695670786       0.908376434701137     
  0.923800623872191       0.927025362902542       0.930250101932893     
  0.933474840963244       0.936699579993596       0.939924319023947     
  0.943149058054298       0.946373797084650       0.949598536115002     
  0.952823275145352       0.956048014175704       0.966755328282861     
  0.969980067313212       0.973204806343563       0.976429545373914     
  0.979654284404266       0.982879023434617       0.986103762464969     
  0.989328501495320       0.992553240525672       0.995777979556023     
  0.999002718586374        1.00431573628118        1.00754047531154     
   1.01076521434188        1.01398995337224        1.01721469240259     
   1.02043943143294        1.02366417046329        1.02688890949364     
   1.03011364852399        1.03333838755434        1.03656312658470     
   1.03588949779552        1.03911423682588        1.04233897585623     
   1.04556371488658        1.04878845391693        1.05201319294728     
   1.05523793197763        1.05846267100798        1.06168741003833     
   1.06491214906869        1.06813688809904        1.06097867574555     
   1.06420341477590        1.06742815380625        1.07065289283660     
   1.07387763186696        1.07710237089731        1.08032710992766     
   1.08355184895801        1.08677658798836        1.09000132701871     
   1.09322606604906        1.07918759880744        1.08241233783779     
   1.08563707686815        1.08886181589850        1.09208655492885     
   1.09531129395920        1.09853603298955        1.10176077201990     
   1.10498551105025        1.10821025008060        1.11143498911096     
   1.09022910138703        1.09345384041738        1.09667857944773     
   1.09990331847809        1.10312805750844        1.10635279653879     
   1.10957753556914        1.11280227459949        1.11602701362984     
   1.11925175266019        1.12247649169054        1.09392905239276     
   1.09715379142311        1.10037853045347        1.10360326948382     
   1.10682800851417        1.11005274754452        1.11327748657487     
   1.11650222560522        1.11972696463557        1.12295170366592     
   1.12617644269628     
  2.651247573289247E-002  2.386122815960322E-002  2.120998058631397E-002
  1.855873301302472E-002  1.590748543973548E-002  1.325623786644623E-002
  1.060499029315698E-002  7.953742719867740E-003  5.302495146578492E-003
  2.651247573289244E-003  0.000000000000000E+000  2.651247573289247E-002
  2.386122815960322E-002  2.120998058631397E-002  1.855873301302472E-002
  1.590748543973548E-002  1.325623786644623E-002  1.060499029315698E-002
  7.953742719867740E-003  5.302495146578492E-003  2.651247573289244E-003
  0.000000000000000E+000  2.651247573289247E-002  2.386122815960322E-002
  2.120998058631397E-002  1.855873301302472E-002  1.590748543973548E-002
  1.325623786644623E-002  1.060499029315698E-002  7.953742719867740E-003
  5.302495146578492E-003  2.651247573289244E-003  0.000000000000000E+000
  2.651247573289247E-002  2.386122815960322E-002  2.120998058631397E-002
  1.855873301302472E-002  1.590748543973548E-002  1.325623786644623E-002
  1.060499029315698E-002  7.953742719867740E-003  5.302495146578492E-003
  2.651247573289244E-003  0.000000000000000E+000  2.651247573289247E-002
  2.386122815960322E-002  2.120998058631397E-002  1.855873301302472E-002
  1.590748543973548E-002  1.325623786644623E-002  1.060499029315698E-002
  7.953742719867740E-003  5.302495146578492E-003  2.651247573289244E-003
  0.000000000000000E+000  2.651247573289247E-002  2.386122815960322E-002
  2.120998058631397E-002  1.855873301302472E-002  1.590748543973548E-002
  1.325623786644623E-002  1.060499029315698E-002  7.953742719867740E-003
  5.302495146578492E-003  2.651247573289244E-003  0.000000000000000E+000
  2.651247573289247E-002  2.386122815960322E-002  2.120998058631397E-002
  1.855873301302472E-002  1.590748543973548E-002  1.325623786644623E-002
  1.060499029315698E-002  7.953742719867740E-003  5.302495146578492E-003
  2.651247573289244E-003  0.000000000000000E+000  2.651247573289247E-002
  2.386122815960322E-002  2.120998058631397E-002  1.855873301302472E-002
  1.590748543973548E-002  1.325623786644623E-002  1.060499029315698E-002
  7.953742719867740E-003  5.302495146578492E-003  2.651247573289244E-003
  0.000000000000000E+000  2.651247573289247E-002  2.386122815960322E-002
  2.120998058631397E-002  1.855873301302472E-002  1.590748543973548E-002
  1.325623786644623E-002  1.060499029315698E-002  7.953742719867740E-003
  5.302495146578492E-003  2.651247573289244E-003  0.000000000000000E+000
  2.651247573289247E-002  2.386122815960322E-002  2.120998058631397E-002
  1.855873301302472E-002  1.590748543973548E-002  1.325623786644623E-002
  1.060499029315698E-002  7.953742719867740E-003  5.302495146578492E-003
  2.651247573289244E-003  0.000000000000000E+000  2.651247573289247E-002
  2.386122815960322E-002  2.120998058631397E-002  1.855873301302472E-002
  1.590748543973548E-002  1.325623786644623E-002  1.060499029315698E-002
  7.953742719867740E-003  5.302495146578492E-003  2.651247573289244E-003
  0.000000000000000E+000  2.651247573289247E-002  2.386122815960322E-002
  2.120998058631397E-002  1.855873301302472E-002  1.590748543973548E-002
  1.325623786644623E-002  1.060499029315698E-002  7.953742719867740E-003
  5.302495146578492E-003  2.651247573289244E-003  0.000000000000000E+000
  2.651247573289247E-002  2.386122815960322E-002  2.120998058631397E-002
  1.855873301302472E-002  1.590748543973548E-002  1.325623786644623E-002
  1.060499029315698E-002  7.953742719867740E-003  5.302495146578492E-003
  2.651247573289244E-003  0.000000000000000E+000  2.651247573289247E-002
  2.386122815960322E-002  2.120998058631397E-002  1.855873301302472E-002
  1.590748543973548E-002  1.325623786644623E-002  1.060499029315698E-002
  7.953742719867740E-003  5.302495146578492E-003  2.651247573289244E-003
  0.000000000000000E+000  2.651247573289247E-002  2.386122815960322E-002
  2.120998058631397E-002  1.855873301302472E-002  1.590748543973548E-002
  1.325623786644623E-002  1.060499029315698E-002  7.953742719867740E-003
  5.302495146578492E-003  2.651247573289244E-003  0.000000000000000E+000
  2.651247573289247E-002  2.386122815960322E-002  2.120998058631397E-002
  1.855873301302472E-002  1.590748543973548E-002  1.325623786644623E-002
  1.060499029315698E-002  7.953742719867740E-003  5.302495146578492E-003
  2.651247573289244E-003  0.000000000000000E+000  2.651247573289247E-002
  2.386122815960322E-002  2.120998058631397E-002  1.855873301302472E-002
  1.590748543973548E-002  1.325623786644623E-002  1.060499029315698E-002
  7.953742719867740E-003  5.302495146578492E-003  2.651247573289244E-003
  0.000000000000000E+000  2.651247573289247E-002  2.386122815960322E-002
  2.120998058631397E-002  1.855873301302472E-002  1.590748543973548E-002
  1.325623786644623E-002  1.060499029315698E-002  7.953742719867740E-003
  5.302495146578492E-003  2.651247573289244E-003  0.000000000000000E+000
  2.651247573289247E-002  2.386122815960322E-002  2.120998058631397E-002
  1.855873301302472E-002  1.590748543973548E-002  1.325623786644623E-002
  1.060499029315698E-002  7.953742719867740E-003  5.302495146578492E-003
  2.651247573289244E-003  0.000000000000000E+000  2.651247573289247E-002
  2.386122815960322E-002  2.120998058631397E-002  1.855873301302472E-002
  1.590748543973548E-002  1.325623786644623E-002  1.060499029315698E-002
  7.953742719867740E-003  5.302495146578492E-003  2.651247573289244E-003
  0.000000000000000E+000  2.651247573289247E-002  2.386122815960322E-002
  2.120998058631397E-002  1.855873301302472E-002  1.590748543973548E-002
  1.325623786644623E-002  1.060499029315698E-002  7.953742719867740E-003
  5.302495146578492E-003  2.651247573289244E-003  0.000000000000000E+000
  2.651247573289247E-002  2.386122815960322E-002  2.120998058631397E-002
  1.855873301302472E-002  1.590748543973548E-002  1.325623786644623E-002
  1.060499029315698E-002  7.953742719867740E-003  5.302495146578492E-003
  2.651247573289244E-003  0.000000000000000E+000  2.651247573289247E-002
  2.386122815960322E-002  2.120998058631397E-002  1.855873301302472E-002
  1.590748543973548E-002  1.325623786644623E-002  1.060499029315698E-002
  7.953742719867740E-003  5.302495146578492E-003  2.651247573289244E-003
  0.000000000000000E+000  2.651247573289247E-002  2.386122815960322E-002
  2.120998058631397E-002  1.855873301302472E-002  1.590748543973548E-002
  1.325623786644623E-002  1.060499029315698E-002  7.953742719867740E-003
  5.302495146578492E-003  2.651247573289244E-003  0.000000000000000E+000
  2.651247573289247E-002  2.386122815960322E-002  2.120998058631397E-002
  1.855873301302472E-002  1.590748543973548E-002  1.325623786644623E-002
  1.060499029315698E-002  7.953742719867740E-003  5.302495146578492E-003
  2.651247573289244E-003  0.000000000000000E+000  2.651247573289247E-002
  2.386122815960322E-002  2.120998058631397E-002  1.855873301302472E-002
  1.590748543973548E-002  1.325623786644623E-002  1.060499029315698E-002
  7.953742719867740E-003  5.302495146578492E-003  2.651247573289244E-003
  0.000000000000000E+000
  0.177729130922850       0.249639024923137       0.303165132213196     
  0.347669559914674       0.385551035771093       0.417484161813727     
  0.443772264150031       0.464417904755681       0.480277046290101     
  0.491950732919483       0.289939461480583       0.414909629091456     
  0.507163473981505       0.583497550804980       0.648260635735536     
  0.702766483683862       0.747676162285425       0.783122497250119     
  0.810758701545268       0.832844640636523       0.369368470534576     
  0.545661894095551       0.676633851880741       0.784654367208605     
  0.875840965496758       0.952277648458100        1.01524470530639     
   1.06519109512391        1.10373198566523        1.13181025627669     
  0.406976054814882       0.616371696513178       0.776160365755640     
  0.909038111194682        1.02125614154868        1.11484698413348     
   1.19123866926133        1.25127072553247        1.29594636828092     
   1.32526506993358       0.407902482121921       0.626953836118335     
  0.798157386555645       0.942277235577491        1.06495124998884     
   1.16775778814803        1.25137688316976        1.31621244660099     
   1.36285682703931        1.39092670301602       0.382955293103609     
  0.592839225722340       0.758858705600320       0.899531443057126     
   1.01967506918318        1.12151885417120        1.20554408898122     
   1.27111318409751        1.31784074242504        1.34525375863242     
  0.355451498934888       0.549996015732756       0.703695589573006     
  0.833744394461254       0.945284564162438        1.04059087527511     
   1.12029813936943        1.18378510889069        1.23031442601621     
   1.25882654079710       0.353752215204572       0.541714330394441     
  0.687552629769518       0.809961648587692       0.914993064176871     
   1.00509253049560        1.08112736141345        1.14304029726789     
   1.19009187154733        1.22004512261746       0.389246552812849     
  0.587907998860770       0.737708131777014       0.861105646059815     
  0.965832951931214        1.05524007128135        1.13080797278657     
   1.19295505627556        1.24110078357280        1.27266778758438     
  0.450924584300847       0.674262265408687       0.838606175761875     
  0.971416923859062        1.08250479357647        1.17635006931081     
   1.25513473734425        1.31971923769407        1.36976531423340     
   1.40272063535862       0.527824659617831       0.784270190673807     
  0.969736766170851        1.11735847577845        1.23924080058353     
   1.34107797795915        1.42578061348440        1.49466818967933     
   1.54768006203552        1.58233159153611       0.614073052565005     
  0.908657019871833        1.11913729911766        1.28476647141177     
   1.42007551816729        1.53203969753977        1.62433778966711     
   1.69876705827960        1.75553187466151        1.79219560277067     
  0.707006997973293        1.04305286434452        1.28098447087790     
   1.46655006549060        1.61682457912191        1.74011173902750     
   1.84088717841948        1.92144754813026        1.98228662493078     
   2.02102777657760       0.806162686771609        1.18634334800185     
   1.45341261891566        1.66005201388262        1.82604837724409     
   1.96112590076530        2.07061913492032        2.15737019434113     
   2.22219427069309        2.26281253195985       0.912647239552287     
   1.33953974592522        1.63693847873771        1.86511268060182     
   2.04685846893694        2.19349802586506        2.31133833799207     
   2.40384385910417        2.47221520222821        2.51433952980691     
   1.02818846793090        1.50428796165098        1.83259899134001     
   2.08194522608337        2.27858176280162        2.43569573893027     
   2.56075377523862        2.65798190806781        2.72907618205567     
   2.77220782197032        1.15151140047437        1.67787569225583     
   2.03619877885822        2.30492320078761        2.51427070940788     
   2.67960183233979        2.80975645645497        2.90990487062119     
   2.98241983011711        3.02596953595128        1.27336287195109     
   1.84660376508882        2.23085324564834        2.51464130155863     
   2.73244010531550        2.90198310212976        3.03364244650995     
   3.13368442392801        3.20536460777450        3.24821325728925     
   1.37739155567574        1.98665910307100        2.38767333793930     
   2.67843935049284        2.89755392556047        3.06509214287217     
   3.19294059894325        3.28845067653554        3.35580470001002     
   3.39565241372357        1.44530629640208        2.07029482770258     
   2.47227261719349        2.75726509998592        2.96749973802010     
   3.12504035003072        3.24292110328284        3.32918468353612     
   3.38855579109178        3.42257871101420        1.45670075811398     
   2.06592870852500        2.44566073514101        2.70768090774906     
   2.89666540994887        3.03561709241978        3.13775521740865     
   3.21095361338523        3.25970580942368        3.28586253994031     
   1.39036413467483        1.94131718928248        2.27042796196074     
   2.49103776929656        2.64718319276530        2.76052035071455     
   2.84291968319136        2.90109665432143        2.93859272630619     
   2.95679154364521        1.22817441450484        1.67231791177332     
   1.92565282906758        2.09222447586689        2.20920045017974     
   2.29385825204200        2.35536426991021        2.39881489809163     
   2.42696464391336        2.44110530152178       0.953315719096435     
   1.25463200697505        1.42340372968286        1.53438881666136     
   1.61254322072969        1.66930463282716        1.71076361112044     
   1.74041998873702        1.76060926087336        1.77475088427716     
  0.582944919964730       0.751651856174888       0.846949363764451     
  0.909940833442998       0.954448810209579       0.986857506329437     
   1.01058218768035        1.02756750878474        1.03892768217106     
   1.04515480442058     
  0.000000000000000E+000  0.000000000000000E+000  0.000000000000000E+000
  0.000000000000000E+000  0.000000000000000E+000  0.000000000000000E+000
  0.000000000000000E+000  0.000000000000000E+000  0.000000000000000E+000
  0.000000000000000E+000  0.000000000000000E+000  0.000000000000000E+000
  0.000000000000000E+000  0.000000000000000E+000  0.000000000000000E+000
  0.000000000000000E+000  0.000000000000000E+000  0.000000000000000E+000
  0.000000000000000E+000  0.000000000000000E+000  0.000000000000000E+000
  0.000000000000000E+000  0.000000000000000E+000  0.000000000000000E+000
  0.000000000000000E+000  0.000000000000000E+000  0.000000000000000E+000
  0.000000000000000E+000  0.000000000000000E+000  0.000000000000000E+000
  0.000000000000000E+000  0.000000000000000E+000  0.000000000000000E+000
  0.000000000000000E+000  0.000000000000000E+000  0.000000000000000E+000
  0.000000000000000E+000  0.000000000000000E+000  0.000000000000000E+000
  0.000000000000000E+000  0.000000000000000E+000  0.000000000000000E+000
  0.000000000000000E+000  0.000000000000000E+000  0.000000000000000E+000
  0.000000000000000E+000  0.000000000000000E+000  0.000000000000000E+000
  0.000000000000000E+000  0.000000000000000E+000  0.000000000000000E+000
  0.000000000000000E+000  0.000000000000000E+000  0.000000000000000E+000
  0.000000000000000E+000  0.000000000000000E+000  0.000000000000000E+000
  0.000000000000000E+000  0.000000000000000E+000  0.000000000000000E+000
  0.000000000000000E+000  0.000000000000000E+000  0.000000000000000E+000
  0.000000000000000E+000  0.000000000000000E+000  0.000000000000000E+000
  0.000000000000000E+000  0.000000000000000E+000  0.000000000000000E+000
  0.000000000000000E+000  0.000000000000000E+000  0.000000000000000E+000
  0.000000000000000E+000  0.000000000000000E+000  0.000000000000000E+000
  0.000000000000000E+000  0.000000000000000E+000  0.000000000000000E+000
  0.000000000000000E+000  0.000000000000000E+000  0.000000000000000E+000
  0.000000000000000E+000  0.000000000000000E+000  0.000000000000000E+000
  0.000000000000000E+000  0.000000000000000E+000  0.000000000000000E+000
  0.000000000000000E+000  0.000000000000000E+000  0.000000000000000E+000
  0.000000000000000E+000  0.000000000000000E+000  0.000000000000000E+000
  0.000000000000000E+000  0.000000000000000E+000  0.000000000000000E+000
  0.000000000000000E+000  0.000000000000000E+000  0.000000000000000E+000
  0.000000000000000E+000  0.000000000000000E+000  0.000000000000000E+000
  0.000000000000000E+000  0.000000000000000E+000  0.000000000000000E+000
  0.000000000000000E+000  0.000000000000000E+000  0.000000000000000E+000
  0.000000000000000E+000  0.000000000000000E+000  0.000000000000000E+000
  0.000000000000000E+000  0.000000000000000E+000  0.000000000000000E+000
  0.000000000000000E+000  0.000000000000000E+000  0.000000000000000E+000