 Title = "Wing and Wake"
 VARIABLES = "X" "Y" "Z" "GAM" "skew"
 Zone I=   11 J=   26 K=1  T="Blade"
 DATAPACKING=BLOCK
 VARLOCATION=([4]=CELLCENTERED,[5]=CELLCENTERED)
  0.227221651798070       0.223090897458935       0.218960143119801     
  0.214829388780667       0.210698634441532       0.206567880102398     
  0.202437125763263       0.198306371424128       0.194175617084994     
  0.190044862745860       0.185914108406725       0.230885743067588     
  0.226754988728453       0.222624234389318       0.218493480050184     
  0.214362725711050       0.210231971371915       0.206101217032781     
  0.201970462693646       0.197839708354512       0.193708954015378     
  0.189578199676243       0.241820231967997       0.237689477628863     
  0.233558723289729       0.229427968950594       0.225297214611460     
  0.221166460272325       0.217035705933191       0.212904951594057     
  0.208774197254922       0.204643442915787       0.200512688576653     
  0.259852675077395       0.255721920738260       0.251591166399126     
  0.247460412059991       0.243329657720857       0.239198903381722     
  0.235068149042587       0.230937394703453       0.226806640364319     
  0.222675886025184       0.218545131686050       0.284698689995883     
  0.280567935656748       0.276437181317614       0.272306426978479     
  0.268175672639345       0.264044918300210       0.259914163961076     
  0.255783409621942       0.251652655282807       0.247521900943673     
  0.243391146604538       0.315966440225909       0.311835685886774     
  0.307704931547639       0.303574177208505       0.299443422869371     
  0.295312668530236       0.291181914191101       0.287051159851968     
  0.282920405512832       0.278789651173698       0.274658896834564     
  0.353162814667896       0.349032060328761       0.344901305989627     
  0.340770551650492       0.336639797311357       0.332509042972223     
  0.328378288633088       0.324247534293954       0.320116779954820     
  0.315986025615685       0.311855271276550       0.395701204276856     
  0.391570449937722       0.387439695598588       0.383308941259453     
  0.379178186920318       0.375047432581184       0.370916678242049     
  0.366785923902915       0.362655169563780       0.358524415224647     
  0.354393660885512       0.442910753237456       0.438779998898322     
  0.434649244559187       0.430518490220053       0.426387735880918     
  0.422256981541783       0.418126227202649       0.413995472863515     
  0.409864718524380       0.405733964185246       0.401603209846111     
  0.494046938760968       0.489916184421832       0.485785430082698     
  0.481654675743563       0.477523921404429       0.473393167065295     
  0.469262412726160       0.465131658387026       0.461000904047891     
  0.456870149708757       0.452739395369622       0.548303312654409     
  0.544172558315276       0.540041803976140       0.535911049637006     
  0.531780295297871       0.527649540958736       0.523518786619602     
  0.519388032280468       0.515257277941334       0.511126523602199     
  0.506995769263064       0.604824219490295       0.600693465151159     
  0.596562710812026       0.592431956472890       0.588301202133756     
  0.584170447794622       0.580039693455486       0.575908939116353     
  0.571778184777219       0.567647430438084       0.563516676098949     
  0.662718290803867       0.658587536464734       0.654456782125599     
  0.650326027786466       0.646195273447330       0.642064519108195     
  0.637933764769061       0.633803010429926       0.629672256090792     
  0.625541501751658       0.621410747412523       0.721072502506273     
  0.716941748167139       0.712810993828004       0.708680239488870     
  0.704549485149736       0.700418730810601       0.696287976471465     
  0.692157222132332       0.688026467793197       0.683895713454063     
  0.679764959114929       0.778966573819847       0.774835819480713     
  0.770705065141578       0.766574310802445       0.762443556463310     
  0.758312802124175       0.754182047785040       0.750051293445904     
  0.745920539106772       0.741789784767638       0.737659030428503     
  0.835487480655731       0.831356726316597       0.827225971977463     
  0.823095217638329       0.818964463299195       0.814833708960059     
  0.810702954620925       0.806572200281791       0.802441445942655     
  0.798310691603522       0.794179937264388       0.889743854549174     
  0.885613100210038       0.881482345870905       0.877351591531771     
  0.873220837192636       0.869090082853500       0.864959328514366     
  0.860828574175232       0.856697819836097       0.852567065496965     
  0.848436311157830       0.940880040072685       0.936749285733550     
  0.932618531394414       0.928487777055283       0.924357022716147     
  0.920226268377013       0.916095514037878       0.911964759698744     
  0.907834005359609       0.903703251020474       0.899572496681340     
  0.988089589033285       0.983958834694150       0.979828080355015     
  0.975697326015881       0.971566571676747       0.967435817337611     
  0.963305062998476       0.959174308659344       0.955043554320209     
  0.950912799981074       0.946782045641939        1.03062797864225     
   1.02649722430311        1.02236646996397        1.01823571562484     
   1.01410496128571        1.00997420694657        1.00584345260744     
   1.00171269826830       0.997581943929171       0.993451189590035     
  0.989320435250900        1.06782435308423        1.06369359874510     
   1.05956284440596        1.05543209006683        1.05130133572769     
   1.04717058138856        1.04303982704943        1.03890907271029     
   1.03477831837116        1.03064756403202        1.02651680969289     
   1.09909210331426        1.09496134897513        1.09083059463599     
   1.08669984029686        1.08256908595772        1.07843833161858     
   1.07430757727945        1.07017682294032        1.06604606860118     
   1.06191531426205        1.05778455992291        1.12393811823275     
   1.11980736389361        1.11567660955448        1.11154585521534     
   1.10741510087621        1.10328434653707        1.09915359219794     
   1.09502283785880        1.09089208351967        1.08676132918054     
   1.08263057484140        1.14197056134214        1.13783980700301     
   1.13370905266387        1.12957829832474        1.12544754398561     
   1.12131678964647        1.11718603530734        1.11305528096820     
   1.10892452662907        1.10479377228993        1.10066301795080     
   1.15290505024255        1.14877429590342        1.14464354156428     
   1.14051278722515        1.13638203288602        1.13225127854688     
   1.12812052420775        1.12398976986861        1.11985901552948     
   1.11572826119034        1.11159750685121        1.15656914151207     
   1.15243838717294        1.14830763283380        1.14417687849467     
   1.14004612415553        1.13591536981640        1.13178461547726     
   1.12765386113813        1.12352310679900        1.11939235245986     
   1.11526159812073     
  0.142346152516599       0.123939353368054       0.105532554219510     
  8.712575507096605E-002  6.871895592242187E-002  5.031215677387775E-002
  3.190535762533347E-002  1.349855847678920E-002 -4.908240671754890E-003
 -2.331503982029874E-002 -4.172183896884319E-002  0.141523876965678     
  0.123117077817134       0.104710278668590       8.630347952004594E-002
  6.789668037150179E-002  4.948988122295769E-002  3.108308207441336E-002
  1.267628292586930E-002 -5.730516222674924E-003 -2.413731537121892E-002
 -4.254411451976335E-002  0.139070018089560       0.120663218941016     
  0.102256419792471       8.384962064392730E-002  6.544282149538305E-002
  4.703602234683900E-002  2.862922319829498E-002  1.022242404975067E-002
 -8.184375098793516E-003 -2.659117424733753E-002 -4.499797339588159E-002
  0.135023274708583       0.116616475560039       9.820967641149476E-002
  7.980287726295056E-002  6.139607811440664E-002  4.298927896586227E-002
  2.458247981731820E-002  6.175680668774425E-003 -1.223111847977011E-002
 -3.063791762831390E-002 -4.904471677685800E-002  0.129447466383274     
  0.111040667234730       9.263386808618550E-002  7.422706893764158E-002
  5.582026978909767E-002  3.741347064055292E-002  1.900667149200923E-002
  5.998723434649421E-004 -1.780692680507908E-002 -3.621372595362321E-002
 -5.462052510216749E-002  0.122430526941749       0.104023727793205     
  8.561692864466053E-002  6.721012949611635E-002  4.880333034757234E-002
  3.039653119902810E-002  1.198973205048377E-002 -6.417067098060090E-003
 -2.482386624660396E-002 -4.323066539514833E-002 -6.163746454369300E-002
  0.114083117710717       9.567631856217289E-002  7.726951941362914E-002
  5.886272026508473E-002  4.045592111654036E-002  2.204912196799658E-002
  3.642322819452263E-003 -1.476447632909227E-002 -3.317127547763665E-002
 -5.157807462618039E-002 -6.998487377472422E-002  0.104536882320252     
  8.613008317170831E-002  6.772328402316363E-002  4.931648487461979E-002
  3.090968572607569E-002  1.250288657753145E-002 -5.903912571013102E-003
 -2.431071171955686E-002 -4.271751086810122E-002 -6.112431001664526E-002
 -7.953110916518935E-002  9.394237060510705E-002  7.553557145656273E-002
  5.712877230801869E-002  3.872197315947502E-002  2.031517401093015E-002
  1.908374862386108E-003 -1.649842428615763E-002 -3.490522343470243E-002
 -5.331202258324604E-002 -7.171882173179044E-002 -9.012562088033432E-002
  8.246666434388307E-002  6.405986519533947E-002  4.565306604679504E-002
  2.724626689825110E-002  8.839467749706748E-003 -9.567331398837243E-003
 -2.797413054738152E-002 -4.638092969592571E-002 -6.478772884446989E-002
 -8.319452799301354E-002 -0.101601327141558       7.029074227957612E-002
  5.188394313103146E-002  3.347714398248779E-002  1.507034483394367E-002
 -3.336454314601097E-003 -2.174325346314443E-002 -4.015005261168924E-002
 -5.855685176023294E-002 -7.696365090877759E-002 -9.537045005732125E-002
 -0.113777249205865       5.760662597668250E-002  3.919982682813729E-002
  2.079302767959286E-002  2.386228531049930E-003 -1.602057061749513E-002
 -3.442736976603899E-002 -5.283416891458353E-002 -7.124096806312724E-002
 -8.964776721167124E-002 -0.108054566360216      -0.126461365508759     
  4.461435152642112E-002  2.620755237787751E-002  7.800753229332508E-003
 -1.060604591921057E-002 -2.901284506775531E-002 -4.741964421629882E-002
 -6.582644336484399E-002 -8.423324251338753E-002 -0.102640041661932     
 -0.121046840810475      -0.139453639959020       3.151881485808335E-002
  1.311201570953946E-002 -5.294783439004683E-003 -2.370158258754877E-002
 -4.210838173609287E-002 -6.051518088463691E-002 -7.892198003318129E-002
 -9.732877918172421E-002 -0.115735578330270      -0.134142377478814     
 -0.152549176627358       1.852654040782408E-002  1.197412592793030E-004
 -1.828705788926435E-002 -3.669385703780948E-002 -5.510065618635230E-002
 -7.350745533489676E-002 -9.191425448344172E-002 -0.110321053631984     
 -0.128727852780530      -0.147134651929074      -0.165541451077618     
  5.842424104929429E-003 -1.256437504361519E-002 -3.097117419215873E-002
 -4.937797334070367E-002 -6.778477248924769E-002 -8.619157163779115E-002
 -0.104598370786335      -0.123005169934880      -0.141411969083423     
 -0.159818768231968      -0.178225567380512      -6.333497959379495E-003
 -2.474029710792186E-002 -4.314709625646670E-002 -6.155389540501045E-002
 -7.996069455355476E-002 -9.836749370209863E-002 -0.116774292850643     
 -0.135181091999187      -0.153587891147732      -0.171994690296275     
 -0.190401489444820      -1.780920422060113E-002 -3.621600336914658E-002
 -5.462280251768984E-002 -7.302960166623496E-002 -9.143640081477870E-002
 -0.109843199963322      -0.128249999111867      -0.146656798260411     
 -0.165063597408955      -0.183470396557500      -0.201877195706043     
 -2.840371593574772E-002 -4.681051508429092E-002 -6.521731423283639E-002
 -8.362411338138011E-002 -0.102030912529923      -0.120437711678468     
 -0.138844510827013      -0.157251309975556      -0.175658109124101     
 -0.194064908272644      -0.212471707421188      -3.794995132621093E-002
 -5.635675047475647E-002 -7.476354962329984E-002 -9.317034877184378E-002
 -0.111577147920388      -0.129983947068932      -0.148390746217477     
 -0.166797545366021      -0.185204344514565      -0.203611143663108     
 -0.222017942811652      -4.629736055724383E-002 -6.470415970578841E-002
 -8.311095885433131E-002 -0.101517758002876      -0.119924557151421     
 -0.138331356299965      -0.156738155448509      -0.175144954597052     
 -0.193551753745597      -0.211958552894141      -0.230365352042685     
 -5.331429999876944E-002 -7.172109914731237E-002 -9.012789829585820E-002
 -0.108534697444402      -0.126941496592945      -0.145348295741489     
 -0.163755094890033      -0.182161894038577      -0.200568693187122     
 -0.218975492335666      -0.237382291484212      -5.889010832407654E-002
 -7.729690747262344E-002 -9.570370662116676E-002 -0.114110505769710     
 -0.132517304918255      -0.150924104066798      -0.169330903215343     
 -0.187737702363886      -0.206144501512432      -0.224551300660977     
 -0.242958099809520      -6.293685170505414E-002 -8.134365085359747E-002
 -9.975045000214307E-002 -0.118157249150687      -0.136564048299232     
 -0.154970847447776      -0.173377646596319      -0.191784445744864     
 -0.210191244893408      -0.228598044041952      -0.247004843190496     
 -6.539071058117438E-002 -8.379750972971643E-002 -0.102204308878261     
 -0.120611108026806      -0.139017907175351      -0.157424706323893     
 -0.175831505472439      -0.194238304620981      -0.212645103769527     
 -0.231051902918071      -0.249458702066614      -6.621298613209488E-002
 -8.461978528063686E-002 -0.103026584429182      -0.121433383577725     
 -0.139840182726270      -0.158246981874813      -0.176653781023358     
 -0.195060580171903      -0.213467379320446      -0.231874178468992     
 -0.250280977617536     
  2.651247573289247E-002  2.386122815960322E-002  2.120998058631397E-002
  1.855873301302472E-002  1.590748543973548E-002  1.325623786644623E-002
  1.060499029315698E-002  7.953742719867740E-003  5.302495146578492E-003
  2.651247573289244E-003  0.000000000000000E+000  2.651247573289247E-002
  2.386122815960322E-002  2.120998058631397E-002  1.855873301302472E-002
  1.590748543973548E-002  1.325623786644623E-002  1.060499029315698E-002
  7.953742719867740E-003  5.302495146578492E-003  2.651247573289244E-003
  0.000000000000000E+000  2.651247573289247E-002  2.386122815960322E-002
  2.120998058631397E-002  1.855873301302472E-002  1.590748543973548E-002
  1.325623786644623E-002  1.060499029315698E-002  7.953742719867740E-003
  5.302495146578492E-003  2.651247573289244E-003  0.000000000000000E+000
  2.651247573289247E-002  2.386122815960322E-002  2.120998058631397E-002
  1.855873301302472E-002  1.590748543973548E-002  1.325623786644623E-002
  1.060499029315698E-002  7.953742719867740E-003  5.302495146578492E-003
  2.651247573289244E-003  0.000000000000000E+000  2.651247573289247E-002
  2.386122815960322E-002  2.120998058631397E-002  1.855873301302472E-002
  1.590748543973548E-002  1.325623786644623E-002  1.060499029315698E-002
  7.953742719867740E-003  5.302495146578492E-003  2.651247573289244E-003
  0.000000000000000E+000  2.651247573289247E-002  2.386122815960322E-002
  2.120998058631397E-002  1.855873301302472E-002  1.590748543973548E-002
  1.325623786644623E-002  1.060499029315698E-002  7.953742719867740E-003
  5.302495146578492E-003  2.651247573289244E-003  0.000000000000000E+000
  2.651247573289247E-002  2.386122815960322E-002  2.120998058631397E-002
  1.855873301302472E-002  1.590748543973548E-002  1.325623786644623E-002
  1.060499029315698E-002  7.953742719867740E-003  5.302495146578492E-003
  2.651247573289244E-003  0.000000000000000E+000  2.651247573289247E-002
  2.386122815960322E-002  2.120998058631397E-002  1.855873301302472E-002
  1.590748543973548E-002  1.325623786644623E-002  1.060499029315698E-002
  7.953742719867740E-003  5.302495146578492E-003  2.651247573289244E-003
  0.000000000000000E+000  2.651247573289247E-002  2.386122815960322E-002
  2.120998058631397E-002  1.855873301302472E-002  1.590748543973548E-002
  1.325623786644623E-002  1.060499029315698E-002  7.953742719867740E-003
  5.302495146578492E-003  2.651247573289244E-003  0.000000000000000E+000
  2.651247573289247E-002  2.386122815960322E-002  2.120998058631397E-002
  1.855873301302472E-002  1.590748543973548E-002  1.325623786644623E-002
  1.060499029315698E-002  7.953742719867740E-003  5.302495146578492E-003
  2.651247573289244E-003  0.000000000000000E+000  2.651247573289247E-002
  2.386122815960322E-002  2.120998058631397E-002  1.855873301302472E-002
  1.590748543973548E-002  1.325623786644623E-002  1.060499029315698E-002
  7.953742719867740E-003  5.302495146578492E-003  2.651247573289244E-003
  0.000000000000000E+000  2.651247573289247E-002  2.386122815960322E-002
  2.120998058631397E-002  1.855873301302472E-002  1.590748543973548E-002
  1.325623786644623E-002  1.060499029315698E-002  7.953742719867740E-003
  5.302495146578492E-003  2.651247573289244E-003  0.000000000000000E+000
  2.651247573289247E-002  2.386122815960322E-002  2.120998058631397E-002
  1.855873301302472E-002  1.590748543973548E-002  1.325623786644623E-002
  1.060499029315698E-002  7.953742719867740E-003  5.302495146578492E-003
  2.651247573289244E-003  0.000000000000000E+000  2.651247573289247E-002
  2.386122815960322E-002  2.120998058631397E-002  1.855873301302472E-002
  1.590748543973548E-002  1.325623786644623E-002  1.060499029315698E-002
  7.953742719867740E-003  5.302495146578492E-003  2.651247573289244E-003
  0.000000000000000E+000  2.651247573289247E-002  2.386122815960322E-002
  2.120998058631397E-002  1.855873301302472E-002  1.590748543973548E-002
  1.325623786644623E-002  1.060499029315698E-002  7.953742719867740E-003
  5.302495146578492E-003  2.651247573289244E-003  0.000000000000000E+000
  2.651247573289247E-002  2.386122815960322E-002  2.120998058631397E-002
  1.855873301302472E-002  1.590748543973548E-002  1.325623786644623E-002
  1.060499029315698E-002  7.953742719867740E-003  5.302495146578492E-003
  2.651247573289244E-003  0.000000000000000E+000  2.651247573289247E-002
  2.386122815960322E-002  2.120998058631397E-002  1.855873301302472E-002
  1.590748543973548E-002  1.325623786644623E-002  1.060499029315698E-002
  7.953742719867740E-003  5.302495146578492E-003  2.651247573289244E-003
  0.000000000000000E+000  2.651247573289247E-002  2.386122815960322E-002
  2.120998058631397E-002  1.855873301302472E-002  1.590748543973548E-002
  1.325623786644623E-002  1.060499029315698E-002  7.953742719867740E-003
  5.302495146578492E-003  2.651247573289244E-003  0.000000000000000E+000
  2.651247573289247E-002  2.386122815960322E-002  2.120998058631397E-002
  1.855873301302472E-002  1.590748543973548E-002  1.325623786644623E-002
  1.060499029315698E-002  7.953742719867740E-003  5.302495146578492E-003
  2.651247573289244E-003  0.000000000000000E+000  2.651247573289247E-002
  2.386122815960322E-002  2.120998058631397E-002  1.855873301302472E-002
  1.590748543973548E-002  1.325623786644623E-002  1.060499029315698E-002
  7.953742719867740E-003  5.302495146578492E-003  2.651247573289244E-003
  0.000000000000000E+000  2.651247573289247E-002  2.386122815960322E-002
  2.120998058631397E-002  1.855873301302472E-002  1.590748543973548E-002
  1.325623786644623E-002  1.060499029315698E-002  7.953742719867740E-003
  5.302495146578492E-003  2.651247573289244E-003  0.000000000000000E+000
  2.651247573289247E-002  2.386122815960322E-002  2.120998058631397E-002
  1.855873301302472E-002  1.590748543973548E-002  1.325623786644623E-002
  1.060499029315698E-002  7.953742719867740E-003  5.302495146578492E-003
  2.651247573289244E-003  0.000000000000000E+000  2.651247573289247E-002
  2.386122815960322E-002  2.120998058631397E-002  1.855873301302472E-002
  1.590748543973548E-002  1.325623786644623E-002  1.060499029315698E-002
  7.953742719867740E-003  5.302495146578492E-003  2.651247573289244E-003
  0.000000000000000E+000  2.651247573289247E-002  2.386122815960322E-002
  2.120998058631397E-002  1.855873301302472E-002  1.590748543973548E-002
  1.325623786644623E-002  1.060499029315698E-002  7.953742719867740E-003
  5.302495146578492E-003  2.651247573289244E-003  0.000000000000000E+000
  2.651247573289247E-002  2.386122815960322E-002  2.120998058631397E-002
  1.855873301302472E-002  1.590748543973548E-002  1.325623786644623E-002
  1.060499029315698E-002  7.953742719867740E-003  5.302495146578492E-003
  2.651247573289244E-003  0.000000000000000E+000  2.651247573289247E-002
  2.386122815960322E-002  2.120998058631397E-002  1.855873301302472E-002
  1.590748543973548E-002  1.325623786644623E-002  1.060499029315698E-002
  7.953742719867740E-003  5.302495146578492E-003  2.651247573289244E-003
  0.000000000000000E+000
  4.844764674960848E-002  7.251623726344106E-002  9.501395491009343E-002
  0.118445723827399       0.143941476741729       0.172589706085777     
  0.204928908194924       0.240053413023213       0.275019876950751     
  0.305564216390202       7.351301754818412E-002  0.113069218146318     
  0.150250301808979       0.189298232743846       0.232157292260598     
  0.280720614241830       0.335669231098057       0.395388993695379     
  0.455317261752659       0.509220059935481       7.310922166855736E-002
  0.120941163715510       0.168277005056065       0.219509665275302     
  0.277168863458891       0.343911642421480       0.419778948811463     
  0.502387750696081       0.585971714381911       0.660524589130101     
  4.540439972065180E-002  8.893138199819599E-002  0.137885638660367     
  0.194172166974951       0.259380405796607       0.336861467508253     
  0.425753957208794       0.522707059733138       0.621419175714803     
  0.709947114822206       1.537782392265038E-002  4.866248274877370E-002
  9.250691381047492E-002  0.145545894660598       0.207742789535032     
  0.283060286115828       0.371700766612322       0.469544492623410     
  0.570304364953720       0.662711403682369       1.642984492381482E-002
  4.615458482978212E-002  8.482466227506386E-002  0.131466835583541     
  0.186129175619317       0.250983914208553       0.327680102458154     
  0.414132674269099       0.504643681053383       0.588244284291341     
  7.176109712690908E-002  0.119617601431616       0.165302173695479     
  0.212760099997166       0.263773016017492       0.319550893125130     
  0.380668881551653       0.446595627832464       0.514985221819502     
  0.578860766657611       0.167032839624624       0.254503674284798     
  0.323515941811581       0.384414255623148       0.441235015399557     
  0.496019679725886       0.549786898488187       0.602802644914595     
  0.654161144919865       0.699561756564984       0.275301011444421     
  0.411427023996566       0.512320274394664       0.595371631400566     
  0.667083873176902       0.730597106476140       0.787498200756399     
  0.838328854233919       0.882507512631909       0.917003327256701     
  0.384413841887459       0.570626791596075       0.705325086555269     
  0.812977270085722       0.902629635852215       0.978590008483790     
   1.04305073624382        1.09693448199805        1.13998017014373     
   1.16973380141710       0.491734827227800       0.727263375340763     
  0.895423911735748        1.02776884449989        1.13598935652970     
   1.22571189458836        1.29989298747028        1.35990832150920     
   1.40576220970410        1.43520706225652       0.598337133159462     
  0.882733563580383        1.08412587932434        1.24124106803020     
   1.36850736097758        1.47291126429592        1.55818561031846     
   1.62619181302130        1.67721558060424        1.70904488165719     
  0.706114453024103        1.03981637673532        1.27476376590259     
   1.45698049917126        1.60369734153268        1.72332849321270     
   1.82044286396162        1.89741564699489        1.95481003298302     
   1.99038288471430       0.816454337642909        1.20040724139469     
   1.46942244709445        1.67706221121739        1.84347163243967     
   1.97855871252834        2.08776497882274        2.17400482786236     
   2.23814488842555        2.27793633093044       0.930076534012462     
   1.36544638143685        1.66907090931625        1.90232439551786     
   2.08838643584646        2.23874824748385        2.35980414504029     
   2.45506988672562        2.52577102757961        2.56971730950475     
   1.04883408443391        1.53736057013455        1.87624697270500     
   2.13512705778100        2.34043907252305        2.50540555094450     
   2.63750007722142        2.74096043796212        2.81748390427522     
   2.86507881597254        1.18103170019198        1.72697680560908     
   2.10256347047674        2.38704400565464        2.61078799211601     
   2.78913666646410        2.93087346874564        3.04112932223511     
   3.12224438810399        3.17263113396798        1.35541843722821     
   1.96933083638754        2.38426560156275        2.69431568383992     
   2.93572297291295        3.12657769495390        3.27718204985260     
   3.39366540317101        3.47908292740142        3.53227967954064     
   1.58597776039344        2.28157507449148        2.73913256582186     
   3.07427807559009        3.33150133638763        3.53256328765810     
   3.68980724369434        3.81066411092575        3.89904244526709     
   3.95429690960045        1.74543463704914        2.49387214119820     
   2.97512036746466        3.31966761391607        3.57846779431233     
   3.77705175720806        3.92993170567787        4.04574866240943     
   4.12917439434050        4.18046708418949        1.78064260507812     
   2.52432470784125        2.99057275769332        3.31704367128513     
   3.55778710175967        3.73976547650209        3.87804247118349     
   3.98132942559092        4.05424413302864        4.09764831730766     
   1.67927073500306        2.35128108861994        2.75847259343392     
   3.03686264708054        3.23891722475755        3.39002090608866     
   3.50379364361390        3.58771936730524        3.64544310096335     
   3.67760263699105        1.45686113075634        1.99481309772665     
   2.30847590496106        2.51976123074577        2.67220912025467     
   2.78590761903880        2.87137107119245        2.93431584295022     
   2.97763630460412        3.00214774361468        1.11551389882248     
   1.47929437997337        1.68856280633467        1.82987218972375     
   1.93220066752715        2.00876740680207        2.06654595418402     
   2.10948440475705        2.14014439926595        2.16222377593055     
  0.678421712193597       0.882155419001135        1.00047339124816     
   1.08082583796721        1.13922043178752        1.18301846840745     
   1.21612432719966        1.24072865254445        1.25802960045156     
   1.26836042112941     
  0.000000000000000E+000  0.000000000000000E+000  0.000000000000000E+000
  0.000000000000000E+000  0.000000000000000E+000  0.000000000000000E+000
  0.000000000000000E+000  0.000000000000000E+000  0.000000000000000E+000
  0.000000000000000E+000  0.000000000000000E+000  0.000000000000000E+000
  0.000000000000000E+000  0.000000000000000E+000  0.000000000000000E+000
  0.000000000000000E+000  0.000000000000000E+000  0.000000000000000E+000
  0.000000000000000E+000  0.000000000000000E+000  0.000000000000000E+000
  0.000000000000000E+000  0.000000000000000E+000  0.000000000000000E+000
  0.000000000000000E+000  0.000000000000000E+000  0.000000000000000E+000
  0.000000000000000E+000  0.000000000000000E+000  0.000000000000000E+000
  0.000000000000000E+000  0.000000000000000E+000  0.000000000000000E+000
  0.000000000000000E+000  0.000000000000000E+000  0.000000000000000E+000
  0.000000000000000E+000  0.000000000000000E+000  0.000000000000000E+000
  0.000000000000000E+000  0.000000000000000E+000  0.000000000000000E+000
  0.000000000000000E+000  0.000000000000000E+000  0.000000000000000E+000
  0.000000000000000E+000  0.000000000000000E+000  0.000000000000000E+000
  0.000000000000000E+000  0.000000000000000E+000  0.000000000000000E+000
  0.000000000000000E+000  0.000000000000000E+000  0.000000000000000E+000
  0.000000000000000E+000  0.000000000000000E+000  0.000000000000000E+000
  0.000000000000000E+000  0.000000000000000E+000  0.000000000000000E+000
  0.000000000000000E+000  0.000000000000000E+000  0.000000000000000E+000
  0.000000000000000E+000  0.000000000000000E+000  0.000000000000000E+000
  0.000000000000000E+000  0.000000000000000E+000  0.000000000000000E+000
  0.000000000000000E+000  0.000000000000000E+000  0.000000000000000E+000
  0.000000000000000E+000  0.000000000000000E+000  0.000000000000000E+000
  0.000000000000000E+000  0.000000000000000E+000  0.000000000000000E+000
  0.000000000000000E+000  0.000000000000000E+000  0.000000000000000E+000
  0.000000000000000E+000  0.000000000000000E+000  0.000000000000000E+000
  0.000000000000000E+000  0.000000000000000E+000  0.000000000000000E+000
  0.000000000000000E+000  0.000000000000000E+000  0.000000000000000E+000
  0.000000000000000E+000  0.000000000000000E+000  0.000000000000000E+000
  0.000000000000000E+000  0.000000000000000E+000  0.000000000000000E+000
  0.000000000000000E+000  0.000000000000000E+000  0.000000000000000E+000
  0.000000000000000E+000  0.000000000000000E+000  0.000000000000000E+000
  0.000000000000000E+000  0.000000000000000E+000  0.000000000000000E+000
  0.000000000000000E+000  0.000000000000000E+000  0.000000000000000E+000
  0.000000000000000E+000  0.000000000000000E+000  0.000000000000000E+000
  0.000000000000000E+000  0.000000000000000E+000  0.000000000000000E+000
  0.000000000000000E+000  0.000000000000000E+000  0.000000000000000E+000