 Title = "Wing and Wake"
 VARIABLES = "X" "Y" "Z" "GAM" "skew"
 Zone I=   11 J=   26 K=1  T="Blade"
 DATAPACKING=BLOCK
 VARLOCATION=([4]=CELLCENTERED,[5]=CELLCENTERED)
 -0.251260561352837      -0.234143329091533      -0.217026096830228     
 -0.199908864568924      -0.182791632307620      -0.165674400046316     
 -0.148557167785012      -0.131439935523707      -0.114322703262403     
 -9.720547100109948E-002 -8.008823873979527E-002 -0.252838981725946     
 -0.235721749464642      -0.218604517203337      -0.201487284942033     
 -0.184370052680729      -0.167252820419425      -0.150135588158120     
 -0.133018355896817      -0.115901123635512      -9.878389137420843E-002
 -8.166665911290402E-002 -0.257549350213085      -0.240432117951781     
 -0.223314885690477      -0.206197653429172      -0.189080421167869     
 -0.171963188906564      -0.154845956645260      -0.137728724383956     
 -0.120611492122652      -0.103494259861348      -8.637702760004368E-002
 -0.265317381489376      -0.248200149228072      -0.231082916966767     
 -0.213965684705463      -0.196848452444159      -0.179731220182855     
 -0.162613987921551      -0.145496755660247      -0.128379523398943     
 -0.111262291137639      -9.414505887633447E-002 -0.276020569061193     
 -0.258903336799889      -0.241786104538585      -0.224668872277281     
 -0.207551640015977      -0.190434407754672      -0.173317175493369     
 -0.156199943232064      -0.139082710970760      -0.121965478709456     
 -0.104848246448152      -0.289490117266756      -0.272372885005452     
 -0.255255652744148      -0.238138420482844      -0.221021188221540     
 -0.203903955960236      -0.186786723698931      -0.169669491437627     
 -0.152552259176323      -0.135435026915019      -0.118317794653714     
 -0.305513603284544      -0.288396371023240      -0.271279138761936     
 -0.254161906500632      -0.237044674239327      -0.219927441978023     
 -0.202810209716719      -0.185692977455415      -0.168575745194111     
 -0.151458512932807      -0.134341280671502      -0.323838327168090     
 -0.306721094906786      -0.289603862645482      -0.272486630384177     
 -0.255369398122874      -0.238252165861570      -0.221134933600265     
 -0.204017701338961      -0.186900469077657      -0.169783236816353     
 -0.152666004555049      -0.344175297075091      -0.327058064813788     
 -0.309940832552483      -0.292823600291179      -0.275706368029874     
 -0.258589135768570      -0.241471903507267      -0.224354671245962     
 -0.207237438984658      -0.190120206723354      -0.173002974462050     
 -0.366203786841397      -0.349086554580093      -0.331969322318789     
 -0.314852090057485      -0.297734857796181      -0.280617625534877     
 -0.263500393273572      -0.246383161012269      -0.229265928750964     
 -0.212148696489660      -0.195031464228356      -0.389576394024213     
 -0.372459161762908      -0.355341929501604      -0.338224697240299     
 -0.321107464978995      -0.303990232717691      -0.286873000456387     
 -0.269755768195083      -0.252638535933779      -0.235521303672475     
 -0.218404071411170      -0.413924518646143      -0.396807286384838     
 -0.379690054123534      -0.362572821862230      -0.345455589600926     
 -0.328338357339623      -0.311221125078316      -0.294103892817013     
 -0.276986660555710      -0.259869428294405      -0.242752196033101     
 -0.438864176237037      -0.421746943975734      -0.404629711714428     
 -0.387512479453126      -0.370395247191820      -0.353278014930517     
 -0.336160782669212      -0.319043550407908      -0.301926318146604     
 -0.284809085885301      -0.267691853623996      -0.464002053498458     
 -0.446884821237154      -0.429767588975850      -0.412650356714546     
 -0.395533124453242      -0.378415892191938      -0.361298659930633     
 -0.344181427669330      -0.327064195408025      -0.309946963146720     
 -0.292829730885417      -0.488941711089354      -0.471824478828050     
 -0.454707246566746      -0.437590014305441      -0.420472782044138     
 -0.403355549782834      -0.386238317521528      -0.369121085260225     
 -0.352003852998921      -0.334886620737617      -0.317769388476312     
 -0.513289835711284      -0.496172603449980      -0.479055371188676     
 -0.461938138927371      -0.444820906666068      -0.427703674404764     
 -0.410586442143460      -0.393469209882155      -0.376351977620851     
 -0.359234745359547      -0.342117513098243      -0.536662442894098     
 -0.519545210632794      -0.502427978371490      -0.485310746110187     
 -0.468193513848883      -0.451076281587578      -0.433959049326273     
 -0.416841817064970      -0.399724584803665      -0.382607352542362     
 -0.365490120281058      -0.558690932660404      -0.541573700399099     
 -0.524456468137796      -0.507339235876493      -0.490222003615188     
 -0.473104771353884      -0.455987539092579      -0.438870306831276     
 -0.421753074569971      -0.404635842308666      -0.387518610047363     
 -0.579027902567406      -0.561910670306102      -0.544793438044796     
 -0.527676205783493      -0.510558973522190      -0.493441741260884     
 -0.476324508999579      -0.459207276738277      -0.442090044476973     
 -0.424972812215668      -0.407855579954364      -0.597352626450953     
 -0.580235394189647      -0.563118161928343      -0.546000929667040     
 -0.528883697405735      -0.511766465144430      -0.494649232883127     
 -0.477532000621823      -0.460414768360519      -0.443297536099215     
 -0.426180303837911      -0.613376112468739      -0.596258880207435     
 -0.579141647946131      -0.562024415684828      -0.544907183423523     
 -0.527789951162217      -0.510672718900916      -0.493555486639611     
 -0.476438254378307      -0.459321022117002      -0.442203789855698     
 -0.626845660674302      -0.609728428412999      -0.592611196151694     
 -0.575493963890389      -0.558376731629087      -0.541259499367781     
 -0.524142267106477      -0.507025034845173      -0.489907802583868     
 -0.472790570322565      -0.455673338061261      -0.637548848246122     
 -0.620431615984815      -0.603314383723512      -0.586197151462207     
 -0.569079919200903      -0.551962686939599      -0.534845454678294     
 -0.517728222416991      -0.500610990155686      -0.483493757894383     
 -0.466376525633078      -0.645316879522413      -0.628199647261108     
 -0.611082414999803      -0.593965182738499      -0.576847950477195     
 -0.559730718215889      -0.542613485954586      -0.525496253693282     
 -0.508379021431978      -0.491261789170673      -0.474144556909368     
 -0.650027248009550      -0.632910015748246      -0.615792783486941     
 -0.598675551225637      -0.581558318964333      -0.564441086703030     
 -0.547323854441725      -0.530206622180420      -0.513089389919117     
 -0.495972157657814      -0.478854925396509      -0.651605668382658     
 -0.634488436121356      -0.617371203860050      -0.600253971598747     
 -0.583136739337441      -0.566019507076138      -0.548902274814833     
 -0.531785042553529      -0.514667810292227      -0.497550578030921     
 -0.480433345769618     
  9.359613502051847E-002  0.101525431711757       0.109454728402996     
  0.117384025094235       0.125313321785474       0.133242618476713     
  0.141171915167951       0.149101211859190       0.157030508550429     
  0.164959805241668       0.172889101932907       9.700352273528665E-002
  0.104932819426525       0.112862116117764       0.120791412809003     
  0.128720709500242       0.136650006191480       0.144579302882719     
  0.152508599573958       0.160437896265197       0.168367192956436     
  0.176296489647675       0.107171949339853       0.115101246031092     
  0.123030542722331       0.130959839413570       0.138889136104809     
  0.146818432796047       0.154747729487286       0.162677026178525     
  0.170606322869764       0.178535619561002       0.186464916252241     
  0.123941052672342       0.131870349363581       0.139799646054820     
  0.147728942746058       0.155658239437297       0.163587536128536     
  0.171516832819775       0.179446129511014       0.187375426202252     
  0.195304722893491       0.203234019584730       0.147046373955822     
  0.154975670647060       0.162904967338299       0.170834264029538     
  0.178763560720777       0.186692857412016       0.194622154103254     
  0.202551450794493       0.210480747485732       0.218410044176971     
  0.226339340868210       0.176123528471202       0.184052825162441     
  0.191982121853679       0.199911418544918       0.207840715236157     
  0.215770011927396       0.223699308618635       0.231628605309874     
  0.239557902001112       0.247487198692351       0.255416495383591     
  0.210713952121926       0.218643248813165       0.226572545504404     
  0.234501842195643       0.242431138886881       0.250360435578120     
  0.258289732269358       0.266219028960598       0.274148325651837     
  0.282077622343075       0.290006919034314       0.250272133263703     
  0.258201429954942       0.266130726646182       0.274060023337420     
  0.281989320028659       0.289918616719898       0.297847913411137     
  0.305777210102376       0.313706506793614       0.321635803484854     
  0.329565100176093       0.294174215749017       0.302103512440257     
  0.310032809131495       0.317962105822734       0.325891402513973     
  0.333820699205212       0.341749995896450       0.349679292587690     
  0.357608589278928       0.365537885970167       0.373467182661406     
  0.341727837511241       0.349657134202479       0.357586430893719     
  0.365515727584957       0.373445024276196       0.381374320967435     
  0.389303617658674       0.397232914349913       0.405162211041151     
  0.413091507732390       0.421020804423629       0.392183049528028     
  0.400112346219268       0.408041642910505       0.415970939601744     
  0.423900236292983       0.431829532984221       0.439758829675461     
  0.447688126366700       0.455617423057939       0.463546719749177     
  0.471476016440416       0.444744142965389       0.452673439656627     
  0.460602736347867       0.468532033039105       0.476461329730345     
  0.484390626421584       0.492319923112821       0.500249219804060     
  0.508178516495300       0.516107813186539       0.524037109877777     
  0.498582197981344       0.506511494672583       0.514440791363822     
  0.522370088055061       0.530299384746298       0.538228681437538     
  0.546157978128777       0.554087274820015       0.562016571511254     
  0.569945868202493       0.577875164893732       0.552848156286996     
  0.560777452978234       0.568706749669472       0.576636046360711     
  0.584565343051950       0.592494639743189       0.600423936434426     
  0.608353233125665       0.616282529816905       0.624211826508144     
  0.632141123199383       0.606686211302949       0.614615507994189     
  0.622544804685427       0.630474101376667       0.638403398067905     
  0.646332694759143       0.654261991450383       0.662191288141620     
  0.670120584832861       0.678049881524100       0.685979178215339     
  0.659247304740309       0.667176601431550       0.675105898122788     
  0.683035194814028       0.690964491505268       0.698893788196505     
  0.706823084887744       0.714752381578983       0.722681678270219     
  0.730610974961461       0.738540271652700       0.709702516757099     
  0.717631813448335       0.725561110139576       0.733490406830815     
  0.741419703522053       0.749349000213290       0.757278296904529     
  0.765207593595769       0.773136890287007       0.781066186978247     
  0.788995483669486       0.757256138519320       0.765185435210560     
  0.773114731901797       0.781044028593039       0.788973325284276     
  0.796902621975515       0.804831918666754       0.812761215357993     
  0.820690512049231       0.828619808740470       0.836549105431708     
  0.801158221004636       0.809087517695873       0.817016814387112     
  0.824946111078351       0.832875407769589       0.840804704460828     
  0.848734001152066       0.856663297843307       0.864592594534547     
  0.872521891225783       0.880451187917022       0.840716402146413     
  0.848645698837651       0.856574995528888       0.864504292220129     
  0.872433588911367       0.880362885602606       0.888292182293846     
  0.896221478985085       0.904150775676325       0.912080072367561     
  0.920009369058800       0.875306825797136       0.883236122488376     
  0.891165419179612       0.899094715870854       0.907024012562092     
  0.914953309253330       0.922882605944571       0.930811902635808     
  0.938741199327047       0.946670496018286       0.954599792709523     
  0.904383980312517       0.912313277003756       0.920242573694995     
  0.928171870386234       0.936101167077472       0.944030463768710     
  0.951959760459949       0.959889057151188       0.967818353842426     
  0.975747650533666       0.983676947224908       0.927489301595997     
  0.935418598287237       0.943347894978477       0.951277191669711     
  0.959206488360952       0.967135785052191       0.975065081743427     
  0.982994378434668       0.990923675125907       0.998852971817149     
   1.00678226850838       0.944258404928487       0.952187701619723     
  0.960116998310964       0.968046295002202       0.975975591693442     
  0.983904888384680       0.991834185075918       0.999763481767158     
   1.00769277845840        1.01562207514963        1.02355137184087     
  0.954426831533054       0.962356128224291       0.970285424915527     
  0.978214721606768       0.986144018298009       0.994073314989245     
   1.00200261168048        1.00993190837172        1.01786120506296     
   1.02579050175420        1.03371979844544       0.957834219247822     
  0.965763515939059       0.973692812630297       0.981622109321537     
  0.989551406012775       0.997480702704011        1.00540999939525     
   1.01333929608649        1.02126859277773        1.02919788946897     
   1.03712718616021     
  2.651247573289247E-002  2.386122815960322E-002  2.120998058631397E-002
  1.855873301302472E-002  1.590748543973548E-002  1.325623786644623E-002
  1.060499029315698E-002  7.953742719867740E-003  5.302495146578492E-003
  2.651247573289244E-003  0.000000000000000E+000  2.651247573289247E-002
  2.386122815960322E-002  2.120998058631397E-002  1.855873301302472E-002
  1.590748543973548E-002  1.325623786644623E-002  1.060499029315698E-002
  7.953742719867740E-003  5.302495146578492E-003  2.651247573289244E-003
  0.000000000000000E+000  2.651247573289247E-002  2.386122815960322E-002
  2.120998058631397E-002  1.855873301302472E-002  1.590748543973548E-002
  1.325623786644623E-002  1.060499029315698E-002  7.953742719867740E-003
  5.302495146578492E-003  2.651247573289244E-003  0.000000000000000E+000
  2.651247573289247E-002  2.386122815960322E-002  2.120998058631397E-002
  1.855873301302472E-002  1.590748543973548E-002  1.325623786644623E-002
  1.060499029315698E-002  7.953742719867740E-003  5.302495146578492E-003
  2.651247573289244E-003  0.000000000000000E+000  2.651247573289247E-002
  2.386122815960322E-002  2.120998058631397E-002  1.855873301302472E-002
  1.590748543973548E-002  1.325623786644623E-002  1.060499029315698E-002
  7.953742719867740E-003  5.302495146578492E-003  2.651247573289244E-003
  0.000000000000000E+000  2.651247573289247E-002  2.386122815960322E-002
  2.120998058631397E-002  1.855873301302472E-002  1.590748543973548E-002
  1.325623786644623E-002  1.060499029315698E-002  7.953742719867740E-003
  5.302495146578492E-003  2.651247573289244E-003  0.000000000000000E+000
  2.651247573289247E-002  2.386122815960322E-002  2.120998058631397E-002
  1.855873301302472E-002  1.590748543973548E-002  1.325623786644623E-002
  1.060499029315698E-002  7.953742719867740E-003  5.302495146578492E-003
  2.651247573289244E-003  0.000000000000000E+000  2.651247573289247E-002
  2.386122815960322E-002  2.120998058631397E-002  1.855873301302472E-002
  1.590748543973548E-002  1.325623786644623E-002  1.060499029315698E-002
  7.953742719867740E-003  5.302495146578492E-003  2.651247573289244E-003
  0.000000000000000E+000  2.651247573289247E-002  2.386122815960322E-002
  2.120998058631397E-002  1.855873301302472E-002  1.590748543973548E-002
  1.325623786644623E-002  1.060499029315698E-002  7.953742719867740E-003
  5.302495146578492E-003  2.651247573289244E-003  0.000000000000000E+000
  2.651247573289247E-002  2.386122815960322E-002  2.120998058631397E-002
  1.855873301302472E-002  1.590748543973548E-002  1.325623786644623E-002
  1.060499029315698E-002  7.953742719867740E-003  5.302495146578492E-003
  2.651247573289244E-003  0.000000000000000E+000  2.651247573289247E-002
  2.386122815960322E-002  2.120998058631397E-002  1.855873301302472E-002
  1.590748543973548E-002  1.325623786644623E-002  1.060499029315698E-002
  7.953742719867740E-003  5.302495146578492E-003  2.651247573289244E-003
  0.000000000000000E+000  2.651247573289247E-002  2.386122815960322E-002
  2.120998058631397E-002  1.855873301302472E-002  1.590748543973548E-002
  1.325623786644623E-002  1.060499029315698E-002  7.953742719867740E-003
  5.302495146578492E-003  2.651247573289244E-003  0.000000000000000E+000
  2.651247573289247E-002  2.386122815960322E-002  2.120998058631397E-002
  1.855873301302472E-002  1.590748543973548E-002  1.325623786644623E-002
  1.060499029315698E-002  7.953742719867740E-003  5.302495146578492E-003
  2.651247573289244E-003  0.000000000000000E+000  2.651247573289247E-002
  2.386122815960322E-002  2.120998058631397E-002  1.855873301302472E-002
  1.590748543973548E-002  1.325623786644623E-002  1.060499029315698E-002
  7.953742719867740E-003  5.302495146578492E-003  2.651247573289244E-003
  0.000000000000000E+000  2.651247573289247E-002  2.386122815960322E-002
  2.120998058631397E-002  1.855873301302472E-002  1.590748543973548E-002
  1.325623786644623E-002  1.060499029315698E-002  7.953742719867740E-003
  5.302495146578492E-003  2.651247573289244E-003  0.000000000000000E+000
  2.651247573289247E-002  2.386122815960322E-002  2.120998058631397E-002
  1.855873301302472E-002  1.590748543973548E-002  1.325623786644623E-002
  1.060499029315698E-002  7.953742719867740E-003  5.302495146578492E-003
  2.651247573289244E-003  0.000000000000000E+000  2.651247573289247E-002
  2.386122815960322E-002  2.120998058631397E-002  1.855873301302472E-002
  1.590748543973548E-002  1.325623786644623E-002  1.060499029315698E-002
  7.953742719867740E-003  5.302495146578492E-003  2.651247573289244E-003
  0.000000000000000E+000  2.651247573289247E-002  2.386122815960322E-002
  2.120998058631397E-002  1.855873301302472E-002  1.590748543973548E-002
  1.325623786644623E-002  1.060499029315698E-002  7.953742719867740E-003
  5.302495146578492E-003  2.651247573289244E-003  0.000000000000000E+000
  2.651247573289247E-002  2.386122815960322E-002  2.120998058631397E-002
  1.855873301302472E-002  1.590748543973548E-002  1.325623786644623E-002
  1.060499029315698E-002  7.953742719867740E-003  5.302495146578492E-003
  2.651247573289244E-003  0.000000000000000E+000  2.651247573289247E-002
  2.386122815960322E-002  2.120998058631397E-002  1.855873301302472E-002
  1.590748543973548E-002  1.325623786644623E-002  1.060499029315698E-002
  7.953742719867740E-003  5.302495146578492E-003  2.651247573289244E-003
  0.000000000000000E+000  2.651247573289247E-002  2.386122815960322E-002
  2.120998058631397E-002  1.855873301302472E-002  1.590748543973548E-002
  1.325623786644623E-002  1.060499029315698E-002  7.953742719867740E-003
  5.302495146578492E-003  2.651247573289244E-003  0.000000000000000E+000
  2.651247573289247E-002  2.386122815960322E-002  2.120998058631397E-002
  1.855873301302472E-002  1.590748543973548E-002  1.325623786644623E-002
  1.060499029315698E-002  7.953742719867740E-003  5.302495146578492E-003
  2.651247573289244E-003  0.000000000000000E+000  2.651247573289247E-002
  2.386122815960322E-002  2.120998058631397E-002  1.855873301302472E-002
  1.590748543973548E-002  1.325623786644623E-002  1.060499029315698E-002
  7.953742719867740E-003  5.302495146578492E-003  2.651247573289244E-003
  0.000000000000000E+000  2.651247573289247E-002  2.386122815960322E-002
  2.120998058631397E-002  1.855873301302472E-002  1.590748543973548E-002
  1.325623786644623E-002  1.060499029315698E-002  7.953742719867740E-003
  5.302495146578492E-003  2.651247573289244E-003  0.000000000000000E+000
  2.651247573289247E-002  2.386122815960322E-002  2.120998058631397E-002
  1.855873301302472E-002  1.590748543973548E-002  1.325623786644623E-002
  1.060499029315698E-002  7.953742719867740E-003  5.302495146578492E-003
  2.651247573289244E-003  0.000000000000000E+000  2.651247573289247E-002
  2.386122815960322E-002  2.120998058631397E-002  1.855873301302472E-002
  1.590748543973548E-002  1.325623786644623E-002  1.060499029315698E-002
  7.953742719867740E-003  5.302495146578492E-003  2.651247573289244E-003
  0.000000000000000E+000
 -1.151288798449967E-002 -8.686297817668441E-004  1.598647583266319E-002
  3.548171673598710E-002  5.500348760435289E-002  7.297044841335580E-002
  8.858238890561121E-002  0.101071774867529       0.110573982633601     
  0.117866777957242      -1.716537010907775E-002 -7.787792754206008E-004
  2.596523469318727E-002  5.724213333983834E-002  8.895931615418319E-002
  0.118347126366643       0.144227741351336       0.165268975238432     
  0.181739765151549       0.194917592567499      -1.558025692835135E-002
  3.704317844127426E-003  3.536112242357371E-002  7.274374274980926E-002
  0.111344846982944       0.148092460074640       0.181183138873582     
  0.209256846837621       0.232536055689099       0.250843172101084     
 -3.523691428717810E-003  1.903803468823113E-002  5.177254524443160E-002
  8.930853971024555E-002  0.128267931783484       0.166442402856826     
  0.201647757363304       0.232705557996399       0.259944901157633     
  0.281994119953756       2.096187472618300E-002  5.088183374447934E-002
  8.587542895721809E-002  0.123430097982077       0.161667235556935     
  0.199084030936133       0.234338845171845       0.266621577385895     
  0.295731360107316       0.320109572001156       5.956165550927351E-002
  0.103661515716595       0.145890592993039       0.187349692314659     
  0.227969871373838       0.267315213406659       0.304767046131267     
  0.339719507584125       0.371580033775049       0.398459516680360     
  0.112890026979073       0.179192666656952       0.235107145113650     
  0.285915326187311       0.333335131432770       0.378025999861267     
  0.420095995609840       0.459228295723847       0.494655644557054     
  0.524109603282797       0.179738151596353       0.275537389183230     
  0.350902968575568       0.415880782328874       0.474009879547614     
  0.526911344788024       0.575401725362942       0.619551040930011     
  0.658666365936915       0.690338757147992       0.258221081450483     
  0.389277757347252       0.488272100453556       0.570705077748558     
  0.642210186764737       0.705444613060770       0.761721764623127     
  0.811489214099618       0.854368735326536       0.888024106687316     
  0.347211470049088       0.518543179789804       0.644675651296394     
  0.747198551625724       0.834042556188273       0.908997273490825     
  0.974046127571941        1.03009269900353        1.07703381714160     
   1.11260695745265       0.445573416588060       0.661540328416190     
  0.817778083982344       0.942588136414872        1.04646340632647     
   1.13447857726072        1.20935837337588        1.27246765118167     
   1.32395952091129        1.36161519638506       0.551909565972654     
  0.816189989844331        1.00504595548885        1.15402910116345     
   1.27640902286771        1.37866269900275        1.46432157753794     
   1.53524082406114        1.59183578366604        1.63188376656338     
  0.664712668834404       0.980227629651115        1.20366544453920     
   1.37827967868437        1.52029921068865        1.63769837931962     
   1.73486790954715        1.81417138013064        1.87628652567468     
   1.91896974564034       0.782366981110707        1.15119256854991     
   1.41052905411240        1.61168810183815        1.77400308958229     
   1.90702659410722        2.01605624385414        2.10399383748557     
   2.17179799028707        2.21722766514993       0.903508890797778     
   1.32699640732021        1.62295239937991        1.85101814659925     
   2.03374797525479        2.18235277468769        2.30310853249217     
   2.39951693986302        2.47286931852331        2.52098850344612     
   1.02876059074803        1.50832058404781        1.84142075034471     
   2.09637631141587        2.29914594553679        2.46273276196065     
   2.59450893880084        2.69868784840059        2.77700808928757     
   2.82748381700031        1.16648752780002        1.70611156563692     
   2.07770962855574        2.35954004987898        2.58160779242728     
   2.75908021734256        2.90064977040528        3.01140946994172     
   3.09370277963690        3.14592351114866        1.34935932188949     
   1.96033024548770        2.37340562256955        2.68244760886483     
   2.92353312757671        3.11457400633033        3.26576351634797     
   3.38317907672247        3.46983677157269        3.52447338992448     
   1.59377319468226        2.29185991457584        2.75084407807977     
   3.08731682119132        3.34593633245400        3.54840474185485     
   3.70706409040775        3.82936053572071        3.91918996979784     
   3.97579769680412        1.76074883810855        2.51503900909419     
   2.99995862593668        3.34734923997262        3.60849627501705     
   3.80907039139663        3.96370932166821        4.08114275083445     
   4.16607955189050        4.21871340657540        1.80042272222447     
   2.55172253856078        3.02263457461827        3.35253614700957     
   3.59596814795566        3.78010023255631        3.92015073706273     
   4.02494280092743        4.09916598716065        4.14369713686796     
   1.69825451395963        2.37776498654412        2.78950222112178     
   3.07107152166097        3.27552687016399        3.42852258442622     
   3.54383064728737        3.62903112589416        3.68783189512128     
   3.72090040101092        1.47258247049048        2.01653878010076     
   2.33379035447422        2.54755695069749        2.70185508225998     
   2.81699648831454        2.90362086651555        2.96752362727842     
   3.01165185438382        3.03684645791457        1.12708683442277     
   1.49490299161138        1.70658318578861        1.84957216935153     
   1.95315899464380        2.03071047783129        2.08928424023820     
   2.13288293350684        2.16411039037590        2.18671845446675     
  0.685349927172291       0.891344619903181        1.01103032384814     
   1.09234200372106        1.15145845029228        1.19582317471737     
   1.22938760404121        1.25437256326662        1.27199670491567     
   1.28260253566175     
  0.000000000000000E+000  0.000000000000000E+000  0.000000000000000E+000
  0.000000000000000E+000  0.000000000000000E+000  0.000000000000000E+000
  0.000000000000000E+000  0.000000000000000E+000  0.000000000000000E+000
  0.000000000000000E+000  0.000000000000000E+000  0.000000000000000E+000
  0.000000000000000E+000  0.000000000000000E+000  0.000000000000000E+000
  0.000000000000000E+000  0.000000000000000E+000  0.000000000000000E+000
  0.000000000000000E+000  0.000000000000000E+000  0.000000000000000E+000
  0.000000000000000E+000  0.000000000000000E+000  0.000000000000000E+000
  0.000000000000000E+000  0.000000000000000E+000  0.000000000000000E+000
  0.000000000000000E+000  0.000000000000000E+000  0.000000000000000E+000
  0.000000000000000E+000  0.000000000000000E+000  0.000000000000000E+000
  0.000000000000000E+000  0.000000000000000E+000  0.000000000000000E+000
  0.000000000000000E+000  0.000000000000000E+000  0.000000000000000E+000
  0.000000000000000E+000  0.000000000000000E+000  0.000000000000000E+000
  0.000000000000000E+000  0.000000000000000E+000  0.000000000000000E+000
  0.000000000000000E+000  0.000000000000000E+000  0.000000000000000E+000
  0.000000000000000E+000  0.000000000000000E+000  0.000000000000000E+000
  0.000000000000000E+000  0.000000000000000E+000  0.000000000000000E+000
  0.000000000000000E+000  0.000000000000000E+000  0.000000000000000E+000
  0.000000000000000E+000  0.000000000000000E+000  0.000000000000000E+000
  0.000000000000000E+000  0.000000000000000E+000  0.000000000000000E+000
  0.000000000000000E+000  0.000000000000000E+000  0.000000000000000E+000
  0.000000000000000E+000  0.000000000000000E+000  0.000000000000000E+000
  0.000000000000000E+000  0.000000000000000E+000  0.000000000000000E+000
  0.000000000000000E+000  0.000000000000000E+000  0.000000000000000E+000
  0.000000000000000E+000  0.000000000000000E+000  0.000000000000000E+000
  0.000000000000000E+000  0.000000000000000E+000  0.000000000000000E+000
  0.000000000000000E+000  0.000000000000000E+000  0.000000000000000E+000
  0.000000000000000E+000  0.000000000000000E+000  0.000000000000000E+000
  0.000000000000000E+000  0.000000000000000E+000  0.000000000000000E+000
  0.000000000000000E+000  0.000000000000000E+000  0.000000000000000E+000
  0.000000000000000E+000  0.000000000000000E+000  0.000000000000000E+000
  0.000000000000000E+000  0.000000000000000E+000  0.000000000000000E+000
  0.000000000000000E+000  0.000000000000000E+000  0.000000000000000E+000
  0.000000000000000E+000  0.000000000000000E+000  0.000000000000000E+000
  0.000000000000000E+000  0.000000000000000E+000  0.000000000000000E+000
  0.000000000000000E+000  0.000000000000000E+000  0.000000000000000E+000
  0.000000000000000E+000  0.000000000000000E+000  0.000000000000000E+000
  0.000000000000000E+000  0.000000000000000E+000  0.000000000000000E+000