 Title = "Wing and Wake"
 VARIABLES = "X" "Y" "Z" "GAM" "skew"
 Zone I=   11 J=   26 K=1  T="Blade"
 DATAPACKING=BLOCK
 VARLOCATION=([4]=CELLCENTERED,[5]=CELLCENTERED)
 -0.196281745879865      -0.177432926426801      -0.158584106973736     
 -0.139735287520672      -0.120886468067608      -0.102037648614544     
 -8.318882916147946E-002 -6.434000970841522E-002 -4.549119025535105E-002
 -2.664237080228700E-002 -7.793551349222726E-003 -0.196435345215073     
 -0.177586525762010      -0.158737706308945      -0.139888886855881     
 -0.121040067402817      -0.102191247949753      -8.334242849668842E-002
 -6.449360904362425E-002 -4.564478959055993E-002 -2.679597013749588E-002
 -7.947150684431647E-003 -0.196893720867428      -0.178044901414364     
 -0.159196081961300      -0.140347262508236      -0.121498443055171     
 -0.102649623602107      -8.380080414904303E-002 -6.495198469597888E-002
 -4.610316524291475E-002 -2.725434578985037E-002 -8.405526336786245E-003
 -0.197649643979071      -0.178800824526006      -0.159952005072942     
 -0.141103185619878      -0.122254366166814      -0.103405546713750     
 -8.455672726068540E-002 -6.570790780762131E-002 -4.685908835455687E-002
 -2.801026890149286E-002 -9.161449448428727E-003 -0.198691193190964     
 -0.179842373737899      -0.160993554284835      -0.142144734831771     
 -0.123295915378707      -0.104447095925642      -8.559827647257821E-002
 -6.674945701951408E-002 -4.790063756644994E-002 -2.905181811338577E-002
 -1.020299866032156E-002 -0.200001942649844      -0.181153123196780     
 -0.162304303743716      -0.143455484290652      -0.124606664837587     
 -0.105757845384523      -8.690902593145874E-002 -6.806020647839472E-002
 -4.921138702533039E-002 -3.036256757226627E-002 -1.151374811920196E-002
 -0.201561221053742      -0.182712401600678      -0.163863582147614     
 -0.145014762694550      -0.126165943241485      -0.107317123788421     
 -8.846830433535689E-002 -6.961948488229251E-002 -5.077066542922818E-002
 -3.192184597616422E-002 -1.307302652310004E-002 -0.203344437650760     
 -0.184495618197696      -0.165646798744631      -0.146797979291567     
 -0.127949159838503      -0.109100340385439      -9.025152093237458E-002
 -7.140270147931062E-002 -5.255388202624638E-002 -3.370506257318227E-002
 -1.485624312011802E-002 -0.205323470049921      -0.186474650596857     
 -0.167625831143793      -0.148777011690729      -0.129928192237664     
 -0.111079372784600      -9.223055333153592E-002 -7.338173387847163E-002
 -5.453291442540802E-002 -3.568409497234338E-002 -1.683527551927946E-002
 -0.207467107728074      -0.188618288275010      -0.169769468821946     
 -0.150920649368882      -0.132071829915817      -0.113223010462753     
 -9.437419100968908E-002 -7.552537155662467E-002 -5.667655210356034E-002
 -3.782773265049650E-002 -1.897891319743232E-002 -0.209741544238487     
 -0.190892724785423      -0.172043905332359      -0.153195085879295     
 -0.134346266426231      -0.115497446973166      -9.664862752010200E-002
 -7.779980806703798E-002 -5.895098861397378E-002 -4.010216916090979E-002
 -2.125334970784548E-002 -0.212110910358709      -0.193262090905644     
 -0.174413271452580      -0.155564451999517      -0.136715632546452     
 -0.117866813093388      -9.901799364032345E-002 -8.016917418725963E-002
 -6.132035473419539E-002 -4.247153528113128E-002 -2.362271582806724E-002
 -0.214537839769632      -0.195689020316569      -0.176840200863504     
 -0.157991381410441      -0.139142561957376      -0.120293742504312     
 -0.101444923051247      -8.259610359818331E-002 -6.374728414511920E-002
 -4.489846469205522E-002 -2.604964523899041E-002 -0.216984058344670     
 -0.198135238891606      -0.179286419438542      -0.160437599985477     
 -0.141588780532413      -0.122739961079350      -0.103891141626285     
 -8.504232217322129E-002 -6.619350272015624E-002 -4.734468326709233E-002
 -2.849586381402837E-002 -0.219410987755594      -0.200562168302530     
 -0.181713348849466      -0.162864529396401      -0.144015709943338     
 -0.125166890490273      -0.106318071037208      -8.746925158414463E-002
 -6.862043213108027E-002 -4.977161267801645E-002 -3.092279322495168E-002
 -0.221780353875815      -0.202931534422751      -0.184082714969687     
 -0.165233895516623      -0.146385076063559      -0.127536256610495     
 -0.108687437157430      -8.983861770436641E-002 -7.098979825130211E-002
 -5.214097879823779E-002 -3.329215934517330E-002 -0.224054790386228     
 -0.205205970933164      -0.186357151480101      -0.167508332027036     
 -0.148659512573972      -0.129810693120908      -0.110961873667843     
 -9.211305421477943E-002 -7.326423476171483E-002 -5.441541530865092E-002
 -3.556659585558671E-002 -0.226198428064382      -0.207349608611317     
 -0.188500789158253      -0.169651969705189      -0.150803150252125     
 -0.131954330799060      -0.113105511345996      -9.425669189293238E-002
 -7.540787243986714E-002 -5.655905298680311E-002 -3.771023353373979E-002
 -0.228177460463542      -0.209328641010479      -0.190479821557414     
 -0.171631002104350      -0.152782182651286      -0.133933363198221     
 -0.115084543745157      -9.623572429209319E-002 -7.738690483902917E-002
 -5.853808538596524E-002 -3.968926593290106E-002 -0.229960677060561     
 -0.211111857607497      -0.192263038154433      -0.173414218701368     
 -0.154565399248304      -0.135716579795240      -0.116867760342176     
 -9.801894088911169E-002 -7.917012143604717E-002 -6.032130198298390E-002
 -4.147248252991861E-002 -0.231519955464459      -0.212671136011394     
 -0.193822316558330      -0.174973497105266      -0.156124677652201     
 -0.137275858199137      -0.118427038746074      -9.957821929300946E-002
 -8.072939983994520E-002 -6.188058038688046E-002 -4.303176093381664E-002
 -0.232830704923339      -0.213981885470275      -0.195133066017211     
 -0.176284246564147      -0.157435427111083      -0.138586607658018     
 -0.119737788204954      -0.100888968751890      -8.204014929882528E-002
 -6.319132984576181E-002 -4.434251039269666E-002 -0.233872254135233     
 -0.215023434682167      -0.196174615229103      -0.177325795776039     
 -0.158476976322976      -0.139628156869911      -0.120779337416846     
 -0.101930517963783      -8.308169851071789E-002 -6.423287905765403E-002
 -4.538405960459000E-002 -0.234628177246875      -0.215779357793810     
 -0.196930538340746      -0.178081718887682      -0.159232899434618     
 -0.140384079981553      -0.121535260528489      -0.102686441075425     
 -8.383762162236134E-002 -6.498880216929684E-002 -4.613998271623279E-002
 -0.235086552899229      -0.216237733446165      -0.197388913993101     
 -0.178540094540037      -0.159691275086972      -0.140842455633908     
 -0.121993636180844      -0.103144816727780      -8.429599727471576E-002
 -6.544717782165101E-002 -4.659835836858707E-002 -0.235240152234438     
 -0.216391332781374      -0.197542513328309      -0.178693693875246     
 -0.159844874422181      -0.140996054969117      -0.122147235516052     
 -0.103298416062988      -8.444959660992482E-002 -6.560077715685950E-002
 -4.675195770379612E-002
  0.182662482235611       0.183434098416698       0.184205714597785     
  0.184977330778872       0.185748946959959       0.186520563141046     
  0.187292179322133       0.188063795503220       0.188835411684307     
  0.189607027865394       0.190378644046482       0.186414562879363     
  0.187186179060450       0.187957795241537       0.188729411422624     
  0.189501027603711       0.190272643784798       0.191044259965885     
  0.191815876146973       0.192587492328059       0.193359108509147     
  0.194130724690234       0.197611632257482       0.198383248438570     
  0.199154864619657       0.199926480800744       0.200698096981831     
  0.201469713162918       0.202241329344005       0.203012945525092     
  0.203784561706179       0.204556177887266       0.205327794068354     
  0.216077105897073       0.216848722078160       0.217620338259247     
  0.218391954440334       0.219163570621421       0.219935186802508     
  0.220706802983595       0.221478419164682       0.222250035345769     
  0.223021651526857       0.223793267707944       0.241519772248097     
  0.242291388429184       0.243063004610271       0.243834620791358     
  0.244606236972446       0.245377853153533       0.246149469334620     
  0.246921085515707       0.247692701696794       0.248464317877881     
  0.249235934058968       0.273538385263488       0.274310001444575     
  0.275081617625662       0.275853233806749       0.276624849987836     
  0.277396466168923       0.278168082350010       0.278939698531098     
  0.279711314712184       0.280482930893271       0.281254547074359     
  0.311627992289001       0.312399608470087       0.313171224651175     
  0.313942840832261       0.314714457013349       0.315486073194436     
  0.316257689375523       0.317029305556610       0.317800921737697     
  0.318572537918784       0.319344154099871       0.355187897468213     
  0.355959513649301       0.356731129830388       0.357502746011474     
  0.358274362192562       0.359045978373649       0.359817594554736     
  0.360589210735823       0.361360826916910       0.362132443097998     
  0.362904059279085       0.403531135075025       0.404302751256113     
  0.405074367437200       0.405845983618287       0.406617599799374     
  0.407389215980461       0.408160832161548       0.408932448342635     
  0.409704064523722       0.410475680704809       0.411247296885896     
  0.455895303373526       0.456666919554613       0.457438535735701     
  0.458210151916787       0.458981768097874       0.459753384278962     
  0.460525000460048       0.461296616641136       0.462068232822223     
  0.462839849003310       0.463611465184397       0.511454588148811     
  0.512226204329898       0.512997820510984       0.513769436692071     
  0.514541052873159       0.515312669054246       0.516084285235333     
  0.516855901416420       0.517627517597507       0.518399133778594     
  0.519170749959681       0.569332786290465       0.570104402471551     
  0.570876018652638       0.571647634833725       0.572419251014812     
  0.573190867195900       0.573962483376987       0.574734099558074     
  0.575505715739160       0.576277331920248       0.577048948101336     
  0.628617124039034       0.629388740220120       0.630160356401208     
  0.630931972582295       0.631703588763382       0.632475204944470     
  0.633246821125556       0.634018437306643       0.634790053487730     
  0.635561669668818       0.636333285849905       0.688372651973478     
  0.689144268154565       0.689915884335651       0.690687500516738     
  0.691459116697826       0.692230732878913       0.693002349060000     
  0.693773965241086       0.694545581422174       0.695317197603261     
  0.696088813784348       0.747656989722047       0.748428605903135     
  0.749200222084221       0.749971838265309       0.750743454446395     
  0.751515070627482       0.752286686808569       0.753058302989655     
  0.753829919170744       0.754601535351831       0.755373151532919     
  0.805535187863700       0.806306804044787       0.807078420225875     
  0.807850036406962       0.808621652588049       0.809393268769136     
  0.810164884950223       0.810936501131310       0.811708117312396     
  0.812479733493485       0.813251349674572       0.861094472638986     
  0.861866088820072       0.862637705001159       0.863409321182247     
  0.864180937363333       0.864952553544420       0.865724169725507     
  0.866495785906595       0.867267402087681       0.868039018268769     
  0.868810634449856       0.913458640937485       0.914230257118572     
  0.915001873299660       0.915773489480747       0.916545105661834     
  0.917316721842921       0.918088338024008       0.918859954205096     
  0.919631570386183       0.920403186567269       0.921174802748356     
  0.961801878544298       0.962573494725385       0.963345110906472     
  0.964116727087559       0.964888343268646       0.965659959449733     
  0.966431575630820       0.967203191811907       0.967974807992995     
  0.968746424174081       0.969518040355168        1.00536178372351     
   1.00613339990460        1.00690501608568        1.00767663226677     
   1.00844824844786        1.00921986462895        1.00999148081003     
   1.01076309699112        1.01153471317221        1.01230632935329     
   1.01307794553438        1.04345139074902        1.04422300693011     
   1.04499462311120        1.04576623929228        1.04653785547337     
   1.04730947165446        1.04808108783555        1.04885270401663     
   1.04962432019772        1.05039593637881        1.05116755255989     
   1.07547000376441        1.07624161994550        1.07701323612659     
   1.07778485230768        1.07855646848876        1.07932808466985     
   1.08009970085094        1.08087131703202        1.08164293321311     
   1.08241454939420        1.08318616557529        1.10091267011544     
   1.10168428629652        1.10245590247761        1.10322751865870     
   1.10399913483979        1.10477075102087        1.10554236720196     
   1.10631398338305        1.10708559956413        1.10785721574522     
   1.10862883192631        1.11937814375503        1.12014975993611     
   1.12092137611720        1.12169299229829        1.12246460847938     
   1.12323622466046        1.12400784084155        1.12477945702264     
   1.12555107320373        1.12632268938481        1.12709430556590     
   1.13057521313315        1.13134682931423        1.13211844549532     
   1.13289006167641        1.13366167785750        1.13443329403858     
   1.13520491021967        1.13597652640076        1.13674814258185     
   1.13751975876293        1.13829137494402        1.13432729377690     
   1.13509890995799        1.13587052613908        1.13664214232016     
   1.13741375850125        1.13818537468234        1.13895699086342     
   1.13972860704451        1.14050022322560        1.14127183940668     
   1.14204345558777     
  2.651247573289247E-002  2.386122815960322E-002  2.120998058631397E-002
  1.855873301302472E-002  1.590748543973548E-002  1.325623786644623E-002
  1.060499029315698E-002  7.953742719867740E-003  5.302495146578492E-003
  2.651247573289244E-003  0.000000000000000E+000  2.651247573289247E-002
  2.386122815960322E-002  2.120998058631397E-002  1.855873301302472E-002
  1.590748543973548E-002  1.325623786644623E-002  1.060499029315698E-002
  7.953742719867740E-003  5.302495146578492E-003  2.651247573289244E-003
  0.000000000000000E+000  2.651247573289247E-002  2.386122815960322E-002
  2.120998058631397E-002  1.855873301302472E-002  1.590748543973548E-002
  1.325623786644623E-002  1.060499029315698E-002  7.953742719867740E-003
  5.302495146578492E-003  2.651247573289244E-003  0.000000000000000E+000
  2.651247573289247E-002  2.386122815960322E-002  2.120998058631397E-002
  1.855873301302472E-002  1.590748543973548E-002  1.325623786644623E-002
  1.060499029315698E-002  7.953742719867740E-003  5.302495146578492E-003
  2.651247573289244E-003  0.000000000000000E+000  2.651247573289247E-002
  2.386122815960322E-002  2.120998058631397E-002  1.855873301302472E-002
  1.590748543973548E-002  1.325623786644623E-002  1.060499029315698E-002
  7.953742719867740E-003  5.302495146578492E-003  2.651247573289244E-003
  0.000000000000000E+000  2.651247573289247E-002  2.386122815960322E-002
  2.120998058631397E-002  1.855873301302472E-002  1.590748543973548E-002
  1.325623786644623E-002  1.060499029315698E-002  7.953742719867740E-003
  5.302495146578492E-003  2.651247573289244E-003  0.000000000000000E+000
  2.651247573289247E-002  2.386122815960322E-002  2.120998058631397E-002
  1.855873301302472E-002  1.590748543973548E-002  1.325623786644623E-002
  1.060499029315698E-002  7.953742719867740E-003  5.302495146578492E-003
  2.651247573289244E-003  0.000000000000000E+000  2.651247573289247E-002
  2.386122815960322E-002  2.120998058631397E-002  1.855873301302472E-002
  1.590748543973548E-002  1.325623786644623E-002  1.060499029315698E-002
  7.953742719867740E-003  5.302495146578492E-003  2.651247573289244E-003
  0.000000000000000E+000  2.651247573289247E-002  2.386122815960322E-002
  2.120998058631397E-002  1.855873301302472E-002  1.590748543973548E-002
  1.325623786644623E-002  1.060499029315698E-002  7.953742719867740E-003
  5.302495146578492E-003  2.651247573289244E-003  0.000000000000000E+000
  2.651247573289247E-002  2.386122815960322E-002  2.120998058631397E-002
  1.855873301302472E-002  1.590748543973548E-002  1.325623786644623E-002
  1.060499029315698E-002  7.953742719867740E-003  5.302495146578492E-003
  2.651247573289244E-003  0.000000000000000E+000  2.651247573289247E-002
  2.386122815960322E-002  2.120998058631397E-002  1.855873301302472E-002
  1.590748543973548E-002  1.325623786644623E-002  1.060499029315698E-002
  7.953742719867740E-003  5.302495146578492E-003  2.651247573289244E-003
  0.000000000000000E+000  2.651247573289247E-002  2.386122815960322E-002
  2.120998058631397E-002  1.855873301302472E-002  1.590748543973548E-002
  1.325623786644623E-002  1.060499029315698E-002  7.953742719867740E-003
  5.302495146578492E-003  2.651247573289244E-003  0.000000000000000E+000
  2.651247573289247E-002  2.386122815960322E-002  2.120998058631397E-002
  1.855873301302472E-002  1.590748543973548E-002  1.325623786644623E-002
  1.060499029315698E-002  7.953742719867740E-003  5.302495146578492E-003
  2.651247573289244E-003  0.000000000000000E+000  2.651247573289247E-002
  2.386122815960322E-002  2.120998058631397E-002  1.855873301302472E-002
  1.590748543973548E-002  1.325623786644623E-002  1.060499029315698E-002
  7.953742719867740E-003  5.302495146578492E-003  2.651247573289244E-003
  0.000000000000000E+000  2.651247573289247E-002  2.386122815960322E-002
  2.120998058631397E-002  1.855873301302472E-002  1.590748543973548E-002
  1.325623786644623E-002  1.060499029315698E-002  7.953742719867740E-003
  5.302495146578492E-003  2.651247573289244E-003  0.000000000000000E+000
  2.651247573289247E-002  2.386122815960322E-002  2.120998058631397E-002
  1.855873301302472E-002  1.590748543973548E-002  1.325623786644623E-002
  1.060499029315698E-002  7.953742719867740E-003  5.302495146578492E-003
  2.651247573289244E-003  0.000000000000000E+000  2.651247573289247E-002
  2.386122815960322E-002  2.120998058631397E-002  1.855873301302472E-002
  1.590748543973548E-002  1.325623786644623E-002  1.060499029315698E-002
  7.953742719867740E-003  5.302495146578492E-003  2.651247573289244E-003
  0.000000000000000E+000  2.651247573289247E-002  2.386122815960322E-002
  2.120998058631397E-002  1.855873301302472E-002  1.590748543973548E-002
  1.325623786644623E-002  1.060499029315698E-002  7.953742719867740E-003
  5.302495146578492E-003  2.651247573289244E-003  0.000000000000000E+000
  2.651247573289247E-002  2.386122815960322E-002  2.120998058631397E-002
  1.855873301302472E-002  1.590748543973548E-002  1.325623786644623E-002
  1.060499029315698E-002  7.953742719867740E-003  5.302495146578492E-003
  2.651247573289244E-003  0.000000000000000E+000  2.651247573289247E-002
  2.386122815960322E-002  2.120998058631397E-002  1.855873301302472E-002
  1.590748543973548E-002  1.325623786644623E-002  1.060499029315698E-002
  7.953742719867740E-003  5.302495146578492E-003  2.651247573289244E-003
  0.000000000000000E+000  2.651247573289247E-002  2.386122815960322E-002
  2.120998058631397E-002  1.855873301302472E-002  1.590748543973548E-002
  1.325623786644623E-002  1.060499029315698E-002  7.953742719867740E-003
  5.302495146578492E-003  2.651247573289244E-003  0.000000000000000E+000
  2.651247573289247E-002  2.386122815960322E-002  2.120998058631397E-002
  1.855873301302472E-002  1.590748543973548E-002  1.325623786644623E-002
  1.060499029315698E-002  7.953742719867740E-003  5.302495146578492E-003
  2.651247573289244E-003  0.000000000000000E+000  2.651247573289247E-002
  2.386122815960322E-002  2.120998058631397E-002  1.855873301302472E-002
  1.590748543973548E-002  1.325623786644623E-002  1.060499029315698E-002
  7.953742719867740E-003  5.302495146578492E-003  2.651247573289244E-003
  0.000000000000000E+000  2.651247573289247E-002  2.386122815960322E-002
  2.120998058631397E-002  1.855873301302472E-002  1.590748543973548E-002
  1.325623786644623E-002  1.060499029315698E-002  7.953742719867740E-003
  5.302495146578492E-003  2.651247573289244E-003  0.000000000000000E+000
  2.651247573289247E-002  2.386122815960322E-002  2.120998058631397E-002
  1.855873301302472E-002  1.590748543973548E-002  1.325623786644623E-002
  1.060499029315698E-002  7.953742719867740E-003  5.302495146578492E-003
  2.651247573289244E-003  0.000000000000000E+000  2.651247573289247E-002
  2.386122815960322E-002  2.120998058631397E-002  1.855873301302472E-002
  1.590748543973548E-002  1.325623786644623E-002  1.060499029315698E-002
  7.953742719867740E-003  5.302495146578492E-003  2.651247573289244E-003
  0.000000000000000E+000
  8.451508387321768E-002  0.121630254673477       0.150808267883134     
  0.176085032233341       0.198572806813958       0.218874040191681     
  0.237224140467161       0.253307700197946       0.266509774635523     
  0.276066307830366       0.139497720005282       0.203909558596364     
  0.253873378198174       0.296868206831345       0.334982347079357     
  0.369302690031855       0.400336110460210       0.427590653452486     
  0.450188517745784       0.467562608859139       0.183823125214039     
  0.275443217610051       0.345885965704579       0.405866312709351     
  0.458752348799569       0.506192191741364       0.548932854946402     
  0.586447298051405       0.617373158461472       0.639753920858662     
  0.215702171844263       0.328394019603960       0.415580467815445     
  0.489551841847106       0.554605942671803       0.612672703362192     
  0.664281473160648       0.708777479734286       0.744612823433898     
  0.769764047195992       0.240238333400055       0.367837975910218     
  0.467107675002239       0.551376904303035       0.625319130926149     
  0.690731660407268       0.748091372821116       0.796861296839824     
  0.835690798277377       0.862013323544019       0.264912752748430     
  0.404986157634302       0.513473687424745       0.605019841444291     
  0.684565795634851       0.754088783077678       0.814281667992157     
  0.865041153385352       0.905383320292081       0.932650054861259     
  0.296354161625060       0.450506148857937       0.568288107479537     
  0.666377166453235       0.750520215219961       0.823200604034979     
  0.885491650536911       0.937617133360285       0.978878358825221     
   1.00671682830370       0.339097051243187       0.511708418284258     
  0.641343394066088       0.747762416950586       0.837950261291034     
  0.915049661950613       0.980522329553516        1.03478563140762     
   1.07730079735359        1.10569503641473       0.395362592324903     
  0.592486201035145       0.738106139985876       0.856036634485221     
  0.954819236949243        1.03837351036517        1.10861300098587     
   1.16627825160984        1.21104116773273        1.24057122238857     
  0.464969547845672       0.692871378987337       0.858819385554406     
  0.991570753125786        1.10158764051665        1.19378298357923     
   1.27064185990799        1.33325090066306        1.38147214954647     
   1.41295343381927       0.546610301561302       0.810997584354893     
   1.00126980504766        1.15192239553245        1.27564624684341     
   1.37849284646830        1.46361171371288        1.53249882559924     
   1.58521253907354        1.61934187580685       0.638889190015420     
  0.944796104087710        1.16291253709219        1.33415321257654     
   1.47369946192989        1.58887871066858        1.68359308862192     
   1.75978681119717        1.81775534802066        1.85505469121205     
  0.740674663294199        1.09247956248229        1.34142161102521     
   1.53547021300163        1.69254581057510        1.82138063189314     
   1.92670020849058        2.01095861013415        2.07472426330934     
   2.11552983991659       0.851239259294008        1.25280809896945     
   1.53507894996975        1.75368990733596        1.92954356135385     
   2.07292231546464        2.18947372189242        2.28221817288799     
   2.35204315487781        2.39650131069293       0.970623510588333     
   1.42552781041947        1.74318630911240        1.98758350007201     
   2.18290165447304        2.34114577565058        2.46900892459706     
   2.57017743959690        2.64593997081495        2.69394849011161     
   1.10086638736745        1.61283642209124        1.96751348979782     
   2.23821931037834        2.45286853023793        2.62545941141568     
   2.76391984551271        2.87275391834408        2.95377719468509     
   3.00487691229186        1.24753706911543        1.82091699893825     
   2.21354449553674        2.50991652243314        2.74251427904898     
   2.92778254744682        3.07513985600623        3.19007258800510     
   3.27506447705518        3.32839800196918        1.41152591157942     
   2.04874505915698        2.47787472178758        2.79703325527143     
   3.04430561827902        3.23907630976336        3.39248506258910     
   3.51110490747130        3.59815547979868        3.65243889171474     
   1.55817187163968        2.24812968675247        2.70425917965199     
   3.03773353645122        3.29209896407477        3.48966052913157     
   3.64329479785378        3.76067078869261        3.84576690233834     
   3.89811129923342        1.63544176572318        2.34524776352539     
   2.80520220681059        3.13513208246290        3.38240314492251     
   3.57137373525032        3.71609018231385        3.82490890624363     
   3.90231716343549        3.94870173523373        1.62194699711447     
   2.30640976820814        2.73838049335962        3.04128844721388     
   3.26408386631497        3.43164404052833        3.55800491001286     
   3.65129760587236        3.71584397878410        3.75265487315823     
   1.51560540563885        2.12543512705842        2.49631305669269     
   2.75004914950655        2.93373168426923        3.07032618671227     
   3.17226562390903        3.24644053540701        3.29627244710014     
   3.32259537438986        1.31458085294625        1.80063875780025     
   2.08437339898790        2.27540977939151        2.41285285830157     
   2.51479331231783        2.59075320689726        2.64595383436513     
   2.68310673470922        2.70319726327712        1.00823016154922     
   1.33649301440454        1.52526365271604        1.65256518376214     
   1.74444838504470        1.81280752249699        1.86394293900946     
   1.90144906546771        1.92770084557215        1.94620602117251     
  0.613713818353994       0.797470965800010       0.904102527797367     
  0.976402341492078        1.02876321130484        1.06780740134440     
   1.09706068465717        1.11851663698521        1.13329236350409     
   1.14178833907062     
  0.000000000000000E+000  0.000000000000000E+000  0.000000000000000E+000
  0.000000000000000E+000  0.000000000000000E+000  0.000000000000000E+000
  0.000000000000000E+000  0.000000000000000E+000  0.000000000000000E+000
  0.000000000000000E+000  0.000000000000000E+000  0.000000000000000E+000
  0.000000000000000E+000  0.000000000000000E+000  0.000000000000000E+000
  0.000000000000000E+000  0.000000000000000E+000  0.000000000000000E+000
  0.000000000000000E+000  0.000000000000000E+000  0.000000000000000E+000
  0.000000000000000E+000  0.000000000000000E+000  0.000000000000000E+000
  0.000000000000000E+000  0.000000000000000E+000  0.000000000000000E+000
  0.000000000000000E+000  0.000000000000000E+000  0.000000000000000E+000
  0.000000000000000E+000  0.000000000000000E+000  0.000000000000000E+000
  0.000000000000000E+000  0.000000000000000E+000  0.000000000000000E+000
  0.000000000000000E+000  0.000000000000000E+000  0.000000000000000E+000
  0.000000000000000E+000  0.000000000000000E+000  0.000000000000000E+000
  0.000000000000000E+000  0.000000000000000E+000  0.000000000000000E+000
  0.000000000000000E+000  0.000000000000000E+000  0.000000000000000E+000
  0.000000000000000E+000  0.000000000000000E+000  0.000000000000000E+000
  0.000000000000000E+000  0.000000000000000E+000  0.000000000000000E+000
  0.000000000000000E+000  0.000000000000000E+000  0.000000000000000E+000
  0.000000000000000E+000  0.000000000000000E+000  0.000000000000000E+000
  0.000000000000000E+000  0.000000000000000E+000  0.000000000000000E+000
  0.000000000000000E+000  0.000000000000000E+000  0.000000000000000E+000
  0.000000000000000E+000  0.000000000000000E+000  0.000000000000000E+000
  0.000000000000000E+000  0.000000000000000E+000  0.000000000000000E+000
  0.000000000000000E+000  0.000000000000000E+000  0.000000000000000E+000
  0.000000000000000E+000  0.000000000000000E+000  0.000000000000000E+000
  0.000000000000000E+000  0.000000000000000E+000  0.000000000000000E+000
  0.000000000000000E+000  0.000000000000000E+000  0.000000000000000E+000
  0.000000000000000E+000  0.000000000000000E+000  0.000000000000000E+000
  0.000000000000000E+000  0.000000000000000E+000  0.000000000000000E+000
  0.000000000000000E+000  0.000000000000000E+000  0.000000000000000E+000
  0.000000000000000E+000  0.000000000000000E+000  0.000000000000000E+000
  0.000000000000000E+000  0.000000000000000E+000  0.000000000000000E+000
  0.000000000000000E+000  0.000000000000000E+000  0.000000000000000E+000
  0.000000000000000E+000  0.000000000000000E+000  0.000000000000000E+000
  0.000000000000000E+000  0.000000000000000E+000  0.000000000000000E+000
  0.000000000000000E+000  0.000000000000000E+000  0.000000000000000E+000
  0.000000000000000E+000  0.000000000000000E+000  0.000000000000000E+000
  0.000000000000000E+000  0.000000000000000E+000  0.000000000000000E+000