 Title = "Wing and Wake"
 VARIABLES = "X" "Y" "Z" "GAM" "skew"
 Zone I=   11 J=   26 K=1  T="Blade"
 DATAPACKING=BLOCK
 VARLOCATION=([4]=CELLCENTERED,[5]=CELLCENTERED)
  0.125634199807378       0.131258166708842       0.136882133610306     
  0.142506100511771       0.148130067413235       0.153754034314700     
  0.159378001216164       0.165001968117628       0.170625935019093     
  0.176249901920557       0.181873868822022       0.129218663948454     
  0.134842630849919       0.140466597751383       0.146090564652847     
  0.151714531554312       0.157338498455776       0.162962465357241     
  0.168586432258705       0.174210399160170       0.179834366061634     
  0.185458332963098       0.139915527230924       0.145539494132389     
  0.151163461033853       0.156787427935318       0.162411394836782     
  0.168035361738246       0.173659328639711       0.179283295541175     
  0.184907262442640       0.190531229344104       0.196155196245569     
  0.157556093730827       0.163180060632292       0.168804027533756     
  0.174427994435220       0.180051961336685       0.185675928238149     
  0.191299895139614       0.196923862041078       0.202547828942543     
  0.208171795844007       0.213795762745471       0.181862161176496     
  0.187486128077960       0.193110094979425       0.198734061880889     
  0.204358028782353       0.209981995683818       0.215605962585282     
  0.221229929486747       0.226853896388211       0.232477863289676     
  0.238101830191140       0.212450408364570       0.218074375266035     
  0.223698342167499       0.229322309068964       0.234946275970428     
  0.240570242871893       0.246194209773357       0.251818176674821     
  0.257442143576285       0.263066110477750       0.268690077379215     
  0.248838440364363       0.254462407265827       0.260086374167291     
  0.265710341068756       0.271334307970220       0.276958274871684     
  0.282582241773149       0.288206208674613       0.293830175576078     
  0.299454142477542       0.305078109379006       0.290452396174078     
  0.296076363075543       0.301700329977007       0.307324296878471     
  0.312948263779936       0.318572230681401       0.324196197582865     
  0.329820164484330       0.335444131385794       0.341068098287259     
  0.346692065188723       0.336635998851627       0.342259965753091     
  0.347883932654556       0.353507899556020       0.359131866457485     
  0.364755833358949       0.370379800260413       0.376003767161878     
  0.381627734063342       0.387251700964807       0.392875667866271     
  0.386660905394036       0.392284872295500       0.397908839196965     
  0.403532806098429       0.409156772999893       0.414780739901358     
  0.420404706802822       0.426028673704287       0.431652640605751     
  0.437276607507215       0.442900574408680       0.439738193141701     
  0.445362160043166       0.450986126944629       0.456610093846094     
  0.462234060747559       0.467858027649023       0.473481994550488     
  0.479105961451952       0.484729928353417       0.490353895254881     
  0.495977862156345       0.495030801560007       0.500654768461471     
  0.506278735362935       0.511902702264399       0.517526669165864     
  0.523150636067329       0.528774602968793       0.534398569870258     
  0.540022536771721       0.545646503673186       0.551270470574651     
  0.551666733183993       0.557290700085457       0.562914666986922     
  0.568538633888386       0.574162600789850       0.579786567691315     
  0.585410534592780       0.591034501494244       0.596658468395708     
  0.602282435297173       0.607906402198638       0.608752805539284     
  0.614376772440749       0.620000739342213       0.625624706243677     
  0.631248673145142       0.636872640046606       0.642496606948071     
  0.648120573849534       0.653744540751000       0.659368507652464     
  0.664992474553928       0.665388737163270       0.671012704064736     
  0.676636670966200       0.682260637867664       0.687884604769127     
  0.693508571670592       0.699132538572056       0.704756505473520     
  0.710380472374986       0.716004439276451       0.721628406177915     
  0.720681345581575       0.726305312483040       0.731929279384505     
  0.737553246285969       0.743177213187434       0.748801180088898     
  0.754425146990363       0.760049113891827       0.765673080793290     
  0.771297047694756       0.776921014596221       0.773758633329242     
  0.779382600230706       0.785006567132170       0.790630534033635     
  0.796254500935099       0.801878467836562       0.807502434738027     
  0.813126401639492       0.818750368540956       0.824374335442421     
  0.829998302343886       0.823783539871650       0.829407506773114     
  0.835031473674578       0.840655440576044       0.846279407477508     
  0.851903374378973       0.857527341280437       0.863151308181901     
  0.868775275083366       0.874399241984830       0.880023208886294     
  0.869967142549199       0.875591109450663       0.881215076352127     
  0.886839043253592       0.892463010155056       0.898086977056520     
  0.903710943957985       0.909334910859450       0.914958877760915     
  0.920582844662378       0.926206811563843       0.911581098358915     
  0.917205065260379       0.922829032161843       0.928452999063308     
  0.934076965964772       0.939700932866237       0.945324899767702     
  0.950948866669165       0.956572833570631       0.962196800472094     
  0.967820767373558       0.947969130358706       0.953593097260172     
  0.959217064161634       0.964841031063100       0.970464997964565     
  0.976088964866028       0.981712931767494       0.987336898668959     
  0.992960865570423       0.998584832471887        1.00420879937335     
  0.978557377546781       0.984181344448247       0.989805311349711     
  0.995429278251175        1.00105324515264        1.00667721205410     
   1.01230117895557        1.01792514585703        1.02354911275850     
   1.02917307965996        1.03479704656143        1.00286344499245     
   1.00848741189391        1.01411137879538        1.01973534569684     
   1.02535931259831        1.03098327949977        1.03660724640124     
   1.04223121330270        1.04785518020417        1.05347914710563     
   1.05910311400709        1.02050401149235        1.02612797839382     
   1.03175194529528        1.03737591219675        1.04299987909821     
   1.04862384599967        1.05424781290114        1.05987177980260     
   1.06549574670407        1.07111971360553        1.07674368050700     
   1.03120087477482        1.03682484167629        1.04244880857775     
   1.04807277547922        1.05369674238068        1.05932070928214     
   1.06494467618361        1.07056864308507        1.07619260998654     
   1.08181657688800        1.08744054378947        1.03478533891590     
   1.04040930581736        1.04603327271883        1.05165723962029     
   1.05728120652176        1.06290517342322        1.06852914032469     
   1.07415310722615        1.07977707412761        1.08540104102908     
   1.09102500793055     
  0.236871598172686       0.218864811046817       0.200858023920948     
  0.182851236795079       0.164844449669210       0.146837662543341     
  0.128830875417472       0.110824088291603       9.281730116573444E-002
  7.481051403986570E-002  5.680372691399668E-002  0.237991115360732     
  0.219984328234864       0.201977541108994       0.183970753983126     
  0.165963966857257       0.147957179731388       0.129950392605519     
  0.111943605479650       9.393681835378077E-002  7.593003122791210E-002
  5.792324410204302E-002  0.241332011470049       0.223325224344180     
  0.205318437218311       0.187311650092442       0.169304862966573     
  0.151298075840704       0.133291288714835       0.115284501588966     
  9.727771446309726E-002  7.927092733722822E-002  6.126414021135929E-002
  0.246841598573237       0.228834811447367       0.210828024321499     
  0.192821237195629       0.174814450069761       0.156807662943892     
  0.138800875818023       0.120794088692154       0.102787301566285     
  8.478051444041618E-002  6.677372731454724E-002  0.254432987190411     
  0.236426200064542       0.218419412938673       0.200412625812804     
  0.182405838686935       0.164399051561066       0.146392264435197     
  0.128385477309328       0.110378690183459       9.237190305759041E-002
  7.436511593172145E-002  0.263986456588203       0.245979669462334     
  0.227972882336465       0.209966095210596       0.191959308084727     
  0.173952520958858       0.155945733832989       0.137938946707120     
  0.119932159581251       0.101925372455382       8.391858532951323E-002
  0.275351342847243       0.257344555721374       0.239337768595506     
  0.221330981469637       0.203324194343768       0.185317407217899     
  0.167310620092030       0.149303832966161       0.131297045840292     
  0.113290258714423       9.528347158855403E-002  0.288348414922174     
  0.270341627796305       0.252334840670436       0.234328053544567     
  0.216321266418698       0.198314479292829       0.180307692166960     
  0.162300905041091       0.144294117915222       0.126287330789354     
  0.108280543663484       0.302772701222297       0.284765914096429     
  0.266759126970560       0.248752339844691       0.230745552718821     
  0.212738765592953       0.194731978467084       0.176725191341215     
  0.158718404215346       0.140711617089477       0.122704829963608     
  0.318396722136011       0.300389935010141       0.282383147884273     
  0.264376360758404       0.246369573632535       0.228362786506666     
  0.210355999380797       0.192349212254928       0.174342425129059     
  0.156335638003190       0.138328850877321       0.334974077520167     
  0.316967290394297       0.298960503268429       0.280953716142560     
  0.262946929016691       0.244940141890822       0.226933354764953     
  0.208926567639084       0.190919780513215       0.172912993387346     
  0.154906206261477       0.352243332577525       0.334236545451655     
  0.316229758325786       0.298222971199918       0.280216184074049     
  0.262209396948180       0.244202609822311       0.226195822696442     
  0.208189035570573       0.190182248444704       0.172175461318836     
  0.369932140839678       0.351925353713809       0.333918566587939     
  0.315911779462072       0.297904992336202       0.279898205210333     
  0.261891418084464       0.243884630958595       0.225877843832726     
  0.207871056706858       0.189864269580988       0.387761539233549     
  0.369754752107681       0.351747964981812       0.333741177855943     
  0.315734390730074       0.297727603604205       0.279720816478336     
  0.261714029352467       0.243707242226598       0.225700455100729     
  0.207693667974860       0.405450347495703       0.387443560369834     
  0.369436773243965       0.351429986118096       0.333423198992227     
  0.315416411866358       0.297409624740488       0.279402837614620     
  0.261396050488751       0.243389263362883       0.225382476237013     
  0.422719602553061       0.404712815427191       0.386706028301323     
  0.368699241175454       0.350692454049586       0.332685666923716     
  0.314678879797847       0.296672092671979       0.278665305546109     
  0.260658518420241       0.242651731294371       0.439296957937216     
  0.421290170811348       0.403283383685479       0.385276596559610     
  0.367269809433741       0.349263022307872       0.331256235182003     
  0.313249448056134       0.295242660930265       0.277235873804396     
  0.259229086678528       0.454920978850930       0.436914191725061     
  0.418907404599192       0.400900617473323       0.382893830347454     
  0.364887043221585       0.346880256095716       0.328873468969847     
  0.310866681843978       0.292859894718109       0.274853107592241     
  0.469345265151053       0.451338478025185       0.433331690899316     
  0.415324903773446       0.397318116647578       0.379311329521709     
  0.361304542395840       0.343297755269971       0.325290968144102     
  0.307284181018233       0.289277393892365       0.482342337225984     
  0.464335550100115       0.446328762974246       0.428321975848377     
  0.410315188722508       0.392308401596639       0.374301614470771     
  0.356294827344902       0.338288040219033       0.320281253093164     
  0.302274465967294       0.493707223485025       0.475700436359156     
  0.457693649233287       0.439686862107418       0.421680074981548     
  0.403673287855679       0.385666500729811       0.367659713603943     
  0.349652926478073       0.331646139352204       0.313639352226335     
  0.503260692882816       0.485253905756948       0.467247118631079     
  0.449240331505210       0.431233544379341       0.413226757253472     
  0.395219970127603       0.377213183001734       0.359206395875865     
  0.341199608749996       0.323192821624127       0.510852081499992     
  0.492845294374121       0.474838507248253       0.456831720122384     
  0.438824932996515       0.420818145870646       0.402811358744776     
  0.384804571618909       0.366797784493039       0.348790997367170     
  0.330784210241301       0.516361668603179       0.498354881477309     
  0.480348094351441       0.462341307225572       0.444334520099703     
  0.426327732973833       0.408320945847965       0.390314158722096     
  0.372307371596228       0.354300584470358       0.336293797344489     
  0.519702564712494       0.501695777586626       0.483688990460757     
  0.465682203334889       0.447675416209019       0.429668629083150     
  0.411661841957281       0.393655054831412       0.375648267705544     
  0.357641480579674       0.339634693453805       0.520822081900541     
  0.502815294774673       0.484808507648803       0.466801720522935     
  0.448794933397065       0.430788146271196       0.412781359145327     
  0.394774572019458       0.376767784893590       0.358760997767720     
  0.340754210641852     
  2.651247573289247E-002  2.386122815960322E-002  2.120998058631397E-002
  1.855873301302472E-002  1.590748543973548E-002  1.325623786644623E-002
  1.060499029315698E-002  7.953742719867740E-003  5.302495146578492E-003
  2.651247573289244E-003  0.000000000000000E+000  2.651247573289247E-002
  2.386122815960322E-002  2.120998058631397E-002  1.855873301302472E-002
  1.590748543973548E-002  1.325623786644623E-002  1.060499029315698E-002
  7.953742719867740E-003  5.302495146578492E-003  2.651247573289244E-003
  0.000000000000000E+000  2.651247573289247E-002  2.386122815960322E-002
  2.120998058631397E-002  1.855873301302472E-002  1.590748543973548E-002
  1.325623786644623E-002  1.060499029315698E-002  7.953742719867740E-003
  5.302495146578492E-003  2.651247573289244E-003  0.000000000000000E+000
  2.651247573289247E-002  2.386122815960322E-002  2.120998058631397E-002
  1.855873301302472E-002  1.590748543973548E-002  1.325623786644623E-002
  1.060499029315698E-002  7.953742719867740E-003  5.302495146578492E-003
  2.651247573289244E-003  0.000000000000000E+000  2.651247573289247E-002
  2.386122815960322E-002  2.120998058631397E-002  1.855873301302472E-002
  1.590748543973548E-002  1.325623786644623E-002  1.060499029315698E-002
  7.953742719867740E-003  5.302495146578492E-003  2.651247573289244E-003
  0.000000000000000E+000  2.651247573289247E-002  2.386122815960322E-002
  2.120998058631397E-002  1.855873301302472E-002  1.590748543973548E-002
  1.325623786644623E-002  1.060499029315698E-002  7.953742719867740E-003
  5.302495146578492E-003  2.651247573289244E-003  0.000000000000000E+000
  2.651247573289247E-002  2.386122815960322E-002  2.120998058631397E-002
  1.855873301302472E-002  1.590748543973548E-002  1.325623786644623E-002
  1.060499029315698E-002  7.953742719867740E-003  5.302495146578492E-003
  2.651247573289244E-003  0.000000000000000E+000  2.651247573289247E-002
  2.386122815960322E-002  2.120998058631397E-002  1.855873301302472E-002
  1.590748543973548E-002  1.325623786644623E-002  1.060499029315698E-002
  7.953742719867740E-003  5.302495146578492E-003  2.651247573289244E-003
  0.000000000000000E+000  2.651247573289247E-002  2.386122815960322E-002
  2.120998058631397E-002  1.855873301302472E-002  1.590748543973548E-002
  1.325623786644623E-002  1.060499029315698E-002  7.953742719867740E-003
  5.302495146578492E-003  2.651247573289244E-003  0.000000000000000E+000
  2.651247573289247E-002  2.386122815960322E-002  2.120998058631397E-002
  1.855873301302472E-002  1.590748543973548E-002  1.325623786644623E-002
  1.060499029315698E-002  7.953742719867740E-003  5.302495146578492E-003
  2.651247573289244E-003  0.000000000000000E+000  2.651247573289247E-002
  2.386122815960322E-002  2.120998058631397E-002  1.855873301302472E-002
  1.590748543973548E-002  1.325623786644623E-002  1.060499029315698E-002
  7.953742719867740E-003  5.302495146578492E-003  2.651247573289244E-003
  0.000000000000000E+000  2.651247573289247E-002  2.386122815960322E-002
  2.120998058631397E-002  1.855873301302472E-002  1.590748543973548E-002
  1.325623786644623E-002  1.060499029315698E-002  7.953742719867740E-003
  5.302495146578492E-003  2.651247573289244E-003  0.000000000000000E+000
  2.651247573289247E-002  2.386122815960322E-002  2.120998058631397E-002
  1.855873301302472E-002  1.590748543973548E-002  1.325623786644623E-002
  1.060499029315698E-002  7.953742719867740E-003  5.302495146578492E-003
  2.651247573289244E-003  0.000000000000000E+000  2.651247573289247E-002
  2.386122815960322E-002  2.120998058631397E-002  1.855873301302472E-002
  1.590748543973548E-002  1.325623786644623E-002  1.060499029315698E-002
  7.953742719867740E-003  5.302495146578492E-003  2.651247573289244E-003
  0.000000000000000E+000  2.651247573289247E-002  2.386122815960322E-002
  2.120998058631397E-002  1.855873301302472E-002  1.590748543973548E-002
  1.325623786644623E-002  1.060499029315698E-002  7.953742719867740E-003
  5.302495146578492E-003  2.651247573289244E-003  0.000000000000000E+000
  2.651247573289247E-002  2.386122815960322E-002  2.120998058631397E-002
  1.855873301302472E-002  1.590748543973548E-002  1.325623786644623E-002
  1.060499029315698E-002  7.953742719867740E-003  5.302495146578492E-003
  2.651247573289244E-003  0.000000000000000E+000  2.651247573289247E-002
  2.386122815960322E-002  2.120998058631397E-002  1.855873301302472E-002
  1.590748543973548E-002  1.325623786644623E-002  1.060499029315698E-002
  7.953742719867740E-003  5.302495146578492E-003  2.651247573289244E-003
  0.000000000000000E+000  2.651247573289247E-002  2.386122815960322E-002
  2.120998058631397E-002  1.855873301302472E-002  1.590748543973548E-002
  1.325623786644623E-002  1.060499029315698E-002  7.953742719867740E-003
  5.302495146578492E-003  2.651247573289244E-003  0.000000000000000E+000
  2.651247573289247E-002  2.386122815960322E-002  2.120998058631397E-002
  1.855873301302472E-002  1.590748543973548E-002  1.325623786644623E-002
  1.060499029315698E-002  7.953742719867740E-003  5.302495146578492E-003
  2.651247573289244E-003  0.000000000000000E+000  2.651247573289247E-002
  2.386122815960322E-002  2.120998058631397E-002  1.855873301302472E-002
  1.590748543973548E-002  1.325623786644623E-002  1.060499029315698E-002
  7.953742719867740E-003  5.302495146578492E-003  2.651247573289244E-003
  0.000000000000000E+000  2.651247573289247E-002  2.386122815960322E-002
  2.120998058631397E-002  1.855873301302472E-002  1.590748543973548E-002
  1.325623786644623E-002  1.060499029315698E-002  7.953742719867740E-003
  5.302495146578492E-003  2.651247573289244E-003  0.000000000000000E+000
  2.651247573289247E-002  2.386122815960322E-002  2.120998058631397E-002
  1.855873301302472E-002  1.590748543973548E-002  1.325623786644623E-002
  1.060499029315698E-002  7.953742719867740E-003  5.302495146578492E-003
  2.651247573289244E-003  0.000000000000000E+000  2.651247573289247E-002
  2.386122815960322E-002  2.120998058631397E-002  1.855873301302472E-002
  1.590748543973548E-002  1.325623786644623E-002  1.060499029315698E-002
  7.953742719867740E-003  5.302495146578492E-003  2.651247573289244E-003
  0.000000000000000E+000  2.651247573289247E-002  2.386122815960322E-002
  2.120998058631397E-002  1.855873301302472E-002  1.590748543973548E-002
  1.325623786644623E-002  1.060499029315698E-002  7.953742719867740E-003
  5.302495146578492E-003  2.651247573289244E-003  0.000000000000000E+000
  2.651247573289247E-002  2.386122815960322E-002  2.120998058631397E-002
  1.855873301302472E-002  1.590748543973548E-002  1.325623786644623E-002
  1.060499029315698E-002  7.953742719867740E-003  5.302495146578492E-003
  2.651247573289244E-003  0.000000000000000E+000  2.651247573289247E-002
  2.386122815960322E-002  2.120998058631397E-002  1.855873301302472E-002
  1.590748543973548E-002  1.325623786644623E-002  1.060499029315698E-002
  7.953742719867740E-003  5.302495146578492E-003  2.651247573289244E-003
  0.000000000000000E+000
  5.547295398381924E-002  8.283426353335119E-002  0.104971226910840     
  0.124375713885422       0.141831541911730       0.157649809810930     
  0.172006983235364       0.184959899465109       0.196516250763664     
  0.206366539599195       9.335776671157467E-002  0.140979011382724     
  0.179082781912270       0.212315428928010       0.242115380537251     
  0.269034203508037       0.293403368052755       0.315398587029917     
  0.335146558423483       0.352627486044143       0.129053305541255     
  0.197971601815837       0.252586176345679       0.299803921024497     
  0.341887894504731       0.379711782907012       0.413770336042764     
  0.444393994943367       0.471579445572040       0.494297116121357     
  0.162148999640801       0.250350778638372       0.320141273166653     
  0.380077173177353       0.433100730112847       0.480440081921795     
  0.522626676994585       0.559982802060532       0.592431742300724     
  0.618278446540561       0.195392334708186       0.301186132183830     
  0.384444097833088       0.455454121313298       0.517737560938588     
  0.572868696486429       0.621527907807269       0.663907013605204     
  0.699610032462221       0.726545249545953       0.232106477967963     
  0.355543773188997       0.451471859626679       0.532446620309439     
  0.602744476056089       0.664262710207952       0.717833176543389     
  0.763622433215692       0.801131763058356       0.828181763787269     
  0.275503086077010       0.418568674121755       0.527822156953866     
  0.618769821117711       0.696750573745912       0.764132323953085     
  0.822030153641452       0.870746777030327       0.909736048928799     
  0.936789517512665       0.327898898410026       0.494125767507606     
  0.618699654157948       0.720849386807379       0.807346768891487     
  0.881252895314945       0.944013762878367       0.996110620279323     
   1.03712368857648        1.06483401513931       0.390469441746940     
  0.584415573943246       0.727323159785180       0.842869543283881     
  0.939551682497237        1.02129337861796        1.09002366963799     
   1.14651228480281        1.19047232555759        1.21961414178291     
  0.463590499503403       0.690201702398495       0.854865204517722     
  0.986397764659566        1.09530086404903        1.18651137123290     
   1.26253796572264        1.32449744684850        1.37225910764331     
   1.40347725841295       0.547010207526626       0.811152415584619     
   1.00098415812507        1.15112423735047        1.27432119801778     
   1.37665791124704        1.46131189297863        1.52979389289698     
   1.58217835404705        1.61608495423435       0.640177398389648     
  0.946411536150268        1.16457686880632        1.33573509038733     
   1.47512789868863        1.59010997412355        1.68460776503630     
   1.76059049868343        1.81836610678158        1.85550641342246     
  0.742453526527934        1.09492796607662        1.34423287469338     
   1.53848752716514        1.69567094086007        1.82454859290961     
   1.92987016480584        2.01410465215787        2.07782942878541     
   2.11858507369089       0.853128033414967        1.25549736240451     
   1.53827980838533        1.75725952767560        1.93339598069650     
   2.07699560323465        2.19371776045237        2.28659246918731     
   2.35651256772725        2.40103053885993       0.971659064905996     
   1.42707501453924        1.74513027246282        1.98987778010297     
   2.18551654428219        2.34405246193849        2.47217341217382     
   2.57356127713032        2.64949997411607        2.69763209338753     
   1.09923577012654        1.61077019197852        1.96537248069569     
   2.23618708238224        2.45103966671568        2.62387148364607     
   2.76257051447045        2.87161339386118        2.95279811227741     
   3.00399902226595        1.24213777899360        1.81384309990873     
   2.20580262436331        2.50197059221544        2.73459377637963     
   2.91998452672491        3.06747857070305        3.18251160157106     
   3.26754261407201        3.32085675584666        1.40876258150337     
   2.04508873150885        2.47389117561248        2.79307679995411     
   3.04061705966126        3.23577414731410        3.38957663567892     
   3.50852157521016        3.59579083961881        3.65017953905855     
   1.57044281314960        2.26489197501469        2.72365701293848     
   3.05910277826088        3.31520018377473        3.51435649939744     
   3.66942480295161        3.78802902226210        3.87411294010829     
   3.92715437213805        1.66230138184544        2.38249467910426     
   2.84870690871478        3.18310930815093        3.43395214041137     
   3.62595062164282        3.77328160432665        3.88433960878125     
   3.96360424468564        4.01136747881420        1.65568259242099     
   2.35361826824344        2.79390762341742        3.10279004255175     
   3.33029584697428        3.50178535607839        3.63151064297863     
   3.72768757221459        3.79463929072056        3.83324890725607     
   1.54855585910177        2.17160658982794        2.55067710478366     
   2.81029237731464        2.99857679090756        3.13896852381574     
   3.24412024260132        3.32100861544812        3.37304870506881     
   3.40094750672932        1.34244082776377        1.83927732437920     
   2.12963751380896        2.32544402542135        2.46663048056771     
   2.57165790016605        2.65022169534475        2.70761196714281     
   2.74653503638669        2.76787302435742        1.02884013916638     
   1.36444536628785        1.55775415159860        1.68836349519126     
   1.78286458388196        1.85339312597722        1.90636475795241     
   1.94542324062745        1.97295286844397        1.99245589554273     
  0.626042759058958       0.813936863116443       0.923162538468453     
  0.997369364813516        1.05124713715281        1.09155207968784     
   1.12187433504229        1.14423447340235        1.15974941949578     
   1.16877911772302     
  0.000000000000000E+000  0.000000000000000E+000  0.000000000000000E+000
  0.000000000000000E+000  0.000000000000000E+000  0.000000000000000E+000
  0.000000000000000E+000  0.000000000000000E+000  0.000000000000000E+000
  0.000000000000000E+000  0.000000000000000E+000  0.000000000000000E+000
  0.000000000000000E+000  0.000000000000000E+000  0.000000000000000E+000
  0.000000000000000E+000  0.000000000000000E+000  0.000000000000000E+000
  0.000000000000000E+000  0.000000000000000E+000  0.000000000000000E+000
  0.000000000000000E+000  0.000000000000000E+000  0.000000000000000E+000
  0.000000000000000E+000  0.000000000000000E+000  0.000000000000000E+000
  0.000000000000000E+000  0.000000000000000E+000  0.000000000000000E+000
  0.000000000000000E+000  0.000000000000000E+000  0.000000000000000E+000
  0.000000000000000E+000  0.000000000000000E+000  0.000000000000000E+000
  0.000000000000000E+000  0.000000000000000E+000  0.000000000000000E+000
  0.000000000000000E+000  0.000000000000000E+000  0.000000000000000E+000
  0.000000000000000E+000  0.000000000000000E+000  0.000000000000000E+000
  0.000000000000000E+000  0.000000000000000E+000  0.000000000000000E+000
  0.000000000000000E+000  0.000000000000000E+000  0.000000000000000E+000
  0.000000000000000E+000  0.000000000000000E+000  0.000000000000000E+000
  0.000000000000000E+000  0.000000000000000E+000  0.000000000000000E+000
  0.000000000000000E+000  0.000000000000000E+000  0.000000000000000E+000
  0.000000000000000E+000  0.000000000000000E+000  0.000000000000000E+000
  0.000000000000000E+000  0.000000000000000E+000  0.000000000000000E+000
  0.000000000000000E+000  0.000000000000000E+000  0.000000000000000E+000
  0.000000000000000E+000  0.000000000000000E+000  0.000000000000000E+000
  0.000000000000000E+000  0.000000000000000E+000  0.000000000000000E+000
  0.000000000000000E+000  0.000000000000000E+000  0.000000000000000E+000
  0.000000000000000E+000  0.000000000000000E+000  0.000000000000000E+000
  0.000000000000000E+000  0.000000000000000E+000  0.000000000000000E+000
  0.000000000000000E+000  0.000000000000000E+000  0.000000000000000E+000
  0.000000000000000E+000  0.000000000000000E+000  0.000000000000000E+000
  0.000000000000000E+000  0.000000000000000E+000  0.000000000000000E+000
  0.000000000000000E+000  0.000000000000000E+000  0.000000000000000E+000
  0.000000000000000E+000  0.000000000000000E+000  0.000000000000000E+000
  0.000000000000000E+000  0.000000000000000E+000  0.000000000000000E+000
  0.000000000000000E+000  0.000000000000000E+000  0.000000000000000E+000
  0.000000000000000E+000  0.000000000000000E+000  0.000000000000000E+000
  0.000000000000000E+000  0.000000000000000E+000  0.000000000000000E+000
  0.000000000000000E+000  0.000000000000000E+000  0.000000000000000E+000
  0.000000000000000E+000  0.000000000000000E+000  0.000000000000000E+000