 Title = "Wing and Wake"
 VARIABLES = "X" "Y" "Z" "GAM" "skew"
 Zone I=   11 J=   26 K=1  T="Blade"
 DATAPACKING=BLOCK
 VARLOCATION=([4]=CELLCENTERED,[5]=CELLCENTERED)
  0.170795153255908       0.152006586288383       0.133218019320858     
  0.114429452353334       9.564088538580906E-002  7.685231841828441E-002
  5.806375145075950E-002  3.927518448323464E-002  2.048661751571004E-002
  1.698050548185601E-003 -1.709051641933929E-002  0.170458324531395     
  0.151669757563870       0.132881190596345       0.114092623628821     
  9.530405666129593E-002  7.651548969377128E-002  5.772692272624637E-002
  3.893835575872164E-002  2.014978879119683E-002  1.361221823672447E-003
 -1.742734514385260E-002  0.169453150348052       0.150664583380528     
  0.131876016413003       0.113087449445478       9.429888247795350E-002
  7.551031551042871E-002  5.672174854290420E-002  3.793318157537941E-002
  1.914461460785461E-002  3.560476403300135E-004 -1.843251932719463E-002
  0.167795482903214       0.149006915935689       0.130218348968165     
  0.111429782000640       9.264121503311536E-002  7.385264806559048E-002
  5.506408109806585E-002  3.627551413054148E-002  1.748694716301645E-002
 -1.301619804507992E-003 -2.009018677203268E-002  0.165511464602728     
  0.146722897635203       0.127934330667678       0.109145763700154     
  9.035719673262928E-002  7.156862976510388E-002  5.278006279757962E-002
  3.399149583005474E-002  1.520292886253012E-002 -3.585638104994500E-003
 -2.237420507251922E-002  0.162637115779598       0.143848548812074     
  0.125059981844549       0.106271414877024       8.748284790949952E-002
  6.869428094197472E-002  4.990571397444968E-002  3.111714700692528E-002
  1.232858003940080E-002 -6.459986928124069E-003 -2.524855389564925E-002
  0.159217766631819       0.140429199664294       0.121640632696770     
  0.102852065729245       8.406349876172005E-002  6.527493179419577E-002
  4.648636482667103E-002  2.769779785914590E-002  8.909230891620965E-003
 -9.879336075903404E-003 -2.866790304342791E-002  0.155307342338071     
  0.136518775370546       0.117730208403021       9.894164143549650E-002
  8.015307446797217E-002  6.136450750044758E-002  4.257594053292202E-002
  2.378737356539778E-002  4.998806597872815E-003 -1.378976036965185E-002
 -3.257832733717617E-002  0.150967512625440       0.132178945657916     
  0.113390378690391       9.460181172286665E-002  7.581324475534114E-002
  5.702467778781654E-002  3.823611082029216E-002  1.944754385276701E-002
  6.589768852430420E-004 -1.812959008228236E-002 -3.691815704980662E-002
  0.146266719200984       0.127478152233459       0.108689585265935     
  8.990101829841006E-002  7.111245133088528E-002  5.232388436336068E-002
  3.353531739583568E-002  1.474675042831115E-002 -4.041816539213895E-003
 -2.283038350673786E-002 -4.161895047426274E-002  0.141279096385124     
  0.122490529417599       0.103701962450075       8.491339548255010E-002
  6.612482851502478E-002  4.733626154750099E-002  2.854769457997556E-002
  9.759127612451282E-003 -9.029439355073828E-003 -2.781800632259801E-002
 -4.660657329012281E-002  0.136083301969128       0.117294735001603     
  9.850616803407763E-002  7.971760106655394E-002  6.092903409902828E-002
  4.214046713150429E-002  2.335190016397868E-002  4.563333196454819E-003
 -1.422523377106989E-002 -3.301380073859495E-002 -5.180236770611918E-002
  0.130761276734752       0.111972709767228       9.318414279970168E-002
  7.439557583217846E-002  5.560700886465315E-002  3.681844189712911E-002
  1.802987492960307E-002 -7.586920379208281E-004 -1.954725900544547E-002
 -3.833582597296985E-002 -5.712439294049518E-002  0.125396952199166     
  0.106608385231642       8.781981826411767E-002  6.903125129659279E-002
  5.024268432906809E-002  3.145411736154367E-002  1.266555039401886E-002
 -6.123016573504879E-003 -2.491158354103061E-002 -4.370015050855589E-002
 -6.248871747607988E-002  0.120074926964793       0.101286359997267     
  8.249779302974311E-002  6.370922606221710E-002  4.492065909469361E-002
  2.613209212716902E-002  7.343525159643038E-003 -1.144504180788022E-002
 -3.023360877540595E-002 -4.902217574293027E-002 -6.781074271045559E-002
  0.114879132548795       9.609056558126995E-002  7.730199861374620E-002
  5.851343164622023E-002  3.972486467869618E-002  2.093629771117179E-002
  2.147730743647310E-003 -1.664083622387839E-002 -3.542940319140184E-002
 -5.421797015892772E-002 -7.300653712645196E-002  0.109891509732934     
  9.110294276541080E-002  7.231437579788548E-002  5.352580883036149E-002
  3.473724186283662E-002  1.594867489531201E-002 -2.839892072213084E-003
 -2.162845903973768E-002 -4.041702600726291E-002 -5.920559297478673E-002
 -7.799415994231174E-002  0.105190716308479       8.640214934095354E-002
  6.761358237342961E-002  4.882501540590446E-002  3.003644843837992E-002
  1.124788147085538E-002 -7.540685496670012E-003 -2.632925246419433E-002
 -4.511781943171908E-002 -6.390638639924401E-002 -8.269495336676747E-002
  0.100850886595848       8.206231962832405E-002  6.327375266079757E-002
  4.448518569327364E-002  2.569661872575055E-002  6.908051758224716E-003
 -1.188051520930068E-002 -3.066908217682456E-002 -4.945764914434971E-002
 -6.824621611187416E-002 -8.703478307939835E-002  9.694046230210099E-002
  7.815189533457499E-002  5.936332836705098E-002  4.057476139952677E-002
  2.178619443200126E-002  2.997627464476534E-003 -1.579093950304832E-002
 -3.457950647057321E-002 -5.336807343809803E-002 -7.215664040562128E-002
 -9.094520737314596E-002  9.352111315432032E-002  7.473254618679551E-002
  5.594397921927206E-002  3.715541225174663E-002  1.836684528422115E-002
 -4.217216833035746E-004 -1.921028865082749E-002 -3.799885561835165E-002
 -5.678742258587639E-002 -7.557598955340189E-002 -9.436455652092593E-002
  9.064676433119090E-002  7.185819736366786E-002  5.306963039614122E-002
  3.428106342861660E-002  1.549249646109317E-002 -3.296070506432386E-003
 -2.208463747395640E-002 -4.087320444148113E-002 -5.966177140900663E-002
 -7.845033837653026E-002 -9.723890534405710E-002  8.836274603070690E-002
  6.957417906317916E-002  5.078561209565455E-002  3.199704512813133E-002
  1.320847816060574E-002 -5.580088806918325E-003 -2.436865577444332E-002
 -4.315722274196779E-002 -6.194578970949285E-002 -8.073435667701870E-002
 -9.952292364454281E-002  8.670507858586747E-002  6.791651161834358E-002
  4.912794465081707E-002  3.033937768329251E-002  1.155081071576750E-002
 -7.237756251757671E-003 -2.602632321928118E-002 -4.481489018680630E-002
 -6.360345715433104E-002 -8.239202412185592E-002 -0.101180591089381     
  8.569990440252356E-002  6.691133743500029E-002  4.812277046747596E-002
  2.933420349994944E-002  1.054563653242393E-002 -8.242930435098578E-003
 -2.703149740262392E-002 -4.582006437014764E-002 -6.460863133767311E-002
 -8.339719830519807E-002 -0.102185765272722       8.536307567800941E-002
  6.657450871048759E-002  4.778594174296178E-002  2.899737477543710E-002
  1.020880780791165E-002 -8.579759159611407E-003 -2.736832612713753E-002
 -4.615689309466254E-002 -6.494546006218622E-002 -8.373402702971261E-002
 -0.102522593997237     
 -0.206690884671804      -0.204998803819137      -0.203306722966469     
 -0.201614642113803      -0.199922561261135      -0.198230480408469     
 -0.196538399555801      -0.194846318703134      -0.193154237850467     
 -0.191462156997801      -0.189770076145134      -0.210430971345043     
 -0.208738890492376      -0.207046809639708      -0.205354728787041     
 -0.203662647934375      -0.201970567081707      -0.200278486229040     
 -0.198586405376374      -0.196894324523707      -0.195202243671040     
 -0.193510162818373      -0.221592247963702      -0.219900167111035     
 -0.218208086258368      -0.216516005405701      -0.214823924553034     
 -0.213131843700367      -0.211439762847700      -0.209747681995034     
 -0.208055601142366      -0.206363520289699      -0.204671439437032     
 -0.239998694528084      -0.238306613675417      -0.236614532822750     
 -0.234922451970083      -0.233230371117416      -0.231538290264749     
 -0.229846209412082      -0.228154128559415      -0.226462047706748     
 -0.224769966854081      -0.223077886001414      -0.265360030380388     
 -0.263667949527721      -0.261975868675054      -0.260283787822387     
 -0.258591706969720      -0.256899626117053      -0.255207545264386     
 -0.253515464411719      -0.251823383559052      -0.250131302706386     
 -0.248439221853718      -0.297276292104096      -0.295584211251430     
 -0.293892130398762      -0.292200049546096      -0.290507968693429     
 -0.288815887840762      -0.287123806988094      -0.285431726135428     
 -0.283739645282760      -0.282047564430093      -0.280355483577427     
 -0.335244141185976      -0.333552060333310      -0.331859979480642     
 -0.330167898627976      -0.328475817775308      -0.326783736922641     
 -0.325091656069974      -0.323399575217307      -0.321707494364641     
 -0.320015413511973      -0.318323332659306      -0.378664801965112     
 -0.376972721112445      -0.375280640259779      -0.373588559407111     
 -0.371896478554444      -0.370204397701777      -0.368512316849110     
 -0.366820235996443      -0.365128155143776      -0.363436074291109     
 -0.361743993438443      -0.426853504682771      -0.425161423830105     
 -0.423469342977438      -0.421777262124770      -0.420085181272103     
 -0.418393100419436      -0.416701019566769      -0.415008938714103     
 -0.413316857861435      -0.411624777008769      -0.409932696156102     
 -0.479050284710561      -0.477358203857894      -0.475666123005227     
 -0.473974042152559      -0.472281961299893      -0.470589880447226     
 -0.468897799594559      -0.467205718741892      -0.465513637889225     
 -0.463821557036558      -0.462129476183891      -0.534431967646599     
 -0.532739886793932      -0.531047805941264      -0.529355725088597     
 -0.527663644235930      -0.525971563383263      -0.524279482530596     
 -0.522587401677929      -0.520895320825264      -0.519203239972595     
 -0.517511159119928      -0.592125151267567      -0.590433070414899     
 -0.588740989562233      -0.587048908709566      -0.585356827856899     
 -0.583664747004233      -0.581972666151564      -0.580280585298898     
 -0.578588504446232      -0.576896423593565      -0.575204342740897     
 -0.651219979603528      -0.649527898750861      -0.647835817898194     
 -0.646143737045528      -0.644451656192859      -0.642759575340193     
 -0.641067494487526      -0.639375413634859      -0.637683332782192     
 -0.635991251929525      -0.634299171076858      -0.710784491910084     
 -0.709092411057417      -0.707400330204749      -0.705708249352083     
 -0.704016168499417      -0.702324087646750      -0.700632006794081     
 -0.698939925941415      -0.697247845088747      -0.695555764236080     
 -0.693863683383414      -0.769879320246045      -0.768187239393379     
 -0.766495158540711      -0.764803077688045      -0.763110996835378     
 -0.761418915982710      -0.759726835130043      -0.758034754277375     
 -0.756342673424710      -0.754650592572043      -0.752958511719376     
 -0.827572503867012      -0.825880423014347      -0.824188342161680     
 -0.822496261309013      -0.820804180456348      -0.819112099603679     
 -0.817420018751012      -0.815727937898345      -0.814035857045676     
 -0.812343776193011      -0.810651695340345      -0.882954186803052     
 -0.881262105950383      -0.879570025097717      -0.877877944245051     
 -0.876185863392383      -0.874493782539715      -0.872801701687048     
 -0.871109620834382      -0.869417539981714      -0.867725459129049     
 -0.866033378276382      -0.935150966830840      -0.933458885978173     
 -0.931766805125505      -0.930074724272841      -0.928382643420172     
 -0.926690562567506      -0.924998481714839      -0.923306400862172     
 -0.921614320009504      -0.919922239156837      -0.918230158304170     
 -0.983339669548501      -0.981647588695833      -0.979955507843165     
 -0.978263426990499      -0.976571346137832      -0.974879265285163     
 -0.973187184432496      -0.971495103579832      -0.969803022727165     
 -0.968110941874496      -0.966418861021829       -1.02676033032764     
  -1.02506824947497       -1.02337616862230       -1.02168408776963     
  -1.01999200691697       -1.01829992606430       -1.01660784521163     
  -1.01491576435897       -1.01322368350630       -1.01153160265363     
  -1.00983952180096       -1.06472817940951       -1.06303609855685     
  -1.06134401770418       -1.05965193685152       -1.05795985599885     
  -1.05626777514618       -1.05457569429352       -1.05288361344085     
  -1.05119153258818       -1.04949945173551       -1.04780737088284     
  -1.09664444113322       -1.09495236028056       -1.09326027942789     
  -1.09156819857522       -1.08987611772256       -1.08818403686989     
  -1.08649195601722       -1.08479987516455       -1.08310779431189     
  -1.08141571345922       -1.07972363260656       -1.12200577698553     
  -1.12031369613286       -1.11862161528020       -1.11692953442753     
  -1.11523745357486       -1.11354537272219       -1.11185329186952     
  -1.11016121101686       -1.10846913016419       -1.10677704931153     
  -1.10508496845886       -1.14041222354991       -1.13872014269724     
  -1.13702806184458       -1.13533598099191       -1.13364390013924     
  -1.13195181928658       -1.13025973843391       -1.12856765758124     
  -1.12687557672857       -1.12518349587591       -1.12349141502324     
  -1.15157350016857       -1.14988141931590       -1.14818933846323     
  -1.14649725761057       -1.14480517675790       -1.14311309590523     
  -1.14142101505257       -1.13972893419990       -1.13803685334723     
  -1.13634477249457       -1.13465269164190       -1.15531358684181     
  -1.15362150598914       -1.15192942513647       -1.15023734428381     
  -1.14854526343114       -1.14685318257847       -1.14516110172581     
  -1.14346902087314       -1.14177694002047       -1.14008485916781     
  -1.13839277831514     
  2.651247573289247E-002  2.386122815960322E-002  2.120998058631397E-002
  1.855873301302472E-002  1.590748543973548E-002  1.325623786644623E-002
  1.060499029315698E-002  7.953742719867740E-003  5.302495146578492E-003
  2.651247573289244E-003  0.000000000000000E+000  2.651247573289247E-002
  2.386122815960322E-002  2.120998058631397E-002  1.855873301302472E-002
  1.590748543973548E-002  1.325623786644623E-002  1.060499029315698E-002
  7.953742719867740E-003  5.302495146578492E-003  2.651247573289244E-003
  0.000000000000000E+000  2.651247573289247E-002  2.386122815960322E-002
  2.120998058631397E-002  1.855873301302472E-002  1.590748543973548E-002
  1.325623786644623E-002  1.060499029315698E-002  7.953742719867740E-003
  5.302495146578492E-003  2.651247573289244E-003  0.000000000000000E+000
  2.651247573289247E-002  2.386122815960322E-002  2.120998058631397E-002
  1.855873301302472E-002  1.590748543973548E-002  1.325623786644623E-002
  1.060499029315698E-002  7.953742719867740E-003  5.302495146578492E-003
  2.651247573289244E-003  0.000000000000000E+000  2.651247573289247E-002
  2.386122815960322E-002  2.120998058631397E-002  1.855873301302472E-002
  1.590748543973548E-002  1.325623786644623E-002  1.060499029315698E-002
  7.953742719867740E-003  5.302495146578492E-003  2.651247573289244E-003
  0.000000000000000E+000  2.651247573289247E-002  2.386122815960322E-002
  2.120998058631397E-002  1.855873301302472E-002  1.590748543973548E-002
  1.325623786644623E-002  1.060499029315698E-002  7.953742719867740E-003
  5.302495146578492E-003  2.651247573289244E-003  0.000000000000000E+000
  2.651247573289247E-002  2.386122815960322E-002  2.120998058631397E-002
  1.855873301302472E-002  1.590748543973548E-002  1.325623786644623E-002
  1.060499029315698E-002  7.953742719867740E-003  5.302495146578492E-003
  2.651247573289244E-003  0.000000000000000E+000  2.651247573289247E-002
  2.386122815960322E-002  2.120998058631397E-002  1.855873301302472E-002
  1.590748543973548E-002  1.325623786644623E-002  1.060499029315698E-002
  7.953742719867740E-003  5.302495146578492E-003  2.651247573289244E-003
  0.000000000000000E+000  2.651247573289247E-002  2.386122815960322E-002
  2.120998058631397E-002  1.855873301302472E-002  1.590748543973548E-002
  1.325623786644623E-002  1.060499029315698E-002  7.953742719867740E-003
  5.302495146578492E-003  2.651247573289244E-003  0.000000000000000E+000
  2.651247573289247E-002  2.386122815960322E-002  2.120998058631397E-002
  1.855873301302472E-002  1.590748543973548E-002  1.325623786644623E-002
  1.060499029315698E-002  7.953742719867740E-003  5.302495146578492E-003
  2.651247573289244E-003  0.000000000000000E+000  2.651247573289247E-002
  2.386122815960322E-002  2.120998058631397E-002  1.855873301302472E-002
  1.590748543973548E-002  1.325623786644623E-002  1.060499029315698E-002
  7.953742719867740E-003  5.302495146578492E-003  2.651247573289244E-003
  0.000000000000000E+000  2.651247573289247E-002  2.386122815960322E-002
  2.120998058631397E-002  1.855873301302472E-002  1.590748543973548E-002
  1.325623786644623E-002  1.060499029315698E-002  7.953742719867740E-003
  5.302495146578492E-003  2.651247573289244E-003  0.000000000000000E+000
  2.651247573289247E-002  2.386122815960322E-002  2.120998058631397E-002
  1.855873301302472E-002  1.590748543973548E-002  1.325623786644623E-002
  1.060499029315698E-002  7.953742719867740E-003  5.302495146578492E-003
  2.651247573289244E-003  0.000000000000000E+000  2.651247573289247E-002
  2.386122815960322E-002  2.120998058631397E-002  1.855873301302472E-002
  1.590748543973548E-002  1.325623786644623E-002  1.060499029315698E-002
  7.953742719867740E-003  5.302495146578492E-003  2.651247573289244E-003
  0.000000000000000E+000  2.651247573289247E-002  2.386122815960322E-002
  2.120998058631397E-002  1.855873301302472E-002  1.590748543973548E-002
  1.325623786644623E-002  1.060499029315698E-002  7.953742719867740E-003
  5.302495146578492E-003  2.651247573289244E-003  0.000000000000000E+000
  2.651247573289247E-002  2.386122815960322E-002  2.120998058631397E-002
  1.855873301302472E-002  1.590748543973548E-002  1.325623786644623E-002
  1.060499029315698E-002  7.953742719867740E-003  5.302495146578492E-003
  2.651247573289244E-003  0.000000000000000E+000  2.651247573289247E-002
  2.386122815960322E-002  2.120998058631397E-002  1.855873301302472E-002
  1.590748543973548E-002  1.325623786644623E-002  1.060499029315698E-002
  7.953742719867740E-003  5.302495146578492E-003  2.651247573289244E-003
  0.000000000000000E+000  2.651247573289247E-002  2.386122815960322E-002
  2.120998058631397E-002  1.855873301302472E-002  1.590748543973548E-002
  1.325623786644623E-002  1.060499029315698E-002  7.953742719867740E-003
  5.302495146578492E-003  2.651247573289244E-003  0.000000000000000E+000
  2.651247573289247E-002  2.386122815960322E-002  2.120998058631397E-002
  1.855873301302472E-002  1.590748543973548E-002  1.325623786644623E-002
  1.060499029315698E-002  7.953742719867740E-003  5.302495146578492E-003
  2.651247573289244E-003  0.000000000000000E+000  2.651247573289247E-002
  2.386122815960322E-002  2.120998058631397E-002  1.855873301302472E-002
  1.590748543973548E-002  1.325623786644623E-002  1.060499029315698E-002
  7.953742719867740E-003  5.302495146578492E-003  2.651247573289244E-003
  0.000000000000000E+000  2.651247573289247E-002  2.386122815960322E-002
  2.120998058631397E-002  1.855873301302472E-002  1.590748543973548E-002
  1.325623786644623E-002  1.060499029315698E-002  7.953742719867740E-003
  5.302495146578492E-003  2.651247573289244E-003  0.000000000000000E+000
  2.651247573289247E-002  2.386122815960322E-002  2.120998058631397E-002
  1.855873301302472E-002  1.590748543973548E-002  1.325623786644623E-002
  1.060499029315698E-002  7.953742719867740E-003  5.302495146578492E-003
  2.651247573289244E-003  0.000000000000000E+000  2.651247573289247E-002
  2.386122815960322E-002  2.120998058631397E-002  1.855873301302472E-002
  1.590748543973548E-002  1.325623786644623E-002  1.060499029315698E-002
  7.953742719867740E-003  5.302495146578492E-003  2.651247573289244E-003
  0.000000000000000E+000  2.651247573289247E-002  2.386122815960322E-002
  2.120998058631397E-002  1.855873301302472E-002  1.590748543973548E-002
  1.325623786644623E-002  1.060499029315698E-002  7.953742719867740E-003
  5.302495146578492E-003  2.651247573289244E-003  0.000000000000000E+000
  2.651247573289247E-002  2.386122815960322E-002  2.120998058631397E-002
  1.855873301302472E-002  1.590748543973548E-002  1.325623786644623E-002
  1.060499029315698E-002  7.953742719867740E-003  5.302495146578492E-003
  2.651247573289244E-003  0.000000000000000E+000  2.651247573289247E-002
  2.386122815960322E-002  2.120998058631397E-002  1.855873301302472E-002
  1.590748543973548E-002  1.325623786644623E-002  1.060499029315698E-002
  7.953742719867740E-003  5.302495146578492E-003  2.651247573289244E-003
  0.000000000000000E+000
 -1.252198943339387E-003  1.046637167617190E-002  2.463223676977738E-002
  4.084425073716543E-002  5.635907069749464E-002  6.905946463022107E-002
  7.991015477507572E-002  8.889979038131002E-002  9.639029832254208E-002
  0.102945269531708      -2.875901964165989E-003  1.455444265525262E-002
  3.683902172180888E-002  6.253616347310592E-002  8.768452341546962E-002
  0.109317683401110       0.128291866403968       0.144286505182340     
  0.157808653764832       0.169948992102209      -3.861384321743477E-003
  1.467094385964692E-002  4.018336011255994E-002  7.014728013785312E-002
  0.100704793712123       0.129526676039989       0.156413320220143     
  0.180265154157719       0.201008761585658       0.218784076851265     
  1.829334114818072E-003  2.131839531953129E-002  4.705331975420152E-002
  7.639531075999403E-002  0.107665699035289       0.139529244271646     
  0.170888161009984       0.200267293761926       0.226683029438679     
  0.248807986928520       2.064244677660363E-002  4.644546977023283E-002
  7.529070354313416E-002  0.106100347876122       0.138224131104346     
  0.171086979566428       0.203883001764800       0.235437925731396     
  0.264485231208440       0.288920491311917       5.574171437065260E-002
  9.593735853291976E-002  0.133744689083189       0.170582970449812     
  0.206824673300589       0.242367604248721       0.276791401093258     
  0.309476057377179       0.339467500518812       0.364629144982834     
  0.107409385966466       0.170273205305252       0.222968870189508     
  0.270473984161193       0.314374620217587       0.355264923812992     
  0.393212113688576       0.427954563878192       0.458906058000272     
  0.484174165970846       0.174749089167524       0.267632320961867     
  0.340268488186576       0.402296384128572       0.457035791024283     
  0.505934927321858       0.549630241009884       0.588247656988087     
  0.621377796258327       0.647175247158368       0.255467751354262     
  0.384631144490719       0.481572743711968       0.561508813191854     
  0.629879189823684       0.689189849817560       0.740686790282470     
  0.784876595967296       0.821535745046120       0.848767597537729     
  0.347213526815065       0.517863913877739       0.642753952955520     
  0.743422528890056       0.827728424137128       0.899392055003105     
  0.960346414112199        1.01148865016002        1.05276872914519     
   1.08222046228926       0.447687850645528       0.663948322584892     
  0.819665842299635       0.943279282388455        1.04530162054616     
   1.13078985242994        1.20243530598813        1.26156912235208     
   1.30833142783588        1.34066987407003       0.554948130606777     
  0.820009187722838        1.00878033274546        1.15704008652649     
   1.27812638652385        1.37852550315178        1.46174566671499     
   1.52959818572961        1.58244876185578        1.61815807839256     
  0.667512081321011       0.983806238609415        1.20728549137482     
   1.38142061697498        1.52251241975502        1.63855140736576     
   1.73391054956202        1.81091442189988        1.87019081950592     
   1.90953981234696       0.784215053076965        1.15351563159104     
   1.41281687006461        1.61357632468398        1.77517617419184     
   1.90718176600780        2.01488106292748        2.10114820391206     
   2.16690436943333        2.20993769835209       0.904290287985060     
   1.32789330024157        1.62368777468924        1.85137753484380     
   2.03353672636632        2.18138128153607        2.30118146435624     
   2.39642241109052        2.46837379514697        2.51488078633677     
   1.02890694803434        1.50839909726584        1.84130548283734     
   2.09595243832070        2.29830091126307        2.46135219336407     
   2.59247491702157        2.69587744493169        2.77328992748704     
   2.82274797192808        1.16700375244231        1.70676480273539     
   2.07834918626453        2.36005957810089        2.58191987198367     
   2.75910450227815        2.90030742419485        3.01061887268648     
   3.09237988975092        3.14400287481079        1.35220333854715     
   1.96410370740745        2.37760534219234        2.68687977031864     
   2.92811765371888        3.11925437185003        3.27047717060458     
   3.38785116812861        3.47437653129531        3.52877025106861     
   1.59783769631802        2.29756764291598        2.75747062837602     
   3.09448029186842        3.35345203890977        3.55616073271499     
   3.71494882989272        3.83724600684113        3.92692455655545     
   3.98320515944679        1.76395205681921        2.51959437166633     
   3.00531780649221        3.35323919543362        3.61475195210739     
   3.81555612357945        3.97029227491040        4.08768018094253     
   4.17240292244826        4.22461789742808        1.80237683882162     
   2.55461744775653        3.02611843103325        3.35639595279799     
   3.60006780477565        3.78432436315195        3.92437867266227     
   4.02903624411079        4.10295608143258        4.14698169732062     
   1.69896402773062        2.37893171818824        2.79098253840810     
   3.07273348345751        3.27725642581946        3.43021825520368     
   3.54539132257179        3.63034519099722        3.68876590777601     
   3.72129857577479        1.47269927856963        2.01684436453109     
   2.33424219965712        2.54808640548659        2.70238959105419     
   2.81746458188830        2.90394898952573        2.96763033526909     
   3.01144061433173        3.03620754867142        1.12700886846891     
   1.49490789502310        1.70665994282256        1.84968293076962     
   1.95325958877057        2.03075529335222        2.08922514996845     
   2.13266598384487        2.16367112050860        2.18598112726437     
  0.685270853361023       0.891307067024551        1.01102957031700     
   1.09235746027481        1.15146559233383        1.19579639700702     
   1.22929969454522        1.25419292225159        1.27168901044143     
   1.28212544670945     
  0.000000000000000E+000  0.000000000000000E+000  0.000000000000000E+000
  0.000000000000000E+000  0.000000000000000E+000  0.000000000000000E+000
  0.000000000000000E+000  0.000000000000000E+000  0.000000000000000E+000
  0.000000000000000E+000  0.000000000000000E+000  0.000000000000000E+000
  0.000000000000000E+000  0.000000000000000E+000  0.000000000000000E+000
  0.000000000000000E+000  0.000000000000000E+000  0.000000000000000E+000
  0.000000000000000E+000  0.000000000000000E+000  0.000000000000000E+000
  0.000000000000000E+000  0.000000000000000E+000  0.000000000000000E+000
  0.000000000000000E+000  0.000000000000000E+000  0.000000000000000E+000
  0.000000000000000E+000  0.000000000000000E+000  0.000000000000000E+000
  0.000000000000000E+000  0.000000000000000E+000  0.000000000000000E+000
  0.000000000000000E+000  0.000000000000000E+000  0.000000000000000E+000
  0.000000000000000E+000  0.000000000000000E+000  0.000000000000000E+000
  0.000000000000000E+000  0.000000000000000E+000  0.000000000000000E+000
  0.000000000000000E+000  0.000000000000000E+000  0.000000000000000E+000
  0.000000000000000E+000  0.000000000000000E+000  0.000000000000000E+000
  0.000000000000000E+000  0.000000000000000E+000  0.000000000000000E+000
  0.000000000000000E+000  0.000000000000000E+000  0.000000000000000E+000
  0.000000000000000E+000  0.000000000000000E+000  0.000000000000000E+000
  0.000000000000000E+000  0.000000000000000E+000  0.000000000000000E+000
  0.000000000000000E+000  0.000000000000000E+000  0.000000000000000E+000
  0.000000000000000E+000  0.000000000000000E+000  0.000000000000000E+000
  0.000000000000000E+000  0.000000000000000E+000  0.000000000000000E+000
  0.000000000000000E+000  0.000000000000000E+000  0.000000000000000E+000
  0.000000000000000E+000  0.000000000000000E+000  0.000000000000000E+000
  0.000000000000000E+000  0.000000000000000E+000  0.000000000000000E+000
  0.000000000000000E+000  0.000000000000000E+000  0.000000000000000E+000
  0.000000000000000E+000  0.000000000000000E+000  0.000000000000000E+000
  0.000000000000000E+000  0.000000000000000E+000  0.000000000000000E+000
  0.000000000000000E+000  0.000000000000000E+000  0.000000000000000E+000
  0.000000000000000E+000  0.000000000000000E+000  0.000000000000000E+000
  0.000000000000000E+000  0.000000000000000E+000  0.000000000000000E+000
  0.000000000000000E+000  0.000000000000000E+000  0.000000000000000E+000
  0.000000000000000E+000  0.000000000000000E+000  0.000000000000000E+000
  0.000000000000000E+000  0.000000000000000E+000  0.000000000000000E+000
  0.000000000000000E+000  0.000000000000000E+000  0.000000000000000E+000
  0.000000000000000E+000  0.000000000000000E+000  0.000000000000000E+000
  0.000000000000000E+000  0.000000000000000E+000  0.000000000000000E+000
  0.000000000000000E+000  0.000000000000000E+000  0.000000000000000E+000