 Title = "Wing and Wake"
 VARIABLES = "X" "Y" "Z" "GAM" "skew"
 Zone I=   11 J=   26 K=1  T="Blade"
 DATAPACKING=BLOCK
 VARLOCATION=([4]=CELLCENTERED,[5]=CELLCENTERED)
 -0.111460056582042      -9.375016634320495E-002 -7.604027610436777E-002
 -5.833038586553057E-002 -4.062049562669338E-002 -2.291060538785635E-002
 -5.200715149019040E-003  1.250917508981824E-002  3.021906532865536E-002
  4.792895556749224E-002  6.563884580632960E-002 -0.110166412307698     
 -9.245652206886072E-002 -7.474663183002336E-002 -5.703674159118629E-002
 -3.932685135234910E-002 -2.161696111351197E-002 -3.907070874674746E-003
  1.380281936416243E-002  3.151270960299959E-002  4.922259984183674E-002
  6.693249008067401E-002 -0.106305881027657      -8.859599078881986E-002
 -7.088610054998262E-002 -5.317621031114552E-002 -3.546632007230829E-002
 -1.775642983347115E-002 -4.653959463412901E-005  1.766335064420320E-002
  3.537324088304034E-002  5.308313112187729E-002  7.079302136071444E-002
 -9.993934562637531E-002 -8.222945538753813E-002 -6.451956514870084E-002
 -4.680967490986388E-002 -2.909978467102681E-002 -1.138989443218951E-002
  6.319995806647469E-003  2.402988604548434E-002  4.173977628432188E-002
  5.944966652315878E-002  7.715955676199583E-002 -9.116721017031547E-002
 -7.345731993147810E-002 -5.574742969264111E-002 -3.803753945380390E-002
 -2.032764921496689E-002 -2.617758976129328E-003  1.509213126270743E-002
  3.280202150154470E-002  5.051191174038173E-002  6.822180197921893E-002
  8.593169221805617E-002 -8.012781647583878E-002 -6.241792623700143E-002
 -4.470803599816435E-002 -2.699814575932717E-002 -9.288255520490094E-003
  8.421634718347278E-003  2.613152495718443E-002  4.384141519602141E-002
  6.155130543485825E-002  7.926119567369559E-002  9.697108591253324E-002
 -6.699526237612066E-002 -4.928537213728378E-002 -3.157548189844709E-002
 -1.386559165960980E-002  3.844298579227663E-003  2.155418881806434E-002
  3.926407905690159E-002  5.697396929573924E-002  7.468385953457640E-002
  9.239374977341326E-002  0.110103640012250      -5.197665609432298E-002
 -3.426676585548574E-002 -1.655687561664826E-002  1.153014622188358E-003
  1.886290486102579E-002  3.657279509986313E-002  5.428268533870041E-002
  7.199257557753737E-002  8.970246581637455E-002  0.107412356055212     
  0.125122246294049      -3.530885002318853E-002 -1.759895978435128E-002
  1.109304544858919E-004  1.782082069332264E-002  3.553071093216055E-002
  5.324060117099741E-002  7.095049140983423E-002  8.866038164867188E-002
  0.106370271887509       0.124080162126346       0.141790052365183     
 -1.725470542132417E-002  4.551848175126602E-004  1.816507505635000E-002
  3.587496529518679E-002  5.358485553402424E-002  7.129474577286120E-002
  8.900463601169847E-002  0.106714526250536       0.124424416489373     
  0.142134306728210       0.159844196967047       1.901053065874511E-003
  1.961094330471223E-002  3.732083354354892E-002  5.503072378238583E-002
  7.274061402122346E-002  9.045050426006014E-002  0.108160394498898     
  0.125870284737735       0.143580174976572       0.161290065215409     
  0.178999955454246       2.185632768397006E-002  3.956621792280782E-002
  5.727610816164516E-002  7.498599840048088E-002  9.269588863931887E-002
  0.110405778878156       0.128115669116993       0.145825559355830     
  0.163535449594667       0.181245339833505       0.198955230072341     
  4.229641183153188E-002  6.000630207036822E-002  7.771619230920621E-002
  9.542608254804250E-002  0.113135972786880       0.130845863025717     
  0.148555753264555       0.166265643503392       0.183975533742229     
  0.201685423981065       0.219395314219903       6.289895317123760E-002
  8.060884341007490E-002  9.831873364891196E-002  0.116028623887749     
  0.133738514126586       0.151448404365423       0.169158294604260     
  0.186868184843096       0.204578075081935       0.222287965320772     
  0.239997855559609       8.333903731879855E-002  0.101048927557636     
  0.118758817796473       0.136468708035311       0.154178598274147     
  0.171888488512984       0.189598378751822       0.207308268990658     
  0.225018159229496       0.242728049468333       0.260437939707171     
  0.103294311936894       0.121004202175732       0.138714092414568     
  0.156423982653406       0.174133872892243       0.191843763131079     
  0.209553653369917       0.227263543608755       0.244973433847591     
  0.262683324086429       0.280393214325266       0.122450070424095     
  0.140159960662930       0.157869850901767       0.175579741140605     
  0.193289631379442       0.210999521618278       0.228709411857116     
  0.246419302095953       0.264129192334791       0.281839082573628     
  0.299548972812465       0.140504215025957       0.158214105264795     
  0.175923995503631       0.193633885742470       0.211343775981306     
  0.229053666220144       0.246763556458981       0.264473446697817     
  0.282183336936655       0.299893227175492       0.317603117414328     
  0.157172021097092       0.174881911335928       0.192591801574767     
  0.210301691813604       0.228011582052440       0.245721472291277     
  0.263431362530115       0.281141252768952       0.298851143007789     
  0.316561033246626       0.334270923485463       0.172190627378890     
  0.189900517617727       0.207610407856563       0.225320298095401     
  0.243030188334239       0.260740078573076       0.278449968811913     
  0.296159859050750       0.313869749289588       0.331579639528423     
  0.349289529767261       0.185323181478607       0.203033071717445     
  0.220742961956281       0.238452852195119       0.256162742433957     
  0.273872632672793       0.291582522911631       0.309292413150467     
  0.327002303389305       0.344712193628143       0.362422083866978     
  0.196362575173085       0.214072465411922       0.231782355650760     
  0.249492245889596       0.267202136128432       0.284912026367270     
  0.302621916606106       0.320331806844944       0.338041697083781     
  0.355751587322618       0.373461477561457       0.205134710629143     
  0.222844600867982       0.240554491106819       0.258264381345655     
  0.275974271584493       0.293684161823330       0.311394052062167     
  0.329103942301004       0.346813832539842       0.364523722778680     
  0.382233613017516       0.211501246030426       0.229211136269262     
  0.246921026508100       0.264630916746937       0.282340806985774     
  0.300050697224612       0.317760587463449       0.335470477702286     
  0.353180367941123       0.370890258179960       0.388600148418797     
  0.215361777310468       0.233071667549303       0.250781557788140     
  0.268491448026978       0.286201338265817       0.303911228504652     
  0.321621118743490       0.339331008982325       0.357040899221164     
  0.374750789460002       0.392460679698838       0.216655421584812     
  0.234365311823648       0.252075202062486       0.269785092301322     
  0.287494982540159       0.305204872778996       0.322914763017834     
  0.340624653256671       0.358334543495508       0.376044433734347     
  0.393754323973183     
  0.243862178225428       0.237363472659435       0.230864767093442     
  0.224366061527449       0.217867355961456       0.211368650395464     
  0.204869944829471       0.198371239263478       0.191872533697485     
  0.185373828131493       0.178875122565500       0.247387541526487     
  0.240888835960494       0.234390130394501       0.227891424828508     
  0.221392719262515       0.214894013696523       0.208395308130530     
  0.201896602564537       0.195397896998544       0.188899191432552     
  0.182400485866559       0.257908034344455       0.251409328778462     
  0.244910623212469       0.238411917646477       0.231913212080484     
  0.225414506514491       0.218915800948498       0.212417095382506     
  0.205918389816513       0.199419684250520       0.192920978684527     
  0.275257742222957       0.268759036656964       0.262260331090971     
  0.255761625524978       0.249262919958986       0.242764214392993     
  0.236265508827000       0.229766803261007       0.223268097695014     
  0.216769392129022       0.210270686563029       0.299163049904534     
  0.292664344338541       0.286165638772548       0.279666933206555     
  0.273168227640563       0.266669522074570       0.260170816508577     
  0.253672110942584       0.247173405376591       0.240674699810599     
  0.234175994244606       0.329246956406709       0.322748250840717     
  0.316249545274724       0.309750839708731       0.303252134142738     
  0.296753428576746       0.290254723010752       0.283756017444760     
  0.277257311878767       0.270758606312774       0.264259900746782     
  0.365035020552690       0.358536314986697       0.352037609420705     
  0.345538903854712       0.339040198288719       0.332541492722726     
  0.326042787156733       0.319544081590740       0.313045376024747     
  0.306546670458755       0.300047964892761       0.405962843192139     
  0.399464137626147       0.392965432060154       0.386466726494161     
  0.379968020928168       0.373469315362176       0.366970609796182     
  0.360471904230190       0.353973198664197       0.347474493098205     
  0.340975787532212       0.451384968112938       0.444886262546946     
  0.438387556980953       0.431888851414960       0.425390145848967     
  0.418891440282974       0.412392734716981       0.405894029150989     
  0.399395323584996       0.392896618019004       0.386397912453011     
  0.500585061271223       0.494086355705230       0.487587650139237     
  0.481088944573243       0.474590239007251       0.468091533441259     
  0.461592827875266       0.455094122309273       0.448595416743280     
  0.442096711177287       0.435598005611295       0.552787207807176     
  0.546288502241184       0.539789796675190       0.533291091109197     
  0.526792385543205       0.520293679977212       0.513794974411219     
  0.507296268845227       0.500797563279234       0.494298857713241     
  0.487800152147248       0.607168148685876       0.600669443119881     
  0.594170737553890       0.587672031987896       0.581173326421903     
  0.574674620855911       0.568175915289918       0.561677209723926     
  0.555178504157933       0.548679798591940       0.542181093025947     
  0.662870263984063       0.656371558418070       0.649872852852077     
  0.643374147286086       0.636875441720092       0.630376736154099     
  0.623878030588106       0.617379325022114       0.610880619456121     
  0.604381913890129       0.597883208324136       0.719015098068658     
  0.712516392502665       0.706017686936672       0.699518981370679     
  0.693020275804687       0.686521570238694       0.680022864672700     
  0.673524159106708       0.667025453540715       0.660526747974722     
  0.654028042408730       0.774717213366846       0.768218507800854     
  0.761719802234861       0.755221096668869       0.748722391102876     
  0.742223685536882       0.735724979970889       0.729226274404896     
  0.722727568838905       0.716228863272912       0.709730157706919     
  0.829098154245544       0.822599448679552       0.816100743113559     
  0.809602037547567       0.803103331981575       0.796604626415581     
  0.790105920849589       0.783607215283595       0.777108509717601     
  0.770609804151610       0.764111098585618       0.881300300781498     
  0.874801595215505       0.868302889649513       0.861804184083520     
  0.855305478517527       0.848806772951533       0.842308067385540     
  0.835809361819549       0.829310656253556       0.822811950687564     
  0.816313245121571       0.930500393939782       0.924001688373789     
  0.917502982807796       0.911004277241805       0.904505571675811     
  0.898006866109819       0.891508160543826       0.885009454977833     
  0.878510749411840       0.872012043845847       0.865513338279854     
  0.975922518860582       0.969423813294589       0.962925107728595     
  0.956426402162602       0.949927696596611       0.943428991030616     
  0.936930285464624       0.930431579898632       0.923932874332640     
  0.917434168766646       0.910935463200654        1.01685034150003     
   1.01035163593404        1.00385293036804       0.997354224802052     
  0.990855519236060       0.984356813670066       0.977858108104075     
  0.971359402538082       0.964860696972090       0.958361991406096     
  0.951863285840103        1.05263840564601        1.04613970008002     
   1.03964099451402        1.03314228894803        1.02664358338204     
   1.02014487781605        1.01364617225006        1.00714746668406     
   1.00064876111807       0.994150055552076       0.987651349986082     
   1.08272231214819        1.07622360658220        1.06972490101620     
   1.06322619545021        1.05672748988422        1.05022878431822     
   1.04373007875223        1.03723137318624        1.03073266762024     
   1.02423396205425        1.01773525648826        1.10662761982977     
   1.10012891426377        1.09363020869778        1.08713150313178     
   1.08063279756579        1.07413409199980        1.06763538643381     
   1.06113668086781        1.05463797530182        1.04813926973583     
   1.04164056416984        1.12397732770827        1.11747862214227     
   1.11097991657628        1.10448121101029        1.09798250544429     
   1.09148379987830        1.08498509431231        1.07848638874632     
   1.07198768318032        1.06548897761433        1.05899027204834     
   1.13449782052623        1.12799911496024        1.12150040939425     
   1.11500170382826        1.10850299826226        1.10200429269627     
   1.09550558713028        1.08900688156428        1.08250817599829     
   1.07600947043230        1.06951076486631        1.13802318382729     
   1.13152447826130        1.12502577269531        1.11852706712932     
   1.11202836156332        1.10552965599733        1.09903095043134     
   1.09253224486534        1.08603353929935        1.07953483373336     
   1.07303612816737     
  2.651247573289247E-002  2.386122815960322E-002  2.120998058631397E-002
  1.855873301302472E-002  1.590748543973548E-002  1.325623786644623E-002
  1.060499029315698E-002  7.953742719867740E-003  5.302495146578492E-003
  2.651247573289244E-003  0.000000000000000E+000  2.651247573289247E-002
  2.386122815960322E-002  2.120998058631397E-002  1.855873301302472E-002
  1.590748543973548E-002  1.325623786644623E-002  1.060499029315698E-002
  7.953742719867740E-003  5.302495146578492E-003  2.651247573289244E-003
  0.000000000000000E+000  2.651247573289247E-002  2.386122815960322E-002
  2.120998058631397E-002  1.855873301302472E-002  1.590748543973548E-002
  1.325623786644623E-002  1.060499029315698E-002  7.953742719867740E-003
  5.302495146578492E-003  2.651247573289244E-003  0.000000000000000E+000
  2.651247573289247E-002  2.386122815960322E-002  2.120998058631397E-002
  1.855873301302472E-002  1.590748543973548E-002  1.325623786644623E-002
  1.060499029315698E-002  7.953742719867740E-003  5.302495146578492E-003
  2.651247573289244E-003  0.000000000000000E+000  2.651247573289247E-002
  2.386122815960322E-002  2.120998058631397E-002  1.855873301302472E-002
  1.590748543973548E-002  1.325623786644623E-002  1.060499029315698E-002
  7.953742719867740E-003  5.302495146578492E-003  2.651247573289244E-003
  0.000000000000000E+000  2.651247573289247E-002  2.386122815960322E-002
  2.120998058631397E-002  1.855873301302472E-002  1.590748543973548E-002
  1.325623786644623E-002  1.060499029315698E-002  7.953742719867740E-003
  5.302495146578492E-003  2.651247573289244E-003  0.000000000000000E+000
  2.651247573289247E-002  2.386122815960322E-002  2.120998058631397E-002
  1.855873301302472E-002  1.590748543973548E-002  1.325623786644623E-002
  1.060499029315698E-002  7.953742719867740E-003  5.302495146578492E-003
  2.651247573289244E-003  0.000000000000000E+000  2.651247573289247E-002
  2.386122815960322E-002  2.120998058631397E-002  1.855873301302472E-002
  1.590748543973548E-002  1.325623786644623E-002  1.060499029315698E-002
  7.953742719867740E-003  5.302495146578492E-003  2.651247573289244E-003
  0.000000000000000E+000  2.651247573289247E-002  2.386122815960322E-002
  2.120998058631397E-002  1.855873301302472E-002  1.590748543973548E-002
  1.325623786644623E-002  1.060499029315698E-002  7.953742719867740E-003
  5.302495146578492E-003  2.651247573289244E-003  0.000000000000000E+000
  2.651247573289247E-002  2.386122815960322E-002  2.120998058631397E-002
  1.855873301302472E-002  1.590748543973548E-002  1.325623786644623E-002
  1.060499029315698E-002  7.953742719867740E-003  5.302495146578492E-003
  2.651247573289244E-003  0.000000000000000E+000  2.651247573289247E-002
  2.386122815960322E-002  2.120998058631397E-002  1.855873301302472E-002
  1.590748543973548E-002  1.325623786644623E-002  1.060499029315698E-002
  7.953742719867740E-003  5.302495146578492E-003  2.651247573289244E-003
  0.000000000000000E+000  2.651247573289247E-002  2.386122815960322E-002
  2.120998058631397E-002  1.855873301302472E-002  1.590748543973548E-002
  1.325623786644623E-002  1.060499029315698E-002  7.953742719867740E-003
  5.302495146578492E-003  2.651247573289244E-003  0.000000000000000E+000
  2.651247573289247E-002  2.386122815960322E-002  2.120998058631397E-002
  1.855873301302472E-002  1.590748543973548E-002  1.325623786644623E-002
  1.060499029315698E-002  7.953742719867740E-003  5.302495146578492E-003
  2.651247573289244E-003  0.000000000000000E+000  2.651247573289247E-002
  2.386122815960322E-002  2.120998058631397E-002  1.855873301302472E-002
  1.590748543973548E-002  1.325623786644623E-002  1.060499029315698E-002
  7.953742719867740E-003  5.302495146578492E-003  2.651247573289244E-003
  0.000000000000000E+000  2.651247573289247E-002  2.386122815960322E-002
  2.120998058631397E-002  1.855873301302472E-002  1.590748543973548E-002
  1.325623786644623E-002  1.060499029315698E-002  7.953742719867740E-003
  5.302495146578492E-003  2.651247573289244E-003  0.000000000000000E+000
  2.651247573289247E-002  2.386122815960322E-002  2.120998058631397E-002
  1.855873301302472E-002  1.590748543973548E-002  1.325623786644623E-002
  1.060499029315698E-002  7.953742719867740E-003  5.302495146578492E-003
  2.651247573289244E-003  0.000000000000000E+000  2.651247573289247E-002
  2.386122815960322E-002  2.120998058631397E-002  1.855873301302472E-002
  1.590748543973548E-002  1.325623786644623E-002  1.060499029315698E-002
  7.953742719867740E-003  5.302495146578492E-003  2.651247573289244E-003
  0.000000000000000E+000  2.651247573289247E-002  2.386122815960322E-002
  2.120998058631397E-002  1.855873301302472E-002  1.590748543973548E-002
  1.325623786644623E-002  1.060499029315698E-002  7.953742719867740E-003
  5.302495146578492E-003  2.651247573289244E-003  0.000000000000000E+000
  2.651247573289247E-002  2.386122815960322E-002  2.120998058631397E-002
  1.855873301302472E-002  1.590748543973548E-002  1.325623786644623E-002
  1.060499029315698E-002  7.953742719867740E-003  5.302495146578492E-003
  2.651247573289244E-003  0.000000000000000E+000  2.651247573289247E-002
  2.386122815960322E-002  2.120998058631397E-002  1.855873301302472E-002
  1.590748543973548E-002  1.325623786644623E-002  1.060499029315698E-002
  7.953742719867740E-003  5.302495146578492E-003  2.651247573289244E-003
  0.000000000000000E+000  2.651247573289247E-002  2.386122815960322E-002
  2.120998058631397E-002  1.855873301302472E-002  1.590748543973548E-002
  1.325623786644623E-002  1.060499029315698E-002  7.953742719867740E-003
  5.302495146578492E-003  2.651247573289244E-003  0.000000000000000E+000
  2.651247573289247E-002  2.386122815960322E-002  2.120998058631397E-002
  1.855873301302472E-002  1.590748543973548E-002  1.325623786644623E-002
  1.060499029315698E-002  7.953742719867740E-003  5.302495146578492E-003
  2.651247573289244E-003  0.000000000000000E+000  2.651247573289247E-002
  2.386122815960322E-002  2.120998058631397E-002  1.855873301302472E-002
  1.590748543973548E-002  1.325623786644623E-002  1.060499029315698E-002
  7.953742719867740E-003  5.302495146578492E-003  2.651247573289244E-003
  0.000000000000000E+000  2.651247573289247E-002  2.386122815960322E-002
  2.120998058631397E-002  1.855873301302472E-002  1.590748543973548E-002
  1.325623786644623E-002  1.060499029315698E-002  7.953742719867740E-003
  5.302495146578492E-003  2.651247573289244E-003  0.000000000000000E+000
  2.651247573289247E-002  2.386122815960322E-002  2.120998058631397E-002
  1.855873301302472E-002  1.590748543973548E-002  1.325623786644623E-002
  1.060499029315698E-002  7.953742719867740E-003  5.302495146578492E-003
  2.651247573289244E-003  0.000000000000000E+000  2.651247573289247E-002
  2.386122815960322E-002  2.120998058631397E-002  1.855873301302472E-002
  1.590748543973548E-002  1.325623786644623E-002  1.060499029315698E-002
  7.953742719867740E-003  5.302495146578492E-003  2.651247573289244E-003
  0.000000000000000E+000
  0.184724552235346       0.296496841178585       0.382016129998356     
  0.440185660249026       0.475004924122199       0.492956345592075     
  0.499609096887807       0.498100104344923       0.490182681491034     
  0.477738501120856       0.305745822288084       0.492757048856462     
  0.636811626782554       0.736585923799557       0.797712081313607     
  0.829848537527247       0.841958519306555       0.839713927548110     
  0.826535272969716       0.807013475252843       0.400999385608537     
  0.647120446563493       0.840145105279066       0.980579940883347     
   1.07137970584936        1.12149918213298        1.14135532130414     
   1.13952213671674        1.12074638851717        1.09009479224455     
  0.457999553111572       0.731260169551813       0.947556929858302     
   1.11427862726407        1.22986536870854        1.29784653078447     
   1.32687824676269        1.32719160181266        1.30228850149375     
   1.25777324679849       0.488861318520613       0.760323181970879     
  0.965103597379657        1.12594622772578        1.24630767766389     
   1.32330040047240        1.35946654766341        1.36091968868119     
   1.33042493492580        1.27172856761096       0.497860192565165     
  0.754084079361037       0.933179681495537        1.06568142386601     
   1.16143947160010        1.22023651297043        1.24121254827435     
   1.22888333654848        1.18701038853774        1.11756735987258     
  0.439836565211405       0.668280032820383       0.824880585991110     
  0.932758603452633       0.999600065673584        1.02897331772507     
   1.02822987888735        1.00495496890025       0.962680985586691     
  0.904609016709097       0.326624642699115       0.498115293954814     
  0.623683117848764       0.718639668322772       0.786747464348466     
  0.828984978789126       0.846953233113636       0.847597496856034     
  0.835068990133081       0.812048718492798       0.307766239829236     
  0.465925501276524       0.582628519329717       0.674834855331351     
  0.748879070365479       0.807536164149793       0.852149024955756     
  0.883908589174203       0.903768672053306       0.911678559271533     
  0.367454356708249       0.550200254074177       0.684565844317179     
  0.792343088014378       0.881349597556265       0.955297990342662     
   1.01614825419730        1.06489610287944        1.10167612516774     
   1.12494930793046       0.462682450273927       0.687085050750419     
  0.849349583280369       0.978518070922778        1.08517584479283     
   1.17431301273698        1.24852054155701        1.30907470152150     
   1.35610750603702        1.38758470951989       0.572221182794133     
  0.845644941421580        1.04065094492999        1.19408127485001     
   1.31958955112214        1.42375215256819        1.51008593954335     
   1.58038238331340        1.63497339407302        1.67162149388536     
  0.686945415986664        1.01235457415655        1.24233888175008     
   1.42165969942081        1.56707699445905        1.68677826265339     
   1.78521984832425        1.86475798065433        1.92600240045973     
   1.96663922565263       0.804460639292335        1.18317110541042     
   1.44906095984036        1.65495586221448        1.82075013412405     
   1.95625594331564        2.06688285471242        2.15555211104527     
   2.22316647044974        2.26739698338546       0.924423127099614     
   1.35727206755352        1.65943368919207        1.89199647496737     
   2.07806912885971        2.22913513477738        2.35160706727028     
   2.44902824896185        2.52265476668618        2.57021973176185     
   1.04837933386220        1.53651831500631        1.87518335348767     
   2.13411049193101        2.33982247950387        2.50560867377888     
   2.63899541662425        2.74426713410812        2.82315606238306     
   2.87360230483233        1.18406198245658        1.73077601533468     
   2.10665093716419        2.39135182950087        2.61545457746940     
   2.79443298804266        2.93715931348740        3.04882473395081     
   3.13180638121451        3.18445503638637        1.35494168249391     
   1.96849016739646        2.38301450453468        2.69255582546660     
   2.93348908621788        3.12411541343101        3.27489006424024     
   3.39202998002468        3.47864687031466        3.53358846284956     
   1.56614803862009        2.25495018461250        2.70879659058219     
   3.04119541047128        3.29618141068826        3.49561906485568     
   3.65193070677699        3.77257719752038        3.86151014585777     
   3.91815651932752        1.71146929813680        2.44733044934008     
   2.92141395776133        3.26113008689414        3.51647649370232     
   3.71269174132396        3.86415531565090        3.97943546540782     
   4.06320009742841        4.11576907847319        1.73908598844679     
   2.46712275226561        2.92440057234277        3.24493533938072     
   3.48157543168283        3.66082168051786        3.79748829773996     
   3.90014784635534        3.97337252674569        4.01802715559363     
   1.63932821625428        2.29608162925507        2.69453892344272     
   2.96732245622785        3.16562393906984        3.31425679326563     
   3.42655682421334        3.50987143875752        3.56780919804826     
   3.60101190135487        1.42326780687181        1.94893651020816     
   2.25569122201664        2.46258934597956        2.61213594779731     
   2.72394692941368        2.80829786630577        2.87078765090803     
   2.91427363251058        2.93957198138617        1.09048392176994     
   1.44599329131461        1.65063009619636        1.78898081685605     
   1.88934560381763        1.96463220685302        2.02165274289773     
   2.06427172110984        2.09501270597414        2.11751732296363     
  0.663364456519265       0.862470442748910       0.978167897443504     
   1.05683536179720        1.11410721657800        1.15717134542977     
   1.18984137386125        1.21426113510973        1.23161161127879     
   1.24222844019171     
  0.000000000000000E+000  0.000000000000000E+000  0.000000000000000E+000
  0.000000000000000E+000  0.000000000000000E+000  0.000000000000000E+000
  0.000000000000000E+000  0.000000000000000E+000  0.000000000000000E+000
  0.000000000000000E+000  0.000000000000000E+000  0.000000000000000E+000
  0.000000000000000E+000  0.000000000000000E+000  0.000000000000000E+000
  0.000000000000000E+000  0.000000000000000E+000  0.000000000000000E+000
  0.000000000000000E+000  0.000000000000000E+000  0.000000000000000E+000
  0.000000000000000E+000  0.000000000000000E+000  0.000000000000000E+000
  0.000000000000000E+000  0.000000000000000E+000  0.000000000000000E+000
  0.000000000000000E+000  0.000000000000000E+000  0.000000000000000E+000
  0.000000000000000E+000  0.000000000000000E+000  0.000000000000000E+000
  0.000000000000000E+000  0.000000000000000E+000  0.000000000000000E+000
  0.000000000000000E+000  0.000000000000000E+000  0.000000000000000E+000
  0.000000000000000E+000  0.000000000000000E+000  0.000000000000000E+000
  0.000000000000000E+000  0.000000000000000E+000  0.000000000000000E+000
  0.000000000000000E+000  0.000000000000000E+000  0.000000000000000E+000
  0.000000000000000E+000  0.000000000000000E+000  0.000000000000000E+000
  0.000000000000000E+000  0.000000000000000E+000  0.000000000000000E+000
  0.000000000000000E+000  0.000000000000000E+000  0.000000000000000E+000
  0.000000000000000E+000  0.000000000000000E+000  0.000000000000000E+000
  0.000000000000000E+000  0.000000000000000E+000  0.000000000000000E+000
  0.000000000000000E+000  0.000000000000000E+000  0.000000000000000E+000
  0.000000000000000E+000  0.000000000000000E+000  0.000000000000000E+000
  0.000000000000000E+000  0.000000000000000E+000  0.000000000000000E+000
  0.000000000000000E+000  0.000000000000000E+000  0.000000000000000E+000
  0.000000000000000E+000  0.000000000000000E+000  0.000000000000000E+000
  0.000000000000000E+000  0.000000000000000E+000  0.000000000000000E+000
  0.000000000000000E+000  0.000000000000000E+000  0.000000000000000E+000
  0.000000000000000E+000  0.000000000000000E+000  0.000000000000000E+000
  0.000000000000000E+000  0.000000000000000E+000  0.000000000000000E+000
  0.000000000000000E+000  0.000000000000000E+000  0.000000000000000E+000
  0.000000000000000E+000  0.000000000000000E+000  0.000000000000000E+000
  0.000000000000000E+000  0.000000000000000E+000  0.000000000000000E+000
  0.000000000000000E+000  0.000000000000000E+000  0.000000000000000E+000
  0.000000000000000E+000  0.000000000000000E+000  0.000000000000000E+000
  0.000000000000000E+000  0.000000000000000E+000  0.000000000000000E+000
  0.000000000000000E+000  0.000000000000000E+000  0.000000000000000E+000
  0.000000000000000E+000  0.000000000000000E+000  0.000000000000000E+000
  0.000000000000000E+000  0.000000000000000E+000  0.000000000000000E+000