 Title = "Wing and Wake"
 VARIABLES = "X" "Y" "Z" "GAM" "skew"
 Zone I=   11 J=   26 K=1  T="Blade"
 DATAPACKING=BLOCK
 VARLOCATION=([4]=CELLCENTERED,[5]=CELLCENTERED)
  2.704676403593156E-002  1.237061518052912E-002 -2.305533674873216E-003
 -1.698168253027545E-002 -3.165783138567789E-002 -4.633398024108016E-002
 -6.101012909648251E-002 -7.568627795188491E-002 -9.036242680728726E-002
 -0.105038575662690      -0.119714724518092       2.468736441479118E-002
  1.001121555938895E-002 -4.664933296013443E-003 -1.934108215141568E-002
 -3.401723100681812E-002 -4.869337986222043E-002 -6.336952871762275E-002
 -7.804567757302512E-002 -9.272182642842750E-002 -0.107397975283830     
 -0.122074124139232       1.764637469283332E-002  2.970225837430910E-003
 -1.170592301797145E-002 -2.638207187337374E-002 -4.105822072877612E-002
 -5.573436958417852E-002 -7.041051843958085E-002 -8.508666729498322E-002
 -9.976281615038544E-002 -0.114438965005788      -0.129115113861190     
  6.034835484055718E-003 -8.641313371346635E-003 -2.331746222674906E-002
 -3.799361108215138E-002 -5.266975993755372E-002 -6.734590879295603E-002
 -8.202205764835839E-002 -9.669820650376063E-002 -0.111374355359163     
 -0.126050504214565      -0.140726653069968      -9.964132301821313E-003
 -2.464028115722370E-002 -3.931643001262595E-002 -5.399257886802842E-002
 -6.866872772343072E-002 -8.334487657883308E-002 -9.802102543423535E-002
 -0.112697174289638      -0.127373323145040      -0.142049472000442     
 -0.156725620855845      -3.009821538549449E-002 -4.477436424089684E-002
 -5.945051309629908E-002 -7.412666195170155E-002 -8.880281080710378E-002
 -0.103478959662506      -0.118155108517908      -0.132831257373311     
 -0.147507406228713      -0.162183555084116      -0.176859703939518     
 -5.404988724921619E-002 -6.872603610461850E-002 -8.340218496002080E-002
 -9.807833381542298E-002 -0.112754482670825      -0.127430631526228     
 -0.142106780381630      -0.156782929237032      -0.171459078092435     
 -0.186135226947837      -0.200811375803239      -8.144141571966020E-002
 -9.611756457506247E-002 -0.110793713430465      -0.125469862285867     
 -0.140146011141269      -0.154822159996672      -0.169498308852074     
 -0.184174457707477      -0.198850606562879      -0.213526755418281     
 -0.228202904273684      -0.111840820029942      -0.126516968885344     
 -0.141193117740746      -0.155869266596149      -0.170545415451551     
 -0.185221564306953      -0.199897713162356      -0.214573862017758     
 -0.229250010873160      -0.243926159728563      -0.258602308583965     
 -0.144768683414363      -0.159444832269766      -0.174120981125168     
 -0.188797129980570      -0.203473278835973      -0.218149427691375     
 -0.232825576546777      -0.247501725402180      -0.262177874257582     
 -0.276854023112984      -0.291530171968387      -0.179705713797201     
 -0.194381862652604      -0.209058011508006      -0.223734160363408     
 -0.238410309218811      -0.253086458074213      -0.267762606929615     
 -0.282438755785018      -0.297114904640420      -0.311791053495822     
 -0.326467202351224      -0.216100933338947      -0.230777082194350     
 -0.245453231049752      -0.260129379905154      -0.274805528760556     
 -0.289481677615959      -0.304157826471361      -0.318833975326763     
 -0.333510124182166      -0.348186273037568      -0.362862421892971     
 -0.253380367685978      -0.268056516541380      -0.282732665396782     
 -0.297408814252185      -0.312084963107587      -0.326761111962989     
 -0.341437260818392      -0.356113409673794      -0.370789558529196     
 -0.385465707384599      -0.400141856240001      -0.290956097888986     
 -0.305632246744388      -0.320308395599790      -0.334984544455193     
 -0.349660693310595      -0.364336842165997      -0.379012991021400     
 -0.393689139876802      -0.408365288732205      -0.423041437587607     
 -0.437717586443009      -0.328235532236016      -0.342911681091419     
 -0.357587829946821      -0.372263978802224      -0.386940127657625     
 -0.401616276513028      -0.416292425368430      -0.430968574223833     
 -0.445644723079235      -0.460320871934638      -0.474997020790040     
 -0.364630751777762      -0.379306900633165      -0.393983049488567     
 -0.408659198343969      -0.423335347199372      -0.438011496054774     
 -0.452687644910177      -0.467363793765579      -0.482039942620981     
 -0.496716091476384      -0.511392240331786      -0.399567782160601     
 -0.414243931016002      -0.428920079871405      -0.443596228726807     
 -0.458272377582210      -0.472948526437612      -0.487624675293014     
 -0.502300824148417      -0.516976973003819      -0.531653121859221     
 -0.546329270714624      -0.432495645545022      -0.447171794400424     
 -0.461847943255826      -0.476524092111229      -0.491200240966631     
 -0.505876389822034      -0.520552538677436      -0.535228687532838     
 -0.549904836388241      -0.564580985243643      -0.579257134099045     
 -0.462895049855303      -0.477571198710706      -0.492247347566108     
 -0.506923496421510      -0.521599645276912      -0.536275794132315     
 -0.550951942987717      -0.565628091843120      -0.580304240698522     
 -0.594980389553925      -0.609656538409327      -0.490286578325748     
 -0.504962727181150      -0.519638876036552      -0.534315024891954     
 -0.548991173747357      -0.563667322602759      -0.578343471458161     
 -0.593019620313564      -0.607695769168966      -0.622371918024368     
 -0.637048066879771      -0.514238250189469      -0.528914399044872     
 -0.543590547900273      -0.558266696755676      -0.572942845611078     
 -0.587618994466480      -0.602295143321883      -0.616971292177286     
 -0.631647441032688      -0.646323589888090      -0.660999738743492     
 -0.534372333273142      -0.549048482128545      -0.563724630983947     
 -0.578400779839349      -0.593076928694751      -0.607753077550154     
 -0.622429226405556      -0.637105375260958      -0.651781524116361     
 -0.666457672971763      -0.681133821827166      -0.550371301059020     
 -0.565047449914421      -0.579723598769824      -0.594399747625226     
 -0.609075896480628      -0.623752045336031      -0.638428194191433     
 -0.653104343046836      -0.667780491902238      -0.682456640757640     
 -0.697132789613043      -0.561982840267797      -0.576658989123199     
 -0.591335137978602      -0.606011286834004      -0.620687435689406     
 -0.635363584544808      -0.650039733400211      -0.664715882255613     
 -0.679392031111016      -0.694068179966418      -0.708744328821821     
 -0.569023829989755      -0.583699978845157      -0.598376127700559     
 -0.613052276555962      -0.627728425411364      -0.642404574266766     
 -0.657080723122169      -0.671756871977571      -0.686433020832973     
 -0.701109169688376      -0.715785318543778      -0.571383229610895     
 -0.586059378466297      -0.600735527321700      -0.615411676177102     
 -0.630087825032504      -0.644763973887907      -0.659440122743309     
 -0.674116271598711      -0.688792420454114      -0.703468569309516     
 -0.718144718164919     
 -0.266759402340963      -0.254906805955394      -0.243054209569825     
 -0.231201613184256      -0.219349016798687      -0.207496420413118     
 -0.195643824027549      -0.183791227641980      -0.171938631256411     
 -0.160086034870842      -0.148233438485273      -0.269680863506332     
 -0.257828267120763      -0.245975670735194      -0.234123074349625     
 -0.222270477964056      -0.210417881578487      -0.198565285192918     
 -0.186712688807349      -0.174860092421780      -0.163007496036212     
 -0.151154899650643      -0.278399173814664      -0.266546577429095     
 -0.254693981043526      -0.242841384657958      -0.230988788272389     
 -0.219136191886820      -0.207283595501251      -0.195430999115682     
 -0.183578402730113      -0.171725806344544      -0.159873209958976     
 -0.292776840304333      -0.280924243918764      -0.269071647533195     
 -0.257219051147626      -0.245366454762057      -0.233513858376488     
 -0.221661261990920      -0.209808665605351      -0.197956069219782     
 -0.186103472834213      -0.174250876448644      -0.312587118585993     
 -0.300734522200424      -0.288881925814855      -0.277029329429286     
 -0.265176733043717      -0.253324136658149      -0.241471540272580     
 -0.229618943887011      -0.217766347501442      -0.205913751115873     
 -0.194061154730304      -0.337517588737056      -0.325664992351487     
 -0.313812395965918      -0.301959799580350      -0.290107203194781     
 -0.278254606809212      -0.266402010423643      -0.254549414038074     
 -0.242696817652505      -0.230844221266936      -0.218991624881367     
 -0.367175082350500      -0.355322485964931      -0.343469889579362     
 -0.331617293193793      -0.319764696808224      -0.307912100422655     
 -0.296059504037086      -0.284206907651517      -0.272354311265949     
 -0.260501714880380      -0.248649118494811      -0.401091883035511     
 -0.389239286649942      -0.377386690264373      -0.365534093878804     
 -0.353681497493235      -0.341828901107667      -0.329976304722098     
 -0.318123708336529      -0.306271111950960      -0.294418515565391     
 -0.282565919179822      -0.438733102584373      -0.426880506198804     
 -0.415027909813236      -0.403175313427667      -0.391322717042098     
 -0.379470120656529      -0.367617524270960      -0.355764927885391     
 -0.343912331499822      -0.332059735114254      -0.320207138728684     
 -0.479505116479026      -0.467652520093457      -0.455799923707888     
 -0.443947327322320      -0.432094730936751      -0.420242134551182     
 -0.408389538165613      -0.396536941780044      -0.384684345394475     
 -0.372831749008906      -0.360979152623337      -0.522764925704330     
 -0.510912329318762      -0.499059732933193      -0.487207136547624     
 -0.475354540162055      -0.463501943776486      -0.451649347390917     
 -0.439796751005348      -0.427944154619780      -0.416091558234210     
 -0.404238961848641      -0.567830297226646      -0.555977700841077     
 -0.544125104455508      -0.532272508069939      -0.520419911684370     
 -0.508567315298801      -0.496714718913232      -0.484862122527663     
 -0.473009526142094      -0.461156929756526      -0.449304333370957     
 -0.613990523216317      -0.602137926830748      -0.590285330445179     
 -0.578432734059610      -0.566580137674041      -0.554727541288473     
 -0.542874944902904      -0.531022348517335      -0.519169752131766     
 -0.507317155746197      -0.495464559360628      -0.660517629334704     
 -0.648665032949136      -0.636812436563567      -0.624959840177998     
 -0.613107243792429      -0.601254647406860      -0.589402051021291     
 -0.577549454635722      -0.565696858250154      -0.553844261864585     
 -0.541991665479016      -0.706677855324375      -0.694825258938807     
 -0.682972662553238      -0.671120066167669      -0.659267469782100     
 -0.647414873396531      -0.635562277010962      -0.623709680625393     
 -0.611857084239825      -0.600004487854256      -0.588151891468687     
 -0.751743226846691      -0.739890630461122      -0.728038034075553     
 -0.716185437689984      -0.704332841304415      -0.692480244918847     
 -0.680627648533278      -0.668775052147709      -0.656922455762140     
 -0.645069859376571      -0.633217262991002      -0.795003036071996     
 -0.783150439686426      -0.771297843300858      -0.759445246915289     
 -0.747592650529720      -0.735740054144151      -0.723887457758582     
 -0.712034861373013      -0.700182264987444      -0.688329668601876     
 -0.676477072216306      -0.835775049966648      -0.823922453581079     
 -0.812069857195510      -0.800217260809941      -0.788364664424372     
 -0.776512068038804      -0.764659471653235      -0.752806875267666     
 -0.740954278882097      -0.729101682496528      -0.717249086110959     
 -0.873416269515510      -0.861563673129942      -0.849711076744373     
 -0.837858480358804      -0.826005883973235      -0.814153287587666     
 -0.802300691202097      -0.790448094816528      -0.778595498430959     
 -0.766742902045390      -0.754890305659822      -0.907333070200522     
 -0.895480473814953      -0.883627877429384      -0.871775281043815     
 -0.859922684658247      -0.848070088272677      -0.836217491887109     
 -0.824364895501540      -0.812512299115971      -0.800659702730402     
 -0.788807106344833      -0.936990563813965      -0.925137967428396     
 -0.913285371042827      -0.901432774657258      -0.889580178271690     
 -0.877727581886120      -0.865874985500552      -0.854022389114983     
 -0.842169792729414      -0.830317196343845      -0.818464599958276     
 -0.961921033965028      -0.950068437579460      -0.938215841193891     
 -0.926363244808322      -0.914510648422753      -0.902658052037184     
 -0.890805455651615      -0.878952859266046      -0.867100262880477     
 -0.855247666494908      -0.843395070109340      -0.981731312246689     
 -0.969878715861120      -0.958026119475551      -0.946173523089982     
 -0.934320926704413      -0.922468330318844      -0.910615733933275     
 -0.898763137547707      -0.886910541162138      -0.875057944776569     
 -0.863205348390999      -0.996108978736357      -0.984256382350788     
 -0.972403785965219      -0.960551189579651      -0.948698593194081     
 -0.936845996808512      -0.924993400422944      -0.913140804037375     
 -0.901288207651806      -0.889435611266237      -0.877583014880669     
  -1.00482728904469      -0.992974692659121      -0.981122096273552     
 -0.969269499887983      -0.957416903502414      -0.945564307116845     
 -0.933711710731276      -0.921859114345707      -0.910006517960139     
 -0.898153921574571      -0.886301325189001       -1.00774875021006     
 -0.995896153824490      -0.984043557438921      -0.972190961053352     
 -0.960338364667784      -0.948485768282215      -0.936633171896645     
 -0.924780575511077      -0.912927979125508      -0.901075382739939     
 -0.889222786354371     
  2.651247573289247E-002  2.386122815960322E-002  2.120998058631397E-002
  1.855873301302472E-002  1.590748543973548E-002  1.325623786644623E-002
  1.060499029315698E-002  7.953742719867740E-003  5.302495146578492E-003
  2.651247573289244E-003  0.000000000000000E+000  2.651247573289247E-002
  2.386122815960322E-002  2.120998058631397E-002  1.855873301302472E-002
  1.590748543973548E-002  1.325623786644623E-002  1.060499029315698E-002
  7.953742719867740E-003  5.302495146578492E-003  2.651247573289244E-003
  0.000000000000000E+000  2.651247573289247E-002  2.386122815960322E-002
  2.120998058631397E-002  1.855873301302472E-002  1.590748543973548E-002
  1.325623786644623E-002  1.060499029315698E-002  7.953742719867740E-003
  5.302495146578492E-003  2.651247573289244E-003  0.000000000000000E+000
  2.651247573289247E-002  2.386122815960322E-002  2.120998058631397E-002
  1.855873301302472E-002  1.590748543973548E-002  1.325623786644623E-002
  1.060499029315698E-002  7.953742719867740E-003  5.302495146578492E-003
  2.651247573289244E-003  0.000000000000000E+000  2.651247573289247E-002
  2.386122815960322E-002  2.120998058631397E-002  1.855873301302472E-002
  1.590748543973548E-002  1.325623786644623E-002  1.060499029315698E-002
  7.953742719867740E-003  5.302495146578492E-003  2.651247573289244E-003
  0.000000000000000E+000  2.651247573289247E-002  2.386122815960322E-002
  2.120998058631397E-002  1.855873301302472E-002  1.590748543973548E-002
  1.325623786644623E-002  1.060499029315698E-002  7.953742719867740E-003
  5.302495146578492E-003  2.651247573289244E-003  0.000000000000000E+000
  2.651247573289247E-002  2.386122815960322E-002  2.120998058631397E-002
  1.855873301302472E-002  1.590748543973548E-002  1.325623786644623E-002
  1.060499029315698E-002  7.953742719867740E-003  5.302495146578492E-003
  2.651247573289244E-003  0.000000000000000E+000  2.651247573289247E-002
  2.386122815960322E-002  2.120998058631397E-002  1.855873301302472E-002
  1.590748543973548E-002  1.325623786644623E-002  1.060499029315698E-002
  7.953742719867740E-003  5.302495146578492E-003  2.651247573289244E-003
  0.000000000000000E+000  2.651247573289247E-002  2.386122815960322E-002
  2.120998058631397E-002  1.855873301302472E-002  1.590748543973548E-002
  1.325623786644623E-002  1.060499029315698E-002  7.953742719867740E-003
  5.302495146578492E-003  2.651247573289244E-003  0.000000000000000E+000
  2.651247573289247E-002  2.386122815960322E-002  2.120998058631397E-002
  1.855873301302472E-002  1.590748543973548E-002  1.325623786644623E-002
  1.060499029315698E-002  7.953742719867740E-003  5.302495146578492E-003
  2.651247573289244E-003  0.000000000000000E+000  2.651247573289247E-002
  2.386122815960322E-002  2.120998058631397E-002  1.855873301302472E-002
  1.590748543973548E-002  1.325623786644623E-002  1.060499029315698E-002
  7.953742719867740E-003  5.302495146578492E-003  2.651247573289244E-003
  0.000000000000000E+000  2.651247573289247E-002  2.386122815960322E-002
  2.120998058631397E-002  1.855873301302472E-002  1.590748543973548E-002
  1.325623786644623E-002  1.060499029315698E-002  7.953742719867740E-003
  5.302495146578492E-003  2.651247573289244E-003  0.000000000000000E+000
  2.651247573289247E-002  2.386122815960322E-002  2.120998058631397E-002
  1.855873301302472E-002  1.590748543973548E-002  1.325623786644623E-002
  1.060499029315698E-002  7.953742719867740E-003  5.302495146578492E-003
  2.651247573289244E-003  0.000000000000000E+000  2.651247573289247E-002
  2.386122815960322E-002  2.120998058631397E-002  1.855873301302472E-002
  1.590748543973548E-002  1.325623786644623E-002  1.060499029315698E-002
  7.953742719867740E-003  5.302495146578492E-003  2.651247573289244E-003
  0.000000000000000E+000  2.651247573289247E-002  2.386122815960322E-002
  2.120998058631397E-002  1.855873301302472E-002  1.590748543973548E-002
  1.325623786644623E-002  1.060499029315698E-002  7.953742719867740E-003
  5.302495146578492E-003  2.651247573289244E-003  0.000000000000000E+000
  2.651247573289247E-002  2.386122815960322E-002  2.120998058631397E-002
  1.855873301302472E-002  1.590748543973548E-002  1.325623786644623E-002
  1.060499029315698E-002  7.953742719867740E-003  5.302495146578492E-003
  2.651247573289244E-003  0.000000000000000E+000  2.651247573289247E-002
  2.386122815960322E-002  2.120998058631397E-002  1.855873301302472E-002
  1.590748543973548E-002  1.325623786644623E-002  1.060499029315698E-002
  7.953742719867740E-003  5.302495146578492E-003  2.651247573289244E-003
  0.000000000000000E+000  2.651247573289247E-002  2.386122815960322E-002
  2.120998058631397E-002  1.855873301302472E-002  1.590748543973548E-002
  1.325623786644623E-002  1.060499029315698E-002  7.953742719867740E-003
  5.302495146578492E-003  2.651247573289244E-003  0.000000000000000E+000
  2.651247573289247E-002  2.386122815960322E-002  2.120998058631397E-002
  1.855873301302472E-002  1.590748543973548E-002  1.325623786644623E-002
  1.060499029315698E-002  7.953742719867740E-003  5.302495146578492E-003
  2.651247573289244E-003  0.000000000000000E+000  2.651247573289247E-002
  2.386122815960322E-002  2.120998058631397E-002  1.855873301302472E-002
  1.590748543973548E-002  1.325623786644623E-002  1.060499029315698E-002
  7.953742719867740E-003  5.302495146578492E-003  2.651247573289244E-003
  0.000000000000000E+000  2.651247573289247E-002  2.386122815960322E-002
  2.120998058631397E-002  1.855873301302472E-002  1.590748543973548E-002
  1.325623786644623E-002  1.060499029315698E-002  7.953742719867740E-003
  5.302495146578492E-003  2.651247573289244E-003  0.000000000000000E+000
  2.651247573289247E-002  2.386122815960322E-002  2.120998058631397E-002
  1.855873301302472E-002  1.590748543973548E-002  1.325623786644623E-002
  1.060499029315698E-002  7.953742719867740E-003  5.302495146578492E-003
  2.651247573289244E-003  0.000000000000000E+000  2.651247573289247E-002
  2.386122815960322E-002  2.120998058631397E-002  1.855873301302472E-002
  1.590748543973548E-002  1.325623786644623E-002  1.060499029315698E-002
  7.953742719867740E-003  5.302495146578492E-003  2.651247573289244E-003
  0.000000000000000E+000  2.651247573289247E-002  2.386122815960322E-002
  2.120998058631397E-002  1.855873301302472E-002  1.590748543973548E-002
  1.325623786644623E-002  1.060499029315698E-002  7.953742719867740E-003
  5.302495146578492E-003  2.651247573289244E-003  0.000000000000000E+000
  2.651247573289247E-002  2.386122815960322E-002  2.120998058631397E-002
  1.855873301302472E-002  1.590748543973548E-002  1.325623786644623E-002
  1.060499029315698E-002  7.953742719867740E-003  5.302495146578492E-003
  2.651247573289244E-003  0.000000000000000E+000  2.651247573289247E-002
  2.386122815960322E-002  2.120998058631397E-002  1.855873301302472E-002
  1.590748543973548E-002  1.325623786644623E-002  1.060499029315698E-002
  7.953742719867740E-003  5.302495146578492E-003  2.651247573289244E-003
  0.000000000000000E+000
  0.150128586955132       0.201605446987514       0.234009121596688     
  0.257399224996079       0.275351812278291       0.289552147014985     
  0.300870420109270       0.309753901031468       0.316348732585169     
  0.320302382620081       0.251276377116747       0.343313805026225     
  0.400741373429181       0.442023648824265       0.473617375163877     
  0.498537959677930       0.518349364005899       0.533884064169140     
  0.545534060394678       0.553560328644179       0.343727774152211     
  0.482630041909547       0.570049807861601       0.632800417642141     
  0.680663182621590       0.718230677922622       0.747903931839591     
  0.770948343515397       0.787875273808012       0.798104034030593     
  0.426738370285360       0.610369031564065       0.729401952666538     
  0.815790173613830       0.881809791693328       0.933423525091073     
  0.973813445559603        1.00462513410680        1.02628764169421     
   1.03741805975042       0.505094022554941       0.730215358946106     
  0.880111714506463       0.990665027962947        1.07577107154878     
   1.14232521425862        1.19406601637886        1.23289200236868     
   1.25915666034937        1.27120154218554       0.582241217885814     
  0.847103283970543        1.02662207176906        1.16075512975502     
   1.26482570712752        1.34644385220739        1.40974543525420     
   1.45679690256212        1.48793635235310        1.50139465783893     
  0.660631010563702       0.964689569966290        1.17296249887220     
   1.32991040638372        1.45242276818985        1.54883822020561     
   1.62365413706616        1.67908642720162        1.71549020690570     
   1.73100208013792       0.741466544537534        1.08493252413044     
   1.32160441491852        1.50087499720204        1.64139127596255     
   1.75229438068442        1.83848452851392        1.90237232360966     
   1.94434736403837        1.96238385854950       0.824892968190670     
   1.20830225435768        1.47335145895175        1.67470868955645     
   1.83293830309188        1.95807735921032        2.05549166924857     
   2.12783106237522        2.17552625832174        2.19634175146526     
  0.910256376260649        1.33403164466085        1.62745235456638     
   1.85069985748020        2.02637373650000        2.16548779891918     
   2.27393034726746        2.35461400314873        2.40801771245543     
   2.43169805427234       0.996233447154463        1.46028408471043     
   1.78176750786342        2.02650247325347        2.21919434331978     
   2.37188119636915        2.49100393911396        2.57976197222470     
   2.63870932084979        2.66520536268437        1.08091073560161     
   1.58429190894309        1.93295444112194        2.19834014079583     
   2.40727287080387        2.57283351347179        2.70203476804404     
   2.79837667132649        2.86250805883346        2.89163173359345     
   1.16185669631065        1.70247464756769        2.07661978593927     
   2.36118125886156        2.58505601088884        2.76235769297361     
   2.90066995220845        3.00380241723021        3.07252700880379     
   3.10394573690721        1.23618455991493        1.81053406304929     
   2.20743928416783        2.50888190875007        2.74571849632852     
   2.93305332312759        3.07903382893154        3.18779040525422     
   3.26023985781196        3.29344926105845        1.30060130784801     
   1.90352526906805        2.31924271848798        2.63427495438825     
   2.88125541526296        3.07621063057699        3.22783345308913     
   3.34058348618831        3.41555420675353        3.44986135519545     
   1.35145469889872        1.97591266755548        2.40506643911814     
   2.72922347921361        2.98254242427604        3.18187152783069     
   3.33641521665719        3.45097295338928        3.52686389982077     
   3.56136455170015        1.38478253447594        2.02162283353179     
   2.45720426399343        2.78466484802979        3.03937676190569     
   3.23888088773798        3.39284416987774        3.50640881751725     
   3.58117661552223        3.61472559803939        1.39637630918357     
   2.03410744392917        2.46726271138604        2.79067171144359     
   3.04055859374567        3.23501222357514        3.38409570439970     
   3.49327330824874        3.56446621293783        3.59570236222306     
   1.38184781632360        2.00639259189929        2.42620804060378     
   2.73654694783895        2.97409368600369        3.15731087263022     
   3.29655457665075        3.39754184025699        3.46248937992311     
   3.48997616016348        1.33664574088867        1.93103024796006     
   2.32435300185538        2.61098340033868        2.82763903849117     
   2.99289454446596        3.11717103870790        3.20623852841791     
   3.26246705496185        3.28497293245918        1.25590943565863     
   1.79980562837727        2.15126318964415        2.40249427084609     
   2.58959338997158        2.73066063922400        2.83567359205835     
   2.91004382998439        2.95597161050780        2.97289601051465     
   1.13394000088628        1.60313039941466        1.89614291379264     
   2.10112471646107        2.25183569892124        2.36458365201758     
   2.44804255980038        2.50676100083832        2.54246628193217     
   2.55454139476440       0.962625504922239        1.33011125047782     
   1.55115219340935        1.70368573422343        1.81535370310625     
   1.89884779299548        1.96075229436046        2.00452983700279     
   2.03165901395501        2.04198705575163       0.729227847916990     
  0.975901993856876        1.12238534486154        1.22371032085340     
   1.29817541129716        1.35407829717653        1.39574934776450     
   1.42556367517120        1.44489618139502        1.45565852970749     
  0.441891866186050       0.579931278596772       0.662660821001460     
  0.720194330404438       0.762619105073744       0.794543144350834     
  0.818377889291702       0.835418901820748       0.846264569073697     
  0.850843253640379     
  0.000000000000000E+000  0.000000000000000E+000  0.000000000000000E+000
  0.000000000000000E+000  0.000000000000000E+000  0.000000000000000E+000
  0.000000000000000E+000  0.000000000000000E+000  0.000000000000000E+000
  0.000000000000000E+000  0.000000000000000E+000  0.000000000000000E+000
  0.000000000000000E+000  0.000000000000000E+000  0.000000000000000E+000
  0.000000000000000E+000  0.000000000000000E+000  0.000000000000000E+000
  0.000000000000000E+000  0.000000000000000E+000  0.000000000000000E+000
  0.000000000000000E+000  0.000000000000000E+000  0.000000000000000E+000
  0.000000000000000E+000  0.000000000000000E+000  0.000000000000000E+000
  0.000000000000000E+000  0.000000000000000E+000  0.000000000000000E+000
  0.000000000000000E+000  0.000000000000000E+000  0.000000000000000E+000
  0.000000000000000E+000  0.000000000000000E+000  0.000000000000000E+000
  0.000000000000000E+000  0.000000000000000E+000  0.000000000000000E+000
  0.000000000000000E+000  0.000000000000000E+000  0.000000000000000E+000
  0.000000000000000E+000  0.000000000000000E+000  0.000000000000000E+000
  0.000000000000000E+000  0.000000000000000E+000  0.000000000000000E+000
  0.000000000000000E+000  0.000000000000000E+000  0.000000000000000E+000
  0.000000000000000E+000  0.000000000000000E+000  0.000000000000000E+000
  0.000000000000000E+000  0.000000000000000E+000  0.000000000000000E+000
  0.000000000000000E+000  0.000000000000000E+000  0.000000000000000E+000
  0.000000000000000E+000  0.000000000000000E+000  0.000000000000000E+000
  0.000000000000000E+000  0.000000000000000E+000  0.000000000000000E+000
  0.000000000000000E+000  0.000000000000000E+000  0.000000000000000E+000
  0.000000000000000E+000  0.000000000000000E+000  0.000000000000000E+000
  0.000000000000000E+000  0.000000000000000E+000  0.000000000000000E+000
  0.000000000000000E+000  0.000000000000000E+000  0.000000000000000E+000
  0.000000000000000E+000  0.000000000000000E+000  0.000000000000000E+000
  0.000000000000000E+000  0.000000000000000E+000  0.000000000000000E+000
  0.000000000000000E+000  0.000000000000000E+000  0.000000000000000E+000
  0.000000000000000E+000  0.000000000000000E+000  0.000000000000000E+000
  0.000000000000000E+000  0.000000000000000E+000  0.000000000000000E+000
  0.000000000000000E+000  0.000000000000000E+000  0.000000000000000E+000
  0.000000000000000E+000  0.000000000000000E+000  0.000000000000000E+000
  0.000000000000000E+000  0.000000000000000E+000  0.000000000000000E+000
  0.000000000000000E+000  0.000000000000000E+000  0.000000000000000E+000
  0.000000000000000E+000  0.000000000000000E+000  0.000000000000000E+000
  0.000000000000000E+000  0.000000000000000E+000  0.000000000000000E+000
  0.000000000000000E+000  0.000000000000000E+000  0.000000000000000E+000
  0.000000000000000E+000  0.000000000000000E+000  0.000000000000000E+000