 Title = "Wing and Wake"
 VARIABLES = "X" "Y" "Z" "GAM" "skew"
 Zone I=   11 J=   26 K=1  T="Blade"
 DATAPACKING=BLOCK
 VARLOCATION=([4]=CELLCENTERED,[5]=CELLCENTERED)
 -0.266922051339123      -0.252439624538672      -0.237957197738222     
 -0.223474770937772      -0.208992344137321      -0.194509917336871     
 -0.180027490536420      -0.165545063735970      -0.151062636935519     
 -0.136580210135069      -0.122097783334619      -0.269328417514223     
 -0.254845990713773      -0.240363563913322      -0.225881137112871     
 -0.211398710312421      -0.196916283511971      -0.182433856711520     
 -0.167951429911070      -0.153469003110620      -0.138986576310170     
 -0.124504149509719      -0.276509566207448      -0.262027139406997     
 -0.247544712606547      -0.233062285806097      -0.218579859005646     
 -0.204097432205196      -0.189615005404746      -0.175132578604296     
 -0.160650151803845      -0.146167725003394      -0.131685298202944     
 -0.288352246414096      -0.273869819613645      -0.259387392813195     
 -0.244904966012745      -0.230422539212295      -0.215940112411844     
 -0.201457685611394      -0.186975258810944      -0.172492832010493     
 -0.158010405210043      -0.143527978409592      -0.304669691992834     
 -0.290187265192383      -0.275704838391933      -0.261222411591483     
 -0.246739984791033      -0.232257557990582      -0.217775131190132     
 -0.203292704389681      -0.188810277589231      -0.174327850788781     
 -0.159845423988330      -0.325204567079315      -0.310722140278865     
 -0.296239713478414      -0.281757286677964      -0.267274859877514     
 -0.252792433077064      -0.238310006276612      -0.223827579476163     
 -0.209345152675712      -0.194862725875261      -0.180380299074811     
 -0.349633024426486      -0.335150597626036      -0.320668170825586     
 -0.306185744025136      -0.291703317224685      -0.277220890424235     
 -0.262738463623784      -0.248256036823334      -0.233773610022883     
 -0.219291183222433      -0.204808756421982      -0.377569812669130     
 -0.363087385868680      -0.348604959068229      -0.334122532267778     
 -0.319640105467328      -0.305157678666878      -0.290675251866427     
 -0.276192825065977      -0.261710398265527      -0.247227971465077     
 -0.232745544664626      -0.408574351968030      -0.394091925167580     
 -0.379609498367130      -0.365127071566679      -0.350644644766229     
 -0.336162217965778      -0.321679791165328      -0.307197364364877     
 -0.292714937564427      -0.278232510763977      -0.263750083963527     
 -0.442157682217230      -0.427675255416779      -0.413192828616329     
 -0.398710401815878      -0.384227975015428      -0.369745548214978     
 -0.355263121414527      -0.340780694614078      -0.326298267813627     
 -0.311815841013177      -0.297333414212726      -0.477790174236991     
 -0.463307747436541      -0.448825320636090      -0.434342893835639     
 -0.419860467035189      -0.405378040234739      -0.390895613434288     
 -0.376413186633838      -0.361930759833388      -0.347448333032937     
 -0.332965906232487      -0.514909882342342      -0.500427455541889     
 -0.485945028741440      -0.471462601940990      -0.456980175140539     
 -0.442497748340089      -0.428015321539637      -0.413532894739188     
 -0.399050467938738      -0.384568041138288      -0.370085614337837     
 -0.552931406562220      -0.538448979761771      -0.523966552961319     
 -0.509484126160871      -0.495001699360419      -0.480519272559969     
 -0.466036845759518      -0.451554418959068      -0.437071992158618     
 -0.422589565358168      -0.408107138557717      -0.591255124746725     
 -0.576772697946275      -0.562290271145824      -0.547807844345374     
 -0.533325417544924      -0.518842990744473      -0.504360563944022     
 -0.489878137143573      -0.475395710343122      -0.460913283542671     
 -0.446430856742222      -0.629276648966606      -0.614794222166155     
 -0.600311795365705      -0.585829368565255      -0.571346941764805     
 -0.556864514964354      -0.542382088163903      -0.527899661363453     
 -0.513417234563003      -0.498934807762553      -0.484452380962102     
 -0.666396357071954      -0.651913930271504      -0.637431503471055     
 -0.622949076670604      -0.608466649870155      -0.593984223069704     
 -0.579501796269253      -0.565019369468802      -0.550536942668352     
 -0.536054515867902      -0.521572089067452      -0.702028849091715     
 -0.687546422291265      -0.673063995490815      -0.658581568690365     
 -0.644099141889915      -0.629616715089464      -0.615134288289013     
 -0.600651861488563      -0.586169434688112      -0.571687007887664     
 -0.557204581087213      -0.735612179340916      -0.721129752540465     
 -0.706647325740014      -0.692164898939565      -0.677682472139114     
 -0.663200045338664      -0.648717618538213      -0.634235191737764     
 -0.619752764937312      -0.605270338136861      -0.590787911336412     
 -0.766616718639816      -0.752134291839366      -0.737651865038914     
 -0.723169438238464      -0.708687011438015      -0.694204584637563     
 -0.679722157837112      -0.665239731036664      -0.650757304236213     
 -0.636274877435762      -0.621792450635312      -0.794553506882461     
 -0.780071080082009      -0.765588653281557      -0.751106226481108     
 -0.736623799680659      -0.722141372880207      -0.707658946079757     
 -0.693176519279307      -0.678694092478857      -0.664211665678407     
 -0.649729238877955      -0.818981964229629      -0.804499537429180     
 -0.790017110628730      -0.775534683828280      -0.761052257027829     
 -0.746569830227378      -0.732087403426930      -0.717604976626478     
 -0.703122549826028      -0.688640123025577      -0.674157696225126     
 -0.839516839316112      -0.825034412515664      -0.810551985715211     
 -0.796069558914761      -0.781587132114311      -0.767104705313859     
 -0.752622278513409      -0.738139851712959      -0.723657424912507     
 -0.709174998112059      -0.694692571311608      -0.855834284894853     
 -0.841351858094399      -0.826869431293950      -0.812387004493498     
 -0.797904577693048      -0.783422150892598      -0.768939724092146     
 -0.754457297291697      -0.739974870491247      -0.725492443690797     
 -0.711010016890345      -0.867676965101499      -0.853194538301049     
 -0.838712111500597      -0.824229684700147      -0.809747257899697     
 -0.795264831099245      -0.780782404298796      -0.766299977498346     
 -0.751817550697895      -0.737335123897443      -0.722852697096993     
 -0.874858113794723      -0.860375686994273      -0.845893260193822     
 -0.831410833393371      -0.816928406592921      -0.802445979792471     
 -0.787963552992020      -0.773481126191569      -0.758998699391120     
 -0.744516272590670      -0.730033845790219      -0.877264479969823     
 -0.862782053169374      -0.848299626368923      -0.833817199568473     
 -0.819334772768021      -0.804852345967570      -0.790369919167120     
 -0.775887492366670      -0.761405065566221      -0.746922638765770     
 -0.732440211965320     
  2.539142947997999E-002  3.747996538283938E-002  4.956850128569880E-002
  6.165703718855829E-002  7.374557309141749E-002  8.583410899427703E-002
  9.792264489713616E-002  0.110011180799996       0.122099716702855     
  0.134188252605715       0.146276788508574       2.827432797703679E-002
  4.036286387989597E-002  5.245139978275532E-002  6.453993568561453E-002
  7.662847158847419E-002  8.871700749133350E-002  0.100805543394193     
  0.112894079297052       0.124982615199912       0.137071151102771     
  0.149159687005631       3.687755843674694E-002  4.896609433960623E-002
  6.105463024246571E-002  7.314316614532518E-002  8.523170204818468E-002
  9.732023795104401E-002  0.109408773853903       0.121497309756763     
  0.133585845659622       0.145674381562481       0.157762917465341     
  5.106544277544166E-002  6.315397867830105E-002  7.524251458116067E-002
  8.733105048401972E-002  9.941958638687919E-002  0.111508122289739     
  0.123596658192598       0.135685194095457       0.147773729998317     
  0.159862265901176       0.171950801804035       7.061422958166751E-002
  8.270276548452671E-002  9.479130138738624E-002  0.106879837290245     
  0.118968373193105       0.131056909095964       0.143145444998823     
  0.155233980901683       0.167322516804542       0.179411052707402     
  0.191499588610261       9.521562280961060E-002  0.107304158712470     
  0.119392694615329       0.131481230518189       0.143569766421048     
  0.155658302323908       0.167746838226767       0.179835374129627     
  0.191923910032485       0.204012445935345       0.216100981838205     
  0.124481643791908       0.136570179694767       0.148658715597626     
  0.160747251500486       0.172835787403345       0.184924323306204     
  0.197012859209064       0.209101395111924       0.221189931014783     
  0.233278466917642       0.245367002820501       0.157950749894994     
  0.170039285797853       0.182127821700713       0.194216357603572     
  0.206304893506431       0.218393429409291       0.230481965312150     
  0.242570501215009       0.254659037117869       0.266747573020729     
  0.278836108923588       0.195095113322148       0.207183649225008     
  0.219272185127867       0.231360721030726       0.243449256933586     
  0.255537792836445       0.267626328739304       0.279714864642164     
  0.291803400545023       0.303891936447883       0.315980472350742     
  0.235328945273158       0.247417481176016       0.259506017078876     
  0.271594552981735       0.283683088884595       0.295771624787454     
  0.307860160690313       0.319948696593173       0.332037232496032     
  0.344125768398891       0.356214304301751       0.278017734183628     
  0.290106270086489       0.302194805989347       0.314283341892206     
  0.326371877795066       0.338460413697925       0.350548949600785     
  0.362637485503644       0.374726021406504       0.386814557309363     
  0.398903093212222       0.322488252351396       0.334576788254255     
  0.346665324157115       0.358753860059973       0.370842395962833     
  0.382930931865693       0.395019467768552       0.407108003671412     
  0.419196539574271       0.431285075477131       0.443373611379989     
  0.368039173139555       0.380127709042414       0.392216244945274     
  0.404304780848133       0.416393316750992       0.428481852653851     
  0.440570388556712       0.452658924459570       0.464747460362429     
  0.476835996265288       0.488924532168149       0.413952131316475     
  0.426040667219334       0.438129203122193       0.450217739025053     
  0.462306274927912       0.474394810830772       0.486483346733630     
  0.498571882636489       0.510660418539349       0.522748954442209     
  0.534837490345069       0.459503052104633       0.471591588007493     
  0.483680123910352       0.495768659813212       0.507857195716071     
  0.519945731618930       0.532034267521790       0.544122803424647     
  0.556211339327509       0.568299875230368       0.580388411133228     
  0.503973570272400       0.516062106175260       0.528150642078119     
  0.540239177980980       0.552327713883840       0.564416249786697     
  0.576504785689557       0.588593321592417       0.600681857495274     
  0.612770393398136       0.624858929300995       0.546662359182873     
  0.558750895085730       0.570839430988591       0.582927966891450     
  0.595016502794309       0.607105038697168       0.619193574600027     
  0.631282110502887       0.643370646405747       0.655459182308607     
  0.667547718211466       0.586896191133880       0.598984727036741     
  0.611073262939599       0.623161798842460       0.635250334745319     
  0.647338870648178       0.659427406551038       0.671515942453897     
  0.683604478356756       0.695693014259615       0.707781550162474     
  0.624040554561036       0.636129090463895       0.648217626366755     
  0.660306162269614       0.672394698172472       0.684483234075332     
  0.696571769978191       0.708660305881051       0.720748841783911     
  0.732837377686769       0.744925913589628       0.657509660664121     
  0.669598196566981       0.681686732469839       0.693775268372699     
  0.705863804275559       0.717952340178418       0.730040876081277     
  0.742129411984138       0.754217947886997       0.766306483789855     
  0.778395019692714       0.686775681646417       0.698864217549278     
  0.710952753452136       0.723041289354996       0.735129825257857     
  0.747218361160715       0.759306897063576       0.771395432966434     
  0.783483968869294       0.795572504772153       0.807661040675011     
  0.711377074874362       0.723465610777222       0.735554146680082     
  0.747642682582941       0.759731218485798       0.771819754388658     
  0.783908290291517       0.795996826194377       0.808085362097236     
  0.820173898000095       0.832262433902957       0.730925861680588     
  0.743014397583448       0.755102933486308       0.767191469389164     
  0.779280005292025       0.791368541194883       0.803457077097742     
  0.815545613000602       0.827634148903463       0.839722684806325     
  0.851811220709181       0.745113746019282       0.757202281922141     
  0.769290817825001       0.781379353727860       0.793467889630720     
  0.805556425533579       0.817644961436438       0.829733497339299     
  0.841822033242158       0.853910569145016       0.865999105047875     
  0.753716976478994       0.765805512381851       0.777894048284710     
  0.789982584187570       0.802071120090431       0.814159655993289     
  0.826248191896149       0.838336727799005       0.850425263701868     
  0.862513799604728       0.874602335507585       0.756599874976051     
  0.768688410878909       0.780776946781768       0.792865482684627     
  0.804954018587486       0.817042554490344       0.829131090393205     
  0.841219626296065       0.853308162198924       0.865396698101785     
  0.877485234004645     
  2.651247573289247E-002  2.386122815960322E-002  2.120998058631397E-002
  1.855873301302472E-002  1.590748543973548E-002  1.325623786644623E-002
  1.060499029315698E-002  7.953742719867740E-003  5.302495146578492E-003
  2.651247573289244E-003  0.000000000000000E+000  2.651247573289247E-002
  2.386122815960322E-002  2.120998058631397E-002  1.855873301302472E-002
  1.590748543973548E-002  1.325623786644623E-002  1.060499029315698E-002
  7.953742719867740E-003  5.302495146578492E-003  2.651247573289244E-003
  0.000000000000000E+000  2.651247573289247E-002  2.386122815960322E-002
  2.120998058631397E-002  1.855873301302472E-002  1.590748543973548E-002
  1.325623786644623E-002  1.060499029315698E-002  7.953742719867740E-003
  5.302495146578492E-003  2.651247573289244E-003  0.000000000000000E+000
  2.651247573289247E-002  2.386122815960322E-002  2.120998058631397E-002
  1.855873301302472E-002  1.590748543973548E-002  1.325623786644623E-002
  1.060499029315698E-002  7.953742719867740E-003  5.302495146578492E-003
  2.651247573289244E-003  0.000000000000000E+000  2.651247573289247E-002
  2.386122815960322E-002  2.120998058631397E-002  1.855873301302472E-002
  1.590748543973548E-002  1.325623786644623E-002  1.060499029315698E-002
  7.953742719867740E-003  5.302495146578492E-003  2.651247573289244E-003
  0.000000000000000E+000  2.651247573289247E-002  2.386122815960322E-002
  2.120998058631397E-002  1.855873301302472E-002  1.590748543973548E-002
  1.325623786644623E-002  1.060499029315698E-002  7.953742719867740E-003
  5.302495146578492E-003  2.651247573289244E-003  0.000000000000000E+000
  2.651247573289247E-002  2.386122815960322E-002  2.120998058631397E-002
  1.855873301302472E-002  1.590748543973548E-002  1.325623786644623E-002
  1.060499029315698E-002  7.953742719867740E-003  5.302495146578492E-003
  2.651247573289244E-003  0.000000000000000E+000  2.651247573289247E-002
  2.386122815960322E-002  2.120998058631397E-002  1.855873301302472E-002
  1.590748543973548E-002  1.325623786644623E-002  1.060499029315698E-002
  7.953742719867740E-003  5.302495146578492E-003  2.651247573289244E-003
  0.000000000000000E+000  2.651247573289247E-002  2.386122815960322E-002
  2.120998058631397E-002  1.855873301302472E-002  1.590748543973548E-002
  1.325623786644623E-002  1.060499029315698E-002  7.953742719867740E-003
  5.302495146578492E-003  2.651247573289244E-003  0.000000000000000E+000
  2.651247573289247E-002  2.386122815960322E-002  2.120998058631397E-002
  1.855873301302472E-002  1.590748543973548E-002  1.325623786644623E-002
  1.060499029315698E-002  7.953742719867740E-003  5.302495146578492E-003
  2.651247573289244E-003  0.000000000000000E+000  2.651247573289247E-002
  2.386122815960322E-002  2.120998058631397E-002  1.855873301302472E-002
  1.590748543973548E-002  1.325623786644623E-002  1.060499029315698E-002
  7.953742719867740E-003  5.302495146578492E-003  2.651247573289244E-003
  0.000000000000000E+000  2.651247573289247E-002  2.386122815960322E-002
  2.120998058631397E-002  1.855873301302472E-002  1.590748543973548E-002
  1.325623786644623E-002  1.060499029315698E-002  7.953742719867740E-003
  5.302495146578492E-003  2.651247573289244E-003  0.000000000000000E+000
  2.651247573289247E-002  2.386122815960322E-002  2.120998058631397E-002
  1.855873301302472E-002  1.590748543973548E-002  1.325623786644623E-002
  1.060499029315698E-002  7.953742719867740E-003  5.302495146578492E-003
  2.651247573289244E-003  0.000000000000000E+000  2.651247573289247E-002
  2.386122815960322E-002  2.120998058631397E-002  1.855873301302472E-002
  1.590748543973548E-002  1.325623786644623E-002  1.060499029315698E-002
  7.953742719867740E-003  5.302495146578492E-003  2.651247573289244E-003
  0.000000000000000E+000  2.651247573289247E-002  2.386122815960322E-002
  2.120998058631397E-002  1.855873301302472E-002  1.590748543973548E-002
  1.325623786644623E-002  1.060499029315698E-002  7.953742719867740E-003
  5.302495146578492E-003  2.651247573289244E-003  0.000000000000000E+000
  2.651247573289247E-002  2.386122815960322E-002  2.120998058631397E-002
  1.855873301302472E-002  1.590748543973548E-002  1.325623786644623E-002
  1.060499029315698E-002  7.953742719867740E-003  5.302495146578492E-003
  2.651247573289244E-003  0.000000000000000E+000  2.651247573289247E-002
  2.386122815960322E-002  2.120998058631397E-002  1.855873301302472E-002
  1.590748543973548E-002  1.325623786644623E-002  1.060499029315698E-002
  7.953742719867740E-003  5.302495146578492E-003  2.651247573289244E-003
  0.000000000000000E+000  2.651247573289247E-002  2.386122815960322E-002
  2.120998058631397E-002  1.855873301302472E-002  1.590748543973548E-002
  1.325623786644623E-002  1.060499029315698E-002  7.953742719867740E-003
  5.302495146578492E-003  2.651247573289244E-003  0.000000000000000E+000
  2.651247573289247E-002  2.386122815960322E-002  2.120998058631397E-002
  1.855873301302472E-002  1.590748543973548E-002  1.325623786644623E-002
  1.060499029315698E-002  7.953742719867740E-003  5.302495146578492E-003
  2.651247573289244E-003  0.000000000000000E+000  2.651247573289247E-002
  2.386122815960322E-002  2.120998058631397E-002  1.855873301302472E-002
  1.590748543973548E-002  1.325623786644623E-002  1.060499029315698E-002
  7.953742719867740E-003  5.302495146578492E-003  2.651247573289244E-003
  0.000000000000000E+000  2.651247573289247E-002  2.386122815960322E-002
  2.120998058631397E-002  1.855873301302472E-002  1.590748543973548E-002
  1.325623786644623E-002  1.060499029315698E-002  7.953742719867740E-003
  5.302495146578492E-003  2.651247573289244E-003  0.000000000000000E+000
  2.651247573289247E-002  2.386122815960322E-002  2.120998058631397E-002
  1.855873301302472E-002  1.590748543973548E-002  1.325623786644623E-002
  1.060499029315698E-002  7.953742719867740E-003  5.302495146578492E-003
  2.651247573289244E-003  0.000000000000000E+000  2.651247573289247E-002
  2.386122815960322E-002  2.120998058631397E-002  1.855873301302472E-002
  1.590748543973548E-002  1.325623786644623E-002  1.060499029315698E-002
  7.953742719867740E-003  5.302495146578492E-003  2.651247573289244E-003
  0.000000000000000E+000  2.651247573289247E-002  2.386122815960322E-002
  2.120998058631397E-002  1.855873301302472E-002  1.590748543973548E-002
  1.325623786644623E-002  1.060499029315698E-002  7.953742719867740E-003
  5.302495146578492E-003  2.651247573289244E-003  0.000000000000000E+000
  2.651247573289247E-002  2.386122815960322E-002  2.120998058631397E-002
  1.855873301302472E-002  1.590748543973548E-002  1.325623786644623E-002
  1.060499029315698E-002  7.953742719867740E-003  5.302495146578492E-003
  2.651247573289244E-003  0.000000000000000E+000  2.651247573289247E-002
  2.386122815960322E-002  2.120998058631397E-002  1.855873301302472E-002
  1.590748543973548E-002  1.325623786644623E-002  1.060499029315698E-002
  7.953742719867740E-003  5.302495146578492E-003  2.651247573289244E-003
  0.000000000000000E+000
  2.154219686543142E-002  6.028879001970156E-002  0.107542842878981     
  0.160252202556320       0.214407151207019       0.264371306419033     
  0.303394074545554       0.329486555427858       0.344041715588328     
  0.349393592660805       3.400811044152003E-002  9.730055228088205E-002
  0.175216339403184       0.262385403713787       0.352427803296942     
  0.436789240538070       0.504451355795877       0.551045851516594     
  0.578308330569623       0.590822480036839       3.861039081626245E-002
  0.118153920052707       0.218152714564457       0.330441627072597     
  0.447676138659724       0.561265060182834       0.658952500295165     
  0.731647058359853       0.777646216850665       0.800336475514033     
  3.517536660449121E-002  0.118300708334649       0.225551973966829     
  0.345785060719178       0.472357418434179       0.598720007543486     
  0.716453694366315       0.814354204537292       0.884805221338926     
  0.925002207024679       3.370940276507203E-002  0.108409252409975     
  0.206763281546229       0.318162317602528       0.434251756058806     
  0.549635979716362       0.661087018108774       0.766331122001519     
  0.857867704422435       0.924920845675127       4.879456914242961E-002
  0.115077104929177       0.198617153684557       0.293096146871394     
  0.390039275119787       0.482589064123167       0.569055276589606     
  0.653274653871977       0.736138854276662       0.803920135617895     
  9.914274416889453E-002  0.172738967987887       0.249083507012947     
  0.330347728938725       0.413536224606398       0.494072630433027     
  0.567839688343425       0.632900294647192       0.688773725359343     
  0.728364206918310       0.181013140564229       0.282632818494104     
  0.368905697970712       0.449643066372703       0.526754447159485     
  0.599053151835363       0.664622509388470       0.721927900589220     
  0.769454089204886       0.804350113300715       0.279072298616284     
  0.421093349156169       0.530052890548131       0.622759231521776     
  0.704563760722187       0.777170993756347       0.840969952238158     
  0.895757849805041       0.940881555286735       0.973889296154286     
  0.381214061490200       0.567788251179072       0.704476304038328     
  0.815135510749380       0.908263387127532       0.987663533599559     
   1.05516390264758        1.11152528895083        1.15651941195355     
   1.18780069991204       0.483676375384291       0.716018313236883     
  0.882578540198680        1.01431052217187        1.12262393302424     
   1.21295115064718        1.28813201126151        1.34951715593511     
   1.39713887565764        1.42872287593826       0.587829242678189     
  0.867436827018618        1.06570424007794        1.22068456271040     
   1.34656524874132        1.45023327487313        1.53539748089748     
   1.60394198493535        1.65620078691650        1.68996385983763     
  0.695482662710012        1.02420031567857        1.25574199120409     
   1.43547340259597        1.58040852718271        1.69888101872982     
   1.79544219246904        1.87249692255767        1.93067964931398     
   1.96780041662637       0.807325719048421        1.18696625528526     
   1.45300330999797        1.65843503551596        1.82321829580621     
   1.95719649375519        2.06580510712515        2.15199364839290     
   2.21669605222096        2.25771580188706       0.923297857419464     
   1.35544640546627        1.65683300727166        1.88842051525782     
   2.07325549018538        2.22278799039354        2.34341454917964     
   2.43867840920996        2.50985412516990        2.55478956376824     
   1.04453495466878        1.53102103073529        1.86849755328391     
   2.12634508669968        2.33092587938930        2.49544101084746     
   2.62736616122632        2.73095759983140        2.80794535189665     
   2.85635611765236        1.17906142887467        1.72410288406944     
   2.09909758666453        2.38318951099239        2.60672164325889     
   2.78503138215439        2.92690707337288        3.03748930630531     
   3.11913166796873        3.17023944709904        1.35646980887239     
   1.97074550057577        2.38592774211829        2.69626840450920     
   2.93807069044578        3.12943122932770        3.28064805781875     
   3.39784853689723        3.48408067264865        3.53813856682185     
   1.59012659273813        2.28748078899051        2.74621585635769     
   3.08234027138141        3.34049402279563        3.54247804220816     
   3.70064850942492        3.82244225130003        3.91176223476799     
   3.96791318945831        1.75030442323157        2.50090108409201     
   2.98364580926577        3.32941243026038        3.58928284263763     
   3.78884377445013        3.94264382379864        4.05934613670902     
   4.14362880057625        4.19571524607615        1.78561386692212     
   2.53149573013001        2.99924938676657        3.32691891505011     
   3.56868686463318        3.75157068418813        3.89066696862709     
   3.99470852047308        4.06832522937694        4.11236785509448     
   1.68352302318711        2.35743463107422        2.76591733335688     
   3.04530257590589        3.24817781642250        3.39998593729334     
   3.51437900557613        3.59886080721173        3.65708954593347     
   3.68970298976006        1.46017886479355        1.99956710290969     
   2.31419430681586        2.52621741407278        2.67926712585325     
   2.79347555271726        2.87938215121052        2.94271969157541     
   2.98639457878615        3.01122550798585        1.11787647113178     
   1.48260483947151        1.69251066330526        1.83431018399298     
   1.93703913782797        2.01394509782890        2.07201816567290     
   2.11521773911575        2.14611541714513        2.16842193616825     
  0.679818767760697       0.884083112617949        1.00276175689956     
   1.08339293773011        1.14201584159022        1.18600750717043     
   1.21928150155603        1.24403462780520        1.26146971410941     
   1.27192166208323     
  0.000000000000000E+000  0.000000000000000E+000  0.000000000000000E+000
  0.000000000000000E+000  0.000000000000000E+000  0.000000000000000E+000
  0.000000000000000E+000  0.000000000000000E+000  0.000000000000000E+000
  0.000000000000000E+000  0.000000000000000E+000  0.000000000000000E+000
  0.000000000000000E+000  0.000000000000000E+000  0.000000000000000E+000
  0.000000000000000E+000  0.000000000000000E+000  0.000000000000000E+000
  0.000000000000000E+000  0.000000000000000E+000  0.000000000000000E+000
  0.000000000000000E+000  0.000000000000000E+000  0.000000000000000E+000
  0.000000000000000E+000  0.000000000000000E+000  0.000000000000000E+000
  0.000000000000000E+000  0.000000000000000E+000  0.000000000000000E+000
  0.000000000000000E+000  0.000000000000000E+000  0.000000000000000E+000
  0.000000000000000E+000  0.000000000000000E+000  0.000000000000000E+000
  0.000000000000000E+000  0.000000000000000E+000  0.000000000000000E+000
  0.000000000000000E+000  0.000000000000000E+000  0.000000000000000E+000
  0.000000000000000E+000  0.000000000000000E+000  0.000000000000000E+000
  0.000000000000000E+000  0.000000000000000E+000  0.000000000000000E+000
  0.000000000000000E+000  0.000000000000000E+000  0.000000000000000E+000
  0.000000000000000E+000  0.000000000000000E+000  0.000000000000000E+000
  0.000000000000000E+000  0.000000000000000E+000  0.000000000000000E+000
  0.000000000000000E+000  0.000000000000000E+000  0.000000000000000E+000
  0.000000000000000E+000  0.000000000000000E+000  0.000000000000000E+000
  0.000000000000000E+000  0.000000000000000E+000  0.000000000000000E+000
  0.000000000000000E+000  0.000000000000000E+000  0.000000000000000E+000
  0.000000000000000E+000  0.000000000000000E+000  0.000000000000000E+000
  0.000000000000000E+000  0.000000000000000E+000  0.000000000000000E+000
  0.000000000000000E+000  0.000000000000000E+000  0.000000000000000E+000
  0.000000000000000E+000  0.000000000000000E+000  0.000000000000000E+000
  0.000000000000000E+000  0.000000000000000E+000  0.000000000000000E+000
  0.000000000000000E+000  0.000000000000000E+000  0.000000000000000E+000
  0.000000000000000E+000  0.000000000000000E+000  0.000000000000000E+000
  0.000000000000000E+000  0.000000000000000E+000  0.000000000000000E+000
  0.000000000000000E+000  0.000000000000000E+000  0.000000000000000E+000
  0.000000000000000E+000  0.000000000000000E+000  0.000000000000000E+000
  0.000000000000000E+000  0.000000000000000E+000  0.000000000000000E+000
  0.000000000000000E+000  0.000000000000000E+000  0.000000000000000E+000
  0.000000000000000E+000  0.000000000000000E+000  0.000000000000000E+000
  0.000000000000000E+000  0.000000000000000E+000  0.000000000000000E+000
  0.000000000000000E+000  0.000000000000000E+000  0.000000000000000E+000
  0.000000000000000E+000  0.000000000000000E+000  0.000000000000000E+000