 Title = "Wing and Wake"
 VARIABLES = "X" "Y" "Z" "GAM" "skew"
 Zone I=   11 J=   26 K=1  T="Blade"
 DATAPACKING=BLOCK
 VARLOCATION=([4]=CELLCENTERED,[5]=CELLCENTERED)
 -0.206678964221498      -0.204988194643892      -0.203297425066286     
 -0.201606655488680      -0.199915885911074      -0.198225116333469     
 -0.196534346755862      -0.194843577178257      -0.193152807600651     
 -0.191462038023045      -0.189771268445440      -0.210419074393207     
 -0.208728304815601      -0.207037535237995      -0.205346765660389     
 -0.203655996082784      -0.201965226505178      -0.200274456927572     
 -0.198583687349966      -0.196892917772360      -0.195202148194755     
 -0.193511378617149      -0.221580421136692      -0.219889651559086     
 -0.218198881981481      -0.216508112403875      -0.214817342826269     
 -0.213126573248663      -0.211435803671057      -0.209745034093452     
 -0.208054264515846      -0.206363494938240      -0.204672725360634     
 -0.239986983346345      -0.238296213768739      -0.236605444191133     
 -0.234914674613527      -0.233223905035922      -0.231533135458316     
 -0.229842365880710      -0.228151596303104      -0.226460826725498     
 -0.224770057147892      -0.223079287570287      -0.265348478540570     
 -0.263657708962964      -0.261966939385359      -0.260276169807753     
 -0.258585400230147      -0.256894630652541      -0.255203861074935     
 -0.253513091497330      -0.251822321919724      -0.250131552342118     
 -0.248440782764512      -0.297264940789932      -0.295574171212327     
 -0.293883401634721      -0.292192632057115      -0.290501862479509     
 -0.288811092901904      -0.287120323324297      -0.285429553746692     
 -0.283738784169086      -0.282048014591480      -0.280357245013875     
 -0.335233028418790      -0.333542258841185      -0.331851489263578     
 -0.330160719685973      -0.328469950108366      -0.326779180530761     
 -0.325088410953155      -0.323397641375550      -0.321706871797944     
 -0.320016102220338      -0.318325332642731      -0.378653962004198     
 -0.376963192426592      -0.375272422848987      -0.373581653271380     
 -0.371890883693775      -0.370200114116170      -0.368509344538563     
 -0.366818574960957      -0.365127805383352      -0.363437035805747     
 -0.361746266228141      -0.426842967485107      -0.425152197907502     
 -0.423461428329896      -0.421770658752290      -0.420079889174684     
 -0.418389119597078      -0.416698350019473      -0.415007580441868     
 -0.413316810864261      -0.411626041286656      -0.409935271709050     
 -0.479040075458367      -0.477349305880761      -0.475658536303156     
 -0.473967766725549      -0.472276997147944      -0.470586227570338     
 -0.468895457992732      -0.467204688415127      -0.465513918837520     
 -0.463823149259915      -0.462132379682309      -0.534422106350198     
 -0.532731336772594      -0.531040567194987      -0.529349797617381     
 -0.527659028039775      -0.525968258462169      -0.524277488884564     
 -0.522586719306958      -0.520895949729353      -0.519205180151746     
 -0.517514410574140      -0.592115652449815      -0.590424882872207     
 -0.588734113294603      -0.587043343716996      -0.585352574139391     
 -0.583661804561786      -0.581971034984177      -0.580280265406573     
 -0.578589495828968      -0.576898726251362      -0.575207956673756     
 -0.651210852070771      -0.649520082493166      -0.647829312915559     
 -0.646138543337956      -0.644447773760348      -0.642757004182742     
 -0.641066234605136      -0.639375465027530      -0.637684695449924     
 -0.635993925872319      -0.634303156294713      -0.710775738613286     
 -0.709084969035679      -0.707394199458073      -0.705703429880466     
 -0.704012660302862      -0.702321890725257      -0.700631121147649     
 -0.698940351570044      -0.697249581992438      -0.695558812414833     
 -0.693868042837227      -0.769870938234241      -0.768180168656636     
 -0.766489399079030      -0.764798629501426      -0.763107859923820     
 -0.761417090346213      -0.759726320768607      -0.758035551191000     
 -0.756344781613396      -0.754654012035791      -0.752963242458185     
 -0.827564484333856      -0.825873714756252      -0.824182945178646     
 -0.822492175601041      -0.820801406023436      -0.819110636445829     
 -0.817419866868224      -0.815729097290618      -0.814038327713010     
 -0.812347558135406      -0.810656788557801      -0.882946515225689     
 -0.881255745648081      -0.879564976070478      -0.877874206492873     
 -0.876183436915266      -0.874492667337659      -0.872801897760053     
 -0.871111128182448      -0.869420358604842      -0.867729589027238     
 -0.866038819449632      -0.935143623198948      -0.933452853621342     
 -0.931762084043735      -0.930071314466132      -0.928380544888525     
 -0.926689775310920      -0.924999005733314      -0.923308236155709     
 -0.921617466578102      -0.919926697000496      -0.918235927422890     
 -0.983332628679858      -0.981641859102252      -0.979951089524645     
 -0.978260319947041      -0.976569550369435      -0.974878780791828     
 -0.973188011214221      -0.971497241636618      -0.969806472059012     
 -0.968115702481405      -0.966424932903799       -1.02675356226527     
  -1.02506279268766       -1.02337202311005       -1.02168125353245     
  -1.01999048395484       -1.01829971437724       -1.01660894479963     
  -1.01491817522203       -1.01322740564442       -1.01153663606681     
  -1.00984586648921       -1.06472164989412       -1.06303088031652     
  -1.06134011073891       -1.05964934116131       -1.05795857158370     
  -1.05626780200609       -1.05457703242849       -1.05288626285088     
  -1.05119549327328       -1.04950472369567       -1.04781395411806     
  -1.09663811214349       -1.09494734256588       -1.09325657298827     
  -1.09156580341067       -1.08987503383306       -1.08818426425546     
  -1.08649349467785       -1.08480272510024       -1.08311195552264     
  -1.08142118594503       -1.07973041636743       -1.12199960733771     
  -1.12030883776011       -1.11861806818250       -1.11692729860489     
  -1.11523652902729       -1.11354575944968       -1.11185498987207     
  -1.11016422029447       -1.10847345071686       -1.10678268113926     
  -1.10509191156165       -1.14040616954737       -1.13871539996976     
  -1.13702463039215       -1.13533386081455       -1.13364309123694     
  -1.13195232165933       -1.13026155208173       -1.12857078250412     
  -1.12688001292652       -1.12518924334891       -1.12349847377131     
  -1.15156751629085       -1.14987674671324       -1.14818597713563     
  -1.14649520755803       -1.14480443798043       -1.14311366840282     
  -1.14142289882521       -1.13973212924761       -1.13804135967000     
  -1.13635059009240       -1.13465982051479       -1.15530762646256     
  -1.15361685688495       -1.15192608730734       -1.15023531772974     
  -1.14854454815213       -1.14685377857453       -1.14516300899692     
  -1.14347223941932       -1.14178146984171       -1.14009070026411     
  -1.13839993068650     
 -0.170809577982181      -0.152020892968573      -0.133232207954965     
 -0.114443522941357      -9.565483792774980E-002 -7.686615291414219E-002
 -5.807746790053434E-002 -3.928878288692658E-002 -2.050009787331891E-002
 -1.711412859711683E-003  1.707727215389613E-002 -0.170473010282491     
 -0.151684325268884      -0.132895640255276      -0.114106955241668     
 -9.531827022806033E-002 -7.652958521445279E-002 -5.774090020084494E-002
 -3.895221518723727E-002 -2.016353017362953E-002 -1.374845160022294E-003
  1.741383985358558E-002 -0.169468615057102      -0.150679930043495     
 -0.131891245029887      -0.113102560016279      -9.431387500267188E-002
 -7.552518998906413E-002 -5.673650497545662E-002 -3.794781996184905E-002
 -1.915913494824129E-002 -3.704499346336555E-004  1.841823507897394E-002
 -0.167812232218716      -0.149023547205108      -0.130234862191501     
 -0.111446177177893      -9.265749216428545E-002 -7.386880715067758E-002
 -5.508012213707013E-002 -3.629143712346274E-002 -1.750275210985495E-002
  1.285932903752625E-003  2.007461791736009E-002 -0.165529983914168     
 -0.146741298900560      -0.127952613886953      -0.109163928873345     
 -9.037524385973777E-002 -7.158655884612944E-002 -5.279787383252237E-002
 -3.400918881891449E-002 -1.522050380530700E-002  3.568181208300616E-003
  2.235686622190831E-002 -0.162657862562571      -0.143869177548963     
 -0.125080492535355      -0.106291807521748      -8.750312250813988E-002
 -6.871443749453236E-002 -4.992575248092426E-002 -3.113706746731695E-002
 -1.234838245370971E-002  6.440302559898352E-003  2.522898757350647E-002
 -0.159241163233360      -0.140452478219752      -0.121663793206145     
 -0.102875108192537      -8.408642317892913E-002 -6.529773816532197E-002
 -4.650905315171439E-002 -2.772036813810632E-002 -8.931683124498274E-003
  9.857001889108879E-003  2.864568690271618E-002 -0.155333769315995     
 -0.136545084302388      -0.117756399288780      -9.896771427517237E-002
 -8.017902926156482E-002 -6.139034424795738E-002 -4.260165923434901E-002
 -2.381297422074159E-002 -5.024289207133825E-003  1.376439580647392E-002
  3.255308082008102E-002 -0.150997302746717      -0.132208617733110     
 -0.113419932719502      -9.463124770589525E-002 -7.584256269228680E-002
 -5.705387767867928E-002 -3.826519266507200E-002 -1.947650765146394E-002
 -6.878226378569333E-004  1.810086237575134E-002  3.688954738935856E-002
 -0.146300152193803      -0.127511467180196      -0.108722782166588     
 -8.993409715298091E-002 -7.114541213937314E-002 -5.235672712576548E-002
 -3.356804211215757E-002 -1.477935709855021E-002  4.009327915057614E-003
  2.279801292866467E-002  4.158669794227262E-002 -0.141316394527415     
 -0.122527709513808      -0.103739024500200      -8.495033948659206E-002
 -6.616165447298401E-002 -4.737296945937719E-002 -2.858428444576916E-002
 -9.795599432161592E-003  8.993085581446320E-003  2.778177059505356E-002
  4.657045560866133E-002 -0.136124626583103      -0.117335941569495     
 -9.854725655588686E-002 -7.975857154228054E-002 -6.096988652867183E-002
 -4.218120151506501E-002 -2.339251650145631E-002 -4.603831487849675E-003
  1.418485352575793E-002  3.297353853936634E-002  5.176222355297282E-002
 -0.130806725642760      -0.112018040629154      -9.322935561554502E-002
 -7.444067060193840E-002 -5.565198558833048E-002 -3.686330057472288E-002
 -1.807461556111446E-002  7.140694524923446E-004  1.950275446609998E-002
  3.829143947970736E-002  5.708012449331511E-002 -0.125446558180977     
 -0.106657873167370      -8.786918815376286E-002 -6.908050314015497E-002
 -5.029181812654739E-002 -3.150313311293976E-002 -1.271444809933257E-002
  6.074236914274380E-003  2.486292192788266E-002  4.365160694149108E-002
  6.244029195509809E-002 -0.120128657240637      -0.101339972227029     
 -8.255128721342204E-002 -6.376260219981318E-002 -4.497391718620641E-002
 -2.618523217259879E-002 -7.396547158989892E-003  1.139213785461603E-002
  3.018082286822470E-002  4.896950788183219E-002  6.775819289544015E-002
 -0.114936889296324      -9.614820428271593E-002 -7.735951926910924E-002
 -5.857083425550075E-002 -3.978214924189361E-002 -2.099346422828608E-002
 -2.204779214678765E-003  1.658390579893008E-002  3.537259081253622E-002
  5.416127582614508E-002  7.294996083975241E-002 -0.109953131629934     
 -9.116444661632818E-002 -7.237576160271979E-002 -5.358707658911289E-002
 -3.479839157550493E-002 -1.600970656189779E-002  2.778978451710600E-003
  2.156766346531744E-002  4.035634847892568E-002  5.914503349253289E-002
  7.793371850614068E-002 -0.105255981077022      -8.646729606341289E-002
 -6.767861104980617E-002 -4.888992603619846E-002 -3.010124102259027E-002
 -1.131255600898300E-002  7.476129004625231E-003  2.626481401823181E-002
  4.505349903184007E-002  6.384218404544784E-002  8.263086905905417E-002
 -0.100919514507743      -8.213082949413653E-002 -6.334214448052738E-002
 -4.455345946692054E-002 -2.576477445331436E-002 -6.976089439705692E-003
  1.181259557390284E-002  3.060128058750975E-002  4.938996560111703E-002
  6.817865061472500E-002  8.696733562833218E-002 -9.701212059038004E-002
 -7.822343557677162E-002 -5.943475056316409E-002 -4.064606554955731E-002
 -2.185738053594854E-002 -3.068695522341088E-003  1.571998949126645E-002
  3.450867450487420E-002  5.329735951848241E-002  7.208604453208824E-002
  9.087472954569606E-002 -9.359542126116754E-002 -7.480673624756054E-002
 -5.601805123395485E-002 -3.722936622034584E-002 -1.844068120673768E-002
  3.480038068705729E-004  1.913668882047721E-002  3.792537383408444E-002
  5.671405884769225E-002  7.550274386130043E-002  9.429142887490746E-002
 -9.072329990957073E-002 -7.193461489596395E-002 -5.314592988235508E-002
 -3.435724486874725E-002 -1.556855985514124E-002  3.220125158467160E-003
  2.200881017207431E-002  4.079749518568259E-002  5.958618019929071E-002
  7.837486521289705E-002  9.716355022650709E-002 -8.844105160502516E-002
 -6.965236659141451E-002 -5.086368157780682E-002 -3.207499656420090E-002
 -1.328631155059211E-002  5.502373463015418E-003  2.429105847662270E-002
  4.307974349023010E-002  6.186842850383795E-002  8.065711351744696E-002
  9.944579853105355E-002 -8.678466876663725E-002 -6.799598375303055E-002
 -4.920729873942117E-002 -3.041861372581391E-002 -1.162992871220629E-002
  7.158756301402385E-003  2.594744131500845E-002  4.473612632861678E-002
  6.352481134222554E-002  8.231349635583206E-002  0.101102181369441     
 -8.578027354124713E-002 -6.699158852764064E-002 -4.820290351403383E-002
 -2.941421850042460E-002 -1.062553348681580E-002  8.163151526789597E-003
  2.695183654039777E-002  4.574052155400472E-002  6.452920656761248E-002
  8.331789158122070E-002  0.102106576594828      -8.544370584155726E-002
 -6.665502082795212E-002 -4.786633581434276E-002 -2.907765080073567E-002
 -1.028896578712747E-002  8.499719226478106E-003  2.728840424008790E-002
  4.607708925369548E-002  6.486577426730206E-002  8.365445928091104E-002
  0.102443144294519     
  2.651247573289247E-002  2.386122815960322E-002  2.120998058631397E-002
  1.855873301302472E-002  1.590748543973548E-002  1.325623786644623E-002
  1.060499029315698E-002  7.953742719867740E-003  5.302495146578492E-003
  2.651247573289244E-003  0.000000000000000E+000  2.651247573289247E-002
  2.386122815960322E-002  2.120998058631397E-002  1.855873301302472E-002
  1.590748543973548E-002  1.325623786644623E-002  1.060499029315698E-002
  7.953742719867740E-003  5.302495146578492E-003  2.651247573289244E-003
  0.000000000000000E+000  2.651247573289247E-002  2.386122815960322E-002
  2.120998058631397E-002  1.855873301302472E-002  1.590748543973548E-002
  1.325623786644623E-002  1.060499029315698E-002  7.953742719867740E-003
  5.302495146578492E-003  2.651247573289244E-003  0.000000000000000E+000
  2.651247573289247E-002  2.386122815960322E-002  2.120998058631397E-002
  1.855873301302472E-002  1.590748543973548E-002  1.325623786644623E-002
  1.060499029315698E-002  7.953742719867740E-003  5.302495146578492E-003
  2.651247573289244E-003  0.000000000000000E+000  2.651247573289247E-002
  2.386122815960322E-002  2.120998058631397E-002  1.855873301302472E-002
  1.590748543973548E-002  1.325623786644623E-002  1.060499029315698E-002
  7.953742719867740E-003  5.302495146578492E-003  2.651247573289244E-003
  0.000000000000000E+000  2.651247573289247E-002  2.386122815960322E-002
  2.120998058631397E-002  1.855873301302472E-002  1.590748543973548E-002
  1.325623786644623E-002  1.060499029315698E-002  7.953742719867740E-003
  5.302495146578492E-003  2.651247573289244E-003  0.000000000000000E+000
  2.651247573289247E-002  2.386122815960322E-002  2.120998058631397E-002
  1.855873301302472E-002  1.590748543973548E-002  1.325623786644623E-002
  1.060499029315698E-002  7.953742719867740E-003  5.302495146578492E-003
  2.651247573289244E-003  0.000000000000000E+000  2.651247573289247E-002
  2.386122815960322E-002  2.120998058631397E-002  1.855873301302472E-002
  1.590748543973548E-002  1.325623786644623E-002  1.060499029315698E-002
  7.953742719867740E-003  5.302495146578492E-003  2.651247573289244E-003
  0.000000000000000E+000  2.651247573289247E-002  2.386122815960322E-002
  2.120998058631397E-002  1.855873301302472E-002  1.590748543973548E-002
  1.325623786644623E-002  1.060499029315698E-002  7.953742719867740E-003
  5.302495146578492E-003  2.651247573289244E-003  0.000000000000000E+000
  2.651247573289247E-002  2.386122815960322E-002  2.120998058631397E-002
  1.855873301302472E-002  1.590748543973548E-002  1.325623786644623E-002
  1.060499029315698E-002  7.953742719867740E-003  5.302495146578492E-003
  2.651247573289244E-003  0.000000000000000E+000  2.651247573289247E-002
  2.386122815960322E-002  2.120998058631397E-002  1.855873301302472E-002
  1.590748543973548E-002  1.325623786644623E-002  1.060499029315698E-002
  7.953742719867740E-003  5.302495146578492E-003  2.651247573289244E-003
  0.000000000000000E+000  2.651247573289247E-002  2.386122815960322E-002
  2.120998058631397E-002  1.855873301302472E-002  1.590748543973548E-002
  1.325623786644623E-002  1.060499029315698E-002  7.953742719867740E-003
  5.302495146578492E-003  2.651247573289244E-003  0.000000000000000E+000
  2.651247573289247E-002  2.386122815960322E-002  2.120998058631397E-002
  1.855873301302472E-002  1.590748543973548E-002  1.325623786644623E-002
  1.060499029315698E-002  7.953742719867740E-003  5.302495146578492E-003
  2.651247573289244E-003  0.000000000000000E+000  2.651247573289247E-002
  2.386122815960322E-002  2.120998058631397E-002  1.855873301302472E-002
  1.590748543973548E-002  1.325623786644623E-002  1.060499029315698E-002
  7.953742719867740E-003  5.302495146578492E-003  2.651247573289244E-003
  0.000000000000000E+000  2.651247573289247E-002  2.386122815960322E-002
  2.120998058631397E-002  1.855873301302472E-002  1.590748543973548E-002
  1.325623786644623E-002  1.060499029315698E-002  7.953742719867740E-003
  5.302495146578492E-003  2.651247573289244E-003  0.000000000000000E+000
  2.651247573289247E-002  2.386122815960322E-002  2.120998058631397E-002
  1.855873301302472E-002  1.590748543973548E-002  1.325623786644623E-002
  1.060499029315698E-002  7.953742719867740E-003  5.302495146578492E-003
  2.651247573289244E-003  0.000000000000000E+000  2.651247573289247E-002
  2.386122815960322E-002  2.120998058631397E-002  1.855873301302472E-002
  1.590748543973548E-002  1.325623786644623E-002  1.060499029315698E-002
  7.953742719867740E-003  5.302495146578492E-003  2.651247573289244E-003
  0.000000000000000E+000  2.651247573289247E-002  2.386122815960322E-002
  2.120998058631397E-002  1.855873301302472E-002  1.590748543973548E-002
  1.325623786644623E-002  1.060499029315698E-002  7.953742719867740E-003
  5.302495146578492E-003  2.651247573289244E-003  0.000000000000000E+000
  2.651247573289247E-002  2.386122815960322E-002  2.120998058631397E-002
  1.855873301302472E-002  1.590748543973548E-002  1.325623786644623E-002
  1.060499029315698E-002  7.953742719867740E-003  5.302495146578492E-003
  2.651247573289244E-003  0.000000000000000E+000  2.651247573289247E-002
  2.386122815960322E-002  2.120998058631397E-002  1.855873301302472E-002
  1.590748543973548E-002  1.325623786644623E-002  1.060499029315698E-002
  7.953742719867740E-003  5.302495146578492E-003  2.651247573289244E-003
  0.000000000000000E+000  2.651247573289247E-002  2.386122815960322E-002
  2.120998058631397E-002  1.855873301302472E-002  1.590748543973548E-002
  1.325623786644623E-002  1.060499029315698E-002  7.953742719867740E-003
  5.302495146578492E-003  2.651247573289244E-003  0.000000000000000E+000
  2.651247573289247E-002  2.386122815960322E-002  2.120998058631397E-002
  1.855873301302472E-002  1.590748543973548E-002  1.325623786644623E-002
  1.060499029315698E-002  7.953742719867740E-003  5.302495146578492E-003
  2.651247573289244E-003  0.000000000000000E+000  2.651247573289247E-002
  2.386122815960322E-002  2.120998058631397E-002  1.855873301302472E-002
  1.590748543973548E-002  1.325623786644623E-002  1.060499029315698E-002
  7.953742719867740E-003  5.302495146578492E-003  2.651247573289244E-003
  0.000000000000000E+000  2.651247573289247E-002  2.386122815960322E-002
  2.120998058631397E-002  1.855873301302472E-002  1.590748543973548E-002
  1.325623786644623E-002  1.060499029315698E-002  7.953742719867740E-003
  5.302495146578492E-003  2.651247573289244E-003  0.000000000000000E+000
  2.651247573289247E-002  2.386122815960322E-002  2.120998058631397E-002
  1.855873301302472E-002  1.590748543973548E-002  1.325623786644623E-002
  1.060499029315698E-002  7.953742719867740E-003  5.302495146578492E-003
  2.651247573289244E-003  0.000000000000000E+000  2.651247573289247E-002
  2.386122815960322E-002  2.120998058631397E-002  1.855873301302472E-002
  1.590748543973548E-002  1.325623786644623E-002  1.060499029315698E-002
  7.953742719867740E-003  5.302495146578492E-003  2.651247573289244E-003
  0.000000000000000E+000
 -2.095197044404985E-002 -1.662209804253997E-002 -6.768191885686120E-003
  6.466586232432287E-003  2.264856912534049E-002  4.201696691580686E-002
  6.488897854002430E-002  9.136017180870158E-002  0.120964212018856     
  0.151444874202117      -3.108578525888465E-002 -2.421602246879365E-002
 -7.810741821582386E-003  1.431322465107117E-002  4.133716536033245E-002
  7.358061276114976E-002  0.111545864374647       0.155455222723186     
  0.204771239314630       0.256232298018219      -2.920682487679670E-002
 -1.927063787257169E-002  2.961237111871990E-003  3.271510872411162E-002
  6.877456573576746E-002  0.111284045710102       0.160794090937526     
  0.217657247397875       0.281468852969568       0.347420482154008     
 -1.291155810391046E-002  3.780963084536505E-003  3.188413812048160E-002
  6.756439251283412E-002  0.109560087775506       0.157641235566883     
  0.211998492927051       0.272746831321215       0.339267567599714     
  0.407503354247291       1.782936246473337E-002  4.678693696489813E-002
  8.264332899273207E-002  0.123841186356448       0.169596381802081     
  0.219413628873511       0.272823041105016       0.329223090356767     
  0.387709105990179       0.444774514276879       6.257371309583282E-002
  0.109883934641754       0.156731647755782       0.204755400569197     
  0.254181708378716       0.304763444933614       0.355911094063732     
  0.406664667462663       0.455484089070476       0.498761990153260     
  0.120589720600997       0.192461803837350       0.254377803769595     
  0.312044120077873       0.367179570150530       0.420243438235547     
  0.471027057287069       0.518803508246322       0.562242608716646     
  0.598205034389686       0.191177449411246       0.293748035294494     
  0.375185467169568       0.446105783916700       0.510101031835072     
  0.568609464869216       0.622072387886848       0.670283740157138     
  0.712337219399989       0.745481334935332       0.273229967144065     
  0.412133885223606       0.517280296950355       0.604981718303229     
  0.681041785414802       0.748057455726513       0.807192535407450     
  0.858738470006478       0.902132463094321       0.934844307367157     
  0.365070410593628       0.545130057934696       0.677582412562335     
  0.785079032248611       0.875872151769795       0.953828892502045     
   1.02088971502910        1.07784590648280        1.12443679224624     
   1.15825726519308       0.464829786149252       0.689927816341016     
  0.852547348374967       0.982188134647833        1.08974457277870     
   1.18043723815412        1.25700825464102        1.32075081774042     
   1.37167788864290        1.40741648285700       0.570648040389883     
  0.843707817526727        1.03861593296065        1.19211337129071     
   1.31788114091272        1.42255791395035        1.50971052656764     
   1.58113653226659        1.63711521399027        1.67527819478586     
  0.681041119692036        1.00417641134050        1.23284415640474     
   1.41134143899072        1.55625733240000        1.67570588731662     
   1.77410975826945        1.85378531968752        1.91529656281645     
   1.95627822292820       0.794985094082750        1.16971413994179     
   1.43310402130956        1.63726513038754        1.80180654499699     
   1.93638351738074        2.04631553656117        2.13447256791111     
   2.20172360810951        2.24573268330152       0.911941731195863     
   1.33941751463550        1.63813017130037        1.86823773651654     
   2.05246920800453        2.20209990987789        2.32341474447811     
   2.41988561904786        2.49274067982467        2.53974122295332     
   1.03321164396898        1.51496166432239        1.84961913888685     
   2.10574315472404        2.30936575877767        2.47351098603196     
   2.60554379394427        2.70965137727453        2.78753033247430     
   2.83717014184955        1.16748969717217        1.70783079851943     
   2.08004836130863        2.36238910006513        2.58482947185042     
   2.76250898759500        2.90409899234719        3.01467385601881     
   3.09655993743540        3.14815794335774        1.34805780435575     
   1.95880544921211        2.37196691432157        2.68118967301688     
   2.92239742962127        3.11342332476589        3.26443685222821     
   3.38151421544208        3.46768157295238        3.52171781110602     
   1.59486837680592        2.29326669186014        2.75251724255340     
   3.08931347369260        3.34815641770305        3.55066588604250     
   3.70919212464652        3.83120654472535        3.92062896945981     
   3.97674154581097        1.76524080734246        2.52114520656319     
   3.00703998005177        3.35511666531988        3.61670280396963     
   3.81749394721216        3.97216235332432        4.08946879672998     
   4.17414608376684        4.22641389716876        1.80726285779481     
   2.56100918519832        3.03331751805049        3.36413175308201     
   3.60812179858845        3.79253512816297        3.93265539700161     
   4.03735094473575        4.11134101380184        4.15553086284064     
   1.70545715060443        2.38760083226417        2.80079208337214     
   3.08326049664583        3.28827952832957        3.44160459852322     
   3.55706475184767        3.64227287929245        3.70095465961333     
   3.73379436622566        1.47887787463853        2.02504176000028     
   2.34348552872275        2.55797796595371        2.71273052602933     
   2.82814420099146        2.91490599499945        2.97883757052102     
   3.02289975577923        3.04794339650491        1.13186902133970     
   1.50119303678561        1.71368384289545        1.85717025958568     
   1.96107170586445        2.03881485293190        2.09748925363211     
   2.14111590024081        2.17231029626077        2.19484107870449     
  0.688246629592956       0.895087124493934        1.01523307650524     
   1.09682949629486        1.15612723332457        1.20060322120960     
   1.23422682861455        1.25922917931247        1.27683482083154     
   1.28738964075900     
  0.000000000000000E+000  0.000000000000000E+000  0.000000000000000E+000
  0.000000000000000E+000  0.000000000000000E+000  0.000000000000000E+000
  0.000000000000000E+000  0.000000000000000E+000  0.000000000000000E+000
  0.000000000000000E+000  0.000000000000000E+000  0.000000000000000E+000
  0.000000000000000E+000  0.000000000000000E+000  0.000000000000000E+000
  0.000000000000000E+000  0.000000000000000E+000  0.000000000000000E+000
  0.000000000000000E+000  0.000000000000000E+000  0.000000000000000E+000
  0.000000000000000E+000  0.000000000000000E+000  0.000000000000000E+000
  0.000000000000000E+000  0.000000000000000E+000  0.000000000000000E+000
  0.000000000000000E+000  0.000000000000000E+000  0.000000000000000E+000
  0.000000000000000E+000  0.000000000000000E+000  0.000000000000000E+000
  0.000000000000000E+000  0.000000000000000E+000  0.000000000000000E+000
  0.000000000000000E+000  0.000000000000000E+000  0.000000000000000E+000
  0.000000000000000E+000  0.000000000000000E+000  0.000000000000000E+000
  0.000000000000000E+000  0.000000000000000E+000  0.000000000000000E+000
  0.000000000000000E+000  0.000000000000000E+000  0.000000000000000E+000
  0.000000000000000E+000  0.000000000000000E+000  0.000000000000000E+000
  0.000000000000000E+000  0.000000000000000E+000  0.000000000000000E+000
  0.000000000000000E+000  0.000000000000000E+000  0.000000000000000E+000
  0.000000000000000E+000  0.000000000000000E+000  0.000000000000000E+000
  0.000000000000000E+000  0.000000000000000E+000  0.000000000000000E+000
  0.000000000000000E+000  0.000000000000000E+000  0.000000000000000E+000
  0.000000000000000E+000  0.000000000000000E+000  0.000000000000000E+000
  0.000000000000000E+000  0.000000000000000E+000  0.000000000000000E+000
  0.000000000000000E+000  0.000000000000000E+000  0.000000000000000E+000
  0.000000000000000E+000  0.000000000000000E+000  0.000000000000000E+000
  0.000000000000000E+000  0.000000000000000E+000  0.000000000000000E+000
  0.000000000000000E+000  0.000000000000000E+000  0.000000000000000E+000
  0.000000000000000E+000  0.000000000000000E+000  0.000000000000000E+000
  0.000000000000000E+000  0.000000000000000E+000  0.000000000000000E+000
  0.000000000000000E+000  0.000000000000000E+000  0.000000000000000E+000
  0.000000000000000E+000  0.000000000000000E+000  0.000000000000000E+000
  0.000000000000000E+000  0.000000000000000E+000  0.000000000000000E+000
  0.000000000000000E+000  0.000000000000000E+000  0.000000000000000E+000
  0.000000000000000E+000  0.000000000000000E+000  0.000000000000000E+000
  0.000000000000000E+000  0.000000000000000E+000  0.000000000000000E+000
  0.000000000000000E+000  0.000000000000000E+000  0.000000000000000E+000
  0.000000000000000E+000  0.000000000000000E+000  0.000000000000000E+000
  0.000000000000000E+000  0.000000000000000E+000  0.000000000000000E+000