 Title = "Wing and Wake"
 VARIABLES = "X" "Y" "Z" "GAM" "skew"
 Zone I=   11 J=   26 K=1  T="Blade"
 DATAPACKING=BLOCK
 VARLOCATION=([4]=CELLCENTERED,[5]=CELLCENTERED)
 -6.002516007668882E-002 -7.011929205398851E-002 -8.021342403128837E-002
 -9.030755600858829E-002 -0.100401687985888      -0.110495819963188     
 -0.120589951940487      -0.130684083917787      -0.140778215895087     
 -0.150872347872387      -0.160966479849687      -6.319757059763750E-002
 -7.329170257493713E-002 -8.338583455223676E-002 -9.347996652953632E-002
 -0.103574098506836      -0.113668230484136      -0.123762362461436     
 -0.133856494438736      -0.143950626416035      -0.154044758393335     
 -0.164138890370635      -7.266477135146017E-002 -8.275890332875994E-002
 -9.285303530605976E-002 -0.102947167283360      -0.113041299260659     
 -0.123135431237959      -0.133229563215259      -0.143323695192559     
 -0.153417827169858      -0.163511959147158      -0.173606091124458     
 -8.827745892683958E-002 -9.837159090413915E-002 -0.108465722881439     
 -0.118559854858739      -0.128653986836038      -0.138748118813338     
 -0.148842250790638      -0.158936382767937      -0.169030514745237     
 -0.179124646722537      -0.189218778699837      -0.109789411914143     
 -0.119883543891442      -0.129977675868742      -0.140071807846042     
 -0.150165939823342      -0.160260071800641      -0.170354203777941     
 -0.180448335755241      -0.190542467732540      -0.200636599709841     
 -0.210730731687140      -0.136861373964142      -0.146955505941442     
 -0.157049637918742      -0.167143769896042      -0.177237901873342     
 -0.187332033850642      -0.197426165827941      -0.207520297805241     
 -0.217614429782540      -0.227708561759840      -0.237802693737140     
 -0.169066404063305      -0.179160536040605      -0.189254668017904     
 -0.199348799995204      -0.209442931972504      -0.219537063949803     
 -0.229631195927103      -0.239725327904403      -0.249819459881703     
 -0.259913591859002      -0.270007723836302      -0.205896609648613     
 -0.215990741625913      -0.226084873603212      -0.236179005580511     
 -0.246273137557812      -0.256367269535112      -0.266461401512411     
 -0.276555533489711      -0.286649665467011      -0.296743797444311     
 -0.306837929421611      -0.246771156376688      -0.256865288353988     
 -0.266959420331287      -0.277053552308587      -0.287147684285887     
 -0.297241816263187      -0.307335948240486      -0.317430080217786     
 -0.327524212195086      -0.337618344172386      -0.347712476149685     
 -0.291045428228358      -0.301139560205657      -0.311233692182957     
 -0.321327824160256      -0.331421956137557      -0.341516088114856     
 -0.351610220092156      -0.361704352069456      -0.371798484046755     
 -0.381892616024055      -0.391986748001355      -0.338021193488354     
 -0.348115325465654      -0.358209457442953      -0.368303589420252     
 -0.378397721397552      -0.388491853374852      -0.398585985352152     
 -0.408680117329452      -0.418774249306752      -0.428868381284051     
 -0.438962513261351      -0.386957616276563      -0.397051748253863     
 -0.407145880231163      -0.417240012208461      -0.427334144185761     
 -0.437428276163062      -0.447522408140361      -0.457616540117661     
 -0.467710672094961      -0.477804804072261      -0.487898936049560     
 -0.437082939972414      -0.447177071949714      -0.457271203927014     
 -0.467365335904313      -0.477459467881613      -0.487553599858913     
 -0.497647731836213      -0.507741863813512      -0.517835995790812     
 -0.527930127768112      -0.538024259745412      -0.487606658277807     
 -0.497700790255107      -0.507794922232406      -0.517889054209706     
 -0.527983186187006      -0.538077318164305      -0.548171450141605     
 -0.558265582118904      -0.568359714096204      -0.578453846073504     
 -0.588547978050804      -0.537731981973658      -0.547826113950958     
 -0.557920245928257      -0.568014377905558      -0.578108509882857     
 -0.588202641860156      -0.598296773837456      -0.608390905814755     
 -0.618485037792056      -0.628579169769356      -0.638673301746656     
 -0.586668404761866      -0.596762536739167      -0.606856668716466     
 -0.616950800693767      -0.627044932671067      -0.637139064648365     
 -0.647233196625666      -0.657327328602966      -0.667421460580263     
 -0.677515592557565      -0.687609724534865      -0.633644170021864     
 -0.643738301999162      -0.653832433976462      -0.663926565953762     
 -0.674020697931062      -0.684114829908361      -0.694208961885660     
 -0.704303093862961      -0.714397225840261      -0.724491357817561     
 -0.734585489794861      -0.677918441873532      -0.688012573850833     
 -0.698106705828131      -0.708200837805433      -0.718294969782732     
 -0.728389101760032      -0.738483233737332      -0.748577365714631     
 -0.758671497691931      -0.768765629669230      -0.778859761646530     
 -0.718792988601609      -0.728887120578908      -0.738981252556208     
 -0.749075384533507      -0.759169516510807      -0.769263648488106     
 -0.779357780465406      -0.789451912442706      -0.799546044420007     
 -0.809640176397305      -0.819734308374605      -0.755623194186916     
 -0.765717326164216      -0.775811458141514      -0.785905590118815     
 -0.795999722096115      -0.806093854073414      -0.816187986050715     
 -0.826282118028014      -0.836376250005315      -0.846470381982613     
 -0.856564513959913      -0.787828224286076      -0.797922356263378     
 -0.808016488240677      -0.818110620217978      -0.828204752195278     
 -0.838298884172576      -0.848393016149878      -0.858487148127176     
 -0.868581280104476      -0.878675412081776      -0.888769544059074     
 -0.814900186336078      -0.824994318313379      -0.835088450290678     
 -0.845182582267978      -0.855276714245276      -0.865370846222576     
 -0.875464978199876      -0.885559110177176      -0.895653242154475     
 -0.905747374131774      -0.915841506109077      -0.836412139323381     
 -0.846506271300682      -0.856600403277982      -0.866694535255279     
 -0.876788667232580      -0.886882799209879      -0.896976931187178     
 -0.907071063164478      -0.917165195141779      -0.927259327119081     
 -0.937353459096378      -0.852024826898761      -0.862118958876059     
 -0.872213090853360      -0.882307222830659      -0.892401354807959     
 -0.902495486785259      -0.912589618762559      -0.922683750739859     
 -0.932777882717159      -0.942872014694457      -0.952966146671757     
 -0.861492027652584      -0.871586159629882      -0.881680291607181     
 -0.891774423584483      -0.901868555561784      -0.911962687539082     
 -0.922056819516381      -0.932150951493679      -0.942245083470982     
 -0.952339215448282      -0.962433347425580      -0.864664438173533     
 -0.874758570150832      -0.884852702128132      -0.894946834105431     
 -0.905040966082731      -0.915135098060029      -0.925229230037329     
 -0.935323362014630      -0.945417493991929      -0.955511625969230     
 -0.965605757946530     
 -0.261321806093349      -0.245384996941892      -0.229448187790434     
 -0.213511378638977      -0.197574569487519      -0.181637760336062     
 -0.165700951184604      -0.149764142033147      -0.133827332881689     
 -0.117890523730232      -0.101953714578774      -0.263331162557388     
 -0.247394353405930      -0.231457544254473      -0.215520735103015     
 -0.199583925951558      -0.183647116800100      -0.167710307648643     
 -0.151773498497185      -0.135836689345728      -0.119899880194270     
 -0.103963071042813      -0.269327543197733      -0.253390734046276     
 -0.237453924894818      -0.221517115743361      -0.205580306591903     
 -0.189643497440446      -0.173706688288988      -0.157769879137531     
 -0.141833069986073      -0.125896260834616      -0.109959451683158     
 -0.279216381509624      -0.263279572358166      -0.247342763206709     
 -0.231405954055251      -0.215469144903794      -0.199532335752336     
 -0.183595526600879      -0.167658717449422      -0.151721908297964     
 -0.135785099146507      -0.119848289995049      -0.292841724605576     
 -0.276904915454118      -0.260968106302660      -0.245031297151203     
 -0.229094487999746      -0.213157678848287      -0.197220869696830     
 -0.181284060545373      -0.165347251393915      -0.149410442242458     
 -0.133473633091000      -0.309988692685579      -0.294051883534122     
 -0.278115074382664      -0.262178265231206      -0.246241456079749     
 -0.230304646928292      -0.214367837776833      -0.198431028625377     
 -0.182494219473919      -0.166557410322461      -0.150620601171004     
 -0.330386867819911      -0.314450058668453      -0.298513249516996     
 -0.282576440365539      -0.266639631214081      -0.250702822062624     
 -0.234766012911166      -0.218829203759708      -0.202892394608251     
 -0.186955585456793      -0.171018776305336      -0.353714558601423     
 -0.337777749449966      -0.321840940298508      -0.305904131147051     
 -0.289967321995593      -0.274030512844136      -0.258093703692678     
 -0.242156894541221      -0.226220085389763      -0.210283276238306     
 -0.194346467086849      -0.379603873411205      -0.363667064259748     
 -0.347730255108290      -0.331793445956833      -0.315856636805375     
 -0.299919827653918      -0.283983018502460      -0.268046209351003     
 -0.252109400199545      -0.236172591048088      -0.220235781896631     
 -0.407646522289179      -0.391709713137722      -0.375772903986264     
 -0.359836094834806      -0.343899285683349      -0.327962476531892     
 -0.312025667380434      -0.296088858228977      -0.280152049077519     
 -0.264215239926062      -0.248278430774604      -0.437400255910673     
 -0.421463446759216      -0.405526637607758      -0.389589828456301     
 -0.373653019304843      -0.357716210153386      -0.341779401001928     
 -0.325842591850471      -0.309905782699013      -0.293968973547556     
 -0.278032164396098      -0.468395840122457      -0.452459030970998     
 -0.436522221819541      -0.420585412668084      -0.404648603516626     
 -0.388711794365169      -0.372774985213711      -0.356838176062254     
 -0.340901366910797      -0.324964557759339      -0.309027748607882     
 -0.500144456045646      -0.484207646894189      -0.468270837742731     
 -0.452334028591274      -0.436397219439815      -0.420460410288359     
 -0.404523601136901      -0.388586791985443      -0.372649982833986     
 -0.356713173682529      -0.340776364531071      -0.532145409041428     
 -0.516208599889971      -0.500271790738513      -0.484334981587056     
 -0.468398172435598      -0.452461363284141      -0.436524554132683     
 -0.420587744981226      -0.404650935829768      -0.388714126678310     
 -0.372777317526853      -0.563894024964618      -0.547957215813161     
 -0.532020406661703      -0.516083597510246      -0.500146788358789     
 -0.484209979207330      -0.468273170055872      -0.452336360904415     
 -0.436399551752958      -0.420462742601501      -0.404525933450043     
 -0.594889609176400      -0.578952800024943      -0.563015990873486     
 -0.547079181722028      -0.531142372570572      -0.515205563419114     
 -0.499268754267657      -0.483331945116198      -0.467395135964741     
 -0.451458326813284      -0.435521517661827      -0.624643342797895     
 -0.608706533646438      -0.592769724494980      -0.576832915343523     
 -0.560896106192065      -0.544959297040607      -0.529022487889150     
 -0.513085678737693      -0.497148869586235      -0.481212060434778     
 -0.465275251283321      -0.652685991675869      -0.636749182524411     
 -0.620812373372953      -0.604875564221497      -0.588938755070038     
 -0.573001945918581      -0.557065136767123      -0.541128327615667     
 -0.525191518464208      -0.509254709312750      -0.493317900161294     
 -0.678575306485651      -0.662638497334194      -0.646701688182735     
 -0.630764879031277      -0.614828069879821      -0.598891260728362     
 -0.582954451576905      -0.567017642425448      -0.551080833273991     
 -0.535144024122533      -0.519207214971076      -0.701902997267164     
 -0.685966188115705      -0.670029378964248      -0.654092569812791     
 -0.638155760661333      -0.622218951509875      -0.606282142358418     
 -0.590345333206961      -0.574408524055504      -0.558471714904047     
 -0.542534905752588      -0.722301172401494      -0.706364363250037     
 -0.690427554098580      -0.674490744947123      -0.658553935795665     
 -0.642617126644207      -0.626680317492751      -0.610743508341293     
 -0.594806699189836      -0.578869890038377      -0.562933080886920     
 -0.739448140481498      -0.723511331330043      -0.707574522178583     
 -0.691637713027126      -0.675700903875669      -0.659764094724210     
 -0.643827285572754      -0.627890476421296      -0.611953667269838     
 -0.596016858118381      -0.580080048966923      -0.753073483577452     
 -0.737136674425992      -0.721199865274536      -0.705263056123077     
 -0.689326246971620      -0.673389437820162      -0.657452628668703     
 -0.641515819517248      -0.625579010365790      -0.609642201214333     
 -0.593705392062875      -0.762962321889342      -0.747025512737885     
 -0.731088703586426      -0.715151894434968      -0.699215085283511     
 -0.683278276132052      -0.667341466980596      -0.651404657829140     
 -0.635467848677682      -0.619531039526223      -0.603594230374765     
 -0.768958702529686      -0.753021893378229      -0.737085084226771     
 -0.721148275075313      -0.705211465923856      -0.689274656772399     
 -0.673337847620940      -0.657401038469483      -0.641464229318026     
 -0.625527420166569      -0.609590611015111      -0.770968058993725     
 -0.755031249842268      -0.739094440690810      -0.723157631539353     
 -0.707220822387895      -0.691284013236437      -0.675347204084979     
 -0.659410394933521      -0.643473585782065      -0.627536776630607     
 -0.611599967479150     
  2.651247573289247E-002  2.386122815960322E-002  2.120998058631397E-002
  1.855873301302472E-002  1.590748543973548E-002  1.325623786644623E-002
  1.060499029315698E-002  7.953742719867740E-003  5.302495146578492E-003
  2.651247573289244E-003  0.000000000000000E+000  2.651247573289247E-002
  2.386122815960322E-002  2.120998058631397E-002  1.855873301302472E-002
  1.590748543973548E-002  1.325623786644623E-002  1.060499029315698E-002
  7.953742719867740E-003  5.302495146578492E-003  2.651247573289244E-003
  0.000000000000000E+000  2.651247573289247E-002  2.386122815960322E-002
  2.120998058631397E-002  1.855873301302472E-002  1.590748543973548E-002
  1.325623786644623E-002  1.060499029315698E-002  7.953742719867740E-003
  5.302495146578492E-003  2.651247573289244E-003  0.000000000000000E+000
  2.651247573289247E-002  2.386122815960322E-002  2.120998058631397E-002
  1.855873301302472E-002  1.590748543973548E-002  1.325623786644623E-002
  1.060499029315698E-002  7.953742719867740E-003  5.302495146578492E-003
  2.651247573289244E-003  0.000000000000000E+000  2.651247573289247E-002
  2.386122815960322E-002  2.120998058631397E-002  1.855873301302472E-002
  1.590748543973548E-002  1.325623786644623E-002  1.060499029315698E-002
  7.953742719867740E-003  5.302495146578492E-003  2.651247573289244E-003
  0.000000000000000E+000  2.651247573289247E-002  2.386122815960322E-002
  2.120998058631397E-002  1.855873301302472E-002  1.590748543973548E-002
  1.325623786644623E-002  1.060499029315698E-002  7.953742719867740E-003
  5.302495146578492E-003  2.651247573289244E-003  0.000000000000000E+000
  2.651247573289247E-002  2.386122815960322E-002  2.120998058631397E-002
  1.855873301302472E-002  1.590748543973548E-002  1.325623786644623E-002
  1.060499029315698E-002  7.953742719867740E-003  5.302495146578492E-003
  2.651247573289244E-003  0.000000000000000E+000  2.651247573289247E-002
  2.386122815960322E-002  2.120998058631397E-002  1.855873301302472E-002
  1.590748543973548E-002  1.325623786644623E-002  1.060499029315698E-002
  7.953742719867740E-003  5.302495146578492E-003  2.651247573289244E-003
  0.000000000000000E+000  2.651247573289247E-002  2.386122815960322E-002
  2.120998058631397E-002  1.855873301302472E-002  1.590748543973548E-002
  1.325623786644623E-002  1.060499029315698E-002  7.953742719867740E-003
  5.302495146578492E-003  2.651247573289244E-003  0.000000000000000E+000
  2.651247573289247E-002  2.386122815960322E-002  2.120998058631397E-002
  1.855873301302472E-002  1.590748543973548E-002  1.325623786644623E-002
  1.060499029315698E-002  7.953742719867740E-003  5.302495146578492E-003
  2.651247573289244E-003  0.000000000000000E+000  2.651247573289247E-002
  2.386122815960322E-002  2.120998058631397E-002  1.855873301302472E-002
  1.590748543973548E-002  1.325623786644623E-002  1.060499029315698E-002
  7.953742719867740E-003  5.302495146578492E-003  2.651247573289244E-003
  0.000000000000000E+000  2.651247573289247E-002  2.386122815960322E-002
  2.120998058631397E-002  1.855873301302472E-002  1.590748543973548E-002
  1.325623786644623E-002  1.060499029315698E-002  7.953742719867740E-003
  5.302495146578492E-003  2.651247573289244E-003  0.000000000000000E+000
  2.651247573289247E-002  2.386122815960322E-002  2.120998058631397E-002
  1.855873301302472E-002  1.590748543973548E-002  1.325623786644623E-002
  1.060499029315698E-002  7.953742719867740E-003  5.302495146578492E-003
  2.651247573289244E-003  0.000000000000000E+000  2.651247573289247E-002
  2.386122815960322E-002  2.120998058631397E-002  1.855873301302472E-002
  1.590748543973548E-002  1.325623786644623E-002  1.060499029315698E-002
  7.953742719867740E-003  5.302495146578492E-003  2.651247573289244E-003
  0.000000000000000E+000  2.651247573289247E-002  2.386122815960322E-002
  2.120998058631397E-002  1.855873301302472E-002  1.590748543973548E-002
  1.325623786644623E-002  1.060499029315698E-002  7.953742719867740E-003
  5.302495146578492E-003  2.651247573289244E-003  0.000000000000000E+000
  2.651247573289247E-002  2.386122815960322E-002  2.120998058631397E-002
  1.855873301302472E-002  1.590748543973548E-002  1.325623786644623E-002
  1.060499029315698E-002  7.953742719867740E-003  5.302495146578492E-003
  2.651247573289244E-003  0.000000000000000E+000  2.651247573289247E-002
  2.386122815960322E-002  2.120998058631397E-002  1.855873301302472E-002
  1.590748543973548E-002  1.325623786644623E-002  1.060499029315698E-002
  7.953742719867740E-003  5.302495146578492E-003  2.651247573289244E-003
  0.000000000000000E+000  2.651247573289247E-002  2.386122815960322E-002
  2.120998058631397E-002  1.855873301302472E-002  1.590748543973548E-002
  1.325623786644623E-002  1.060499029315698E-002  7.953742719867740E-003
  5.302495146578492E-003  2.651247573289244E-003  0.000000000000000E+000
  2.651247573289247E-002  2.386122815960322E-002  2.120998058631397E-002
  1.855873301302472E-002  1.590748543973548E-002  1.325623786644623E-002
  1.060499029315698E-002  7.953742719867740E-003  5.302495146578492E-003
  2.651247573289244E-003  0.000000000000000E+000  2.651247573289247E-002
  2.386122815960322E-002  2.120998058631397E-002  1.855873301302472E-002
  1.590748543973548E-002  1.325623786644623E-002  1.060499029315698E-002
  7.953742719867740E-003  5.302495146578492E-003  2.651247573289244E-003
  0.000000000000000E+000  2.651247573289247E-002  2.386122815960322E-002
  2.120998058631397E-002  1.855873301302472E-002  1.590748543973548E-002
  1.325623786644623E-002  1.060499029315698E-002  7.953742719867740E-003
  5.302495146578492E-003  2.651247573289244E-003  0.000000000000000E+000
  2.651247573289247E-002  2.386122815960322E-002  2.120998058631397E-002
  1.855873301302472E-002  1.590748543973548E-002  1.325623786644623E-002
  1.060499029315698E-002  7.953742719867740E-003  5.302495146578492E-003
  2.651247573289244E-003  0.000000000000000E+000  2.651247573289247E-002
  2.386122815960322E-002  2.120998058631397E-002  1.855873301302472E-002
  1.590748543973548E-002  1.325623786644623E-002  1.060499029315698E-002
  7.953742719867740E-003  5.302495146578492E-003  2.651247573289244E-003
  0.000000000000000E+000  2.651247573289247E-002  2.386122815960322E-002
  2.120998058631397E-002  1.855873301302472E-002  1.590748543973548E-002
  1.325623786644623E-002  1.060499029315698E-002  7.953742719867740E-003
  5.302495146578492E-003  2.651247573289244E-003  0.000000000000000E+000
  2.651247573289247E-002  2.386122815960322E-002  2.120998058631397E-002
  1.855873301302472E-002  1.590748543973548E-002  1.325623786644623E-002
  1.060499029315698E-002  7.953742719867740E-003  5.302495146578492E-003
  2.651247573289244E-003  0.000000000000000E+000  2.651247573289247E-002
  2.386122815960322E-002  2.120998058631397E-002  1.855873301302472E-002
  1.590748543973548E-002  1.325623786644623E-002  1.060499029315698E-002
  7.953742719867740E-003  5.302495146578492E-003  2.651247573289244E-003
  0.000000000000000E+000
  0.209623235746400       0.280473879860108       0.326236800975093     
  0.356433503187090       0.373622501587487       0.379197889817498     
  0.374326446619020       0.361472922140974       0.342105057999475     
  0.317296190057648       0.335209538821093       0.457855374773848     
  0.536668923603705       0.588557196954243       0.618700649217281     
  0.629235236299033       0.621713306921920       0.600409130666082     
  0.567939737728645       0.527155582740920       0.410158318097650     
  0.578370310956204       0.686564533612157       0.757699239220904     
  0.801513063676532       0.819190428877634       0.810902275077261     
  0.782677185730747       0.737627386473362       0.679847659848534     
  0.438899811034715       0.627193343945569       0.746148488887165     
  0.823507321279662       0.872667341763151       0.895287583761360     
  0.887251784046430       0.851432404689516       0.792869628918678     
  0.719832183041274       0.423320978726839       0.603663347253976     
  0.712708999000488       0.781887658463992       0.825137179160855     
  0.844036260033354       0.831689301631867       0.787232938168150     
  0.720458935221102       0.643023115085916       0.329856774238813     
  0.480504652985176       0.573306514164918       0.632313744289066     
  0.667410353492588       0.679896351117411       0.669577786749894     
  0.636913335943306       0.586535167981602       0.528231677571901     
  0.234707285117741       0.353281645531314       0.432872775330748     
  0.486700118573865       0.521677407016949       0.541431086520258     
  0.548275011735902       0.543011368119208       0.526322205507530     
  0.502648770431934       0.227209088925009       0.340621166635171     
  0.421378585889326       0.482208802419723       0.528421172885646     
  0.563180790286041       0.588510862020184       0.605609580504482     
  0.615088495271234       0.616991361374030       0.284985346720114     
  0.423173493955775       0.521980349774910       0.599041414463449     
  0.661025142100373       0.711412101020932       0.752248284426427     
  0.784637256964693       0.808830419023726       0.823692791214229     
  0.371155025768194       0.549042576028291       0.675748577491953     
  0.775028872596321       0.855817231816838       0.922518356137924     
  0.977529247347707        1.02207666861156        1.05635254462735     
   1.07874013543460       0.471204760217782       0.695612149064492     
  0.854780824824496       0.979168472347824        1.08019060973155     
   1.16344163567469        1.23196281307546        1.28731552754929     
   1.32978762664847        1.35751616640869       0.578518824884349     
  0.852700101384124        1.04632396734523        1.19701554805137     
   1.31888805788934        1.41886579911737        1.50072509448356     
   1.56643891491243        1.61647875040739        1.64884687577757     
  0.690429401260010        1.01620432865383        1.24527582181143     
   1.42279672181903        1.56575047241393        1.68249720551608     
   1.77761985733018        1.85356042442052        1.91101317884734     
   1.94787565237627       0.805892115041778        1.18452901044482     
   1.44965329616393        1.65424945432618        1.81829842384365     
   1.95167965336422        2.05985939585976        2.14580733964559     
   2.21048531653332        2.25172895848567       0.924693023099007     
   1.35726715275096        1.65881850237703        1.89046408165536     
   2.07532723777089        2.22490611969488        2.34563327051363     
   2.44107932448638        2.51254227598225        2.55788003883274     
   1.04841887061704        1.53642230932339        1.87477969891806     
   2.13320694491077        2.33821137580302        2.50307761760472     
   2.63533698432091        2.73928762826919        2.81668725831978     
   2.86555918720725        1.18526596582556        1.73254210786619     
   2.10871769557876        2.39350713291645        2.61750239716484     
   2.79618049003038        2.93841563930855        3.04940283331685     
   3.13152627612501        3.18317668443383        1.36081109043998     
   1.97670017334403        2.39264443730927        2.70321662695477     
   2.94497846263520        3.13626277530850        3.28751140132603     
   3.40492577553599        3.49159523115436        3.54632400808713     
   1.57843582198606        2.27225167884612        2.72921031117756     
   3.06387203193716        3.32067064315761        3.52158991314866     
   3.67907791816207        3.80059578634678        3.89007279604799     
   3.94687086065855        1.72543282399614        2.46717605723297     
   2.94501903917577        3.28748983408815        3.54498573890519     
   3.74290029757468        3.89568595482704        4.01194371380490     
   4.09633536471321        4.14912055143360        1.75274098767709     
   2.48660687104857        2.94763402063369        3.27089626404141     
   3.50963214188054        3.69050284733940        3.82839821446898     
   3.93192292866983        4.00564547095317        4.05039349674962     
   1.65076950251124        2.31243919624941        2.71404256465793     
   2.98905902809838        3.18901122597742        3.33886794759626     
   3.45204145926245        3.53591136324081        3.59408586110665     
   3.62718553023756        1.43216866249004        1.96151549640222     
   2.27058801625116        2.47911689321722        2.62985356164680     
   2.74252905614051        2.82747757067342        2.89032500455710     
   2.93393277600817        2.95910750680640        1.09684008620790     
   1.45476289847997        1.66091749759690        1.80034055610043     
   1.90148838026075        1.97734208932149        2.03475211566042     
   2.07760175013499        2.10842114327904        2.13086424079453     
  0.667130506364260       0.867582976970151       0.984135720037809     
   1.06341038235833        1.12112659439347        1.16451277301645     
   1.19740382926551        1.22195384091255        1.23934595340367     
   1.24991219025102     
  0.000000000000000E+000  0.000000000000000E+000  0.000000000000000E+000
  0.000000000000000E+000  0.000000000000000E+000  0.000000000000000E+000
  0.000000000000000E+000  0.000000000000000E+000  0.000000000000000E+000
  0.000000000000000E+000  0.000000000000000E+000  0.000000000000000E+000
  0.000000000000000E+000  0.000000000000000E+000  0.000000000000000E+000
  0.000000000000000E+000  0.000000000000000E+000  0.000000000000000E+000
  0.000000000000000E+000  0.000000000000000E+000  0.000000000000000E+000
  0.000000000000000E+000  0.000000000000000E+000  0.000000000000000E+000
  0.000000000000000E+000  0.000000000000000E+000  0.000000000000000E+000
  0.000000000000000E+000  0.000000000000000E+000  0.000000000000000E+000
  0.000000000000000E+000  0.000000000000000E+000  0.000000000000000E+000
  0.000000000000000E+000  0.000000000000000E+000  0.000000000000000E+000
  0.000000000000000E+000  0.000000000000000E+000  0.000000000000000E+000
  0.000000000000000E+000  0.000000000000000E+000  0.000000000000000E+000
  0.000000000000000E+000  0.000000000000000E+000  0.000000000000000E+000
  0.000000000000000E+000  0.000000000000000E+000  0.000000000000000E+000
  0.000000000000000E+000  0.000000000000000E+000  0.000000000000000E+000
  0.000000000000000E+000  0.000000000000000E+000  0.000000000000000E+000
  0.000000000000000E+000  0.000000000000000E+000  0.000000000000000E+000
  0.000000000000000E+000  0.000000000000000E+000  0.000000000000000E+000
  0.000000000000000E+000  0.000000000000000E+000  0.000000000000000E+000
  0.000000000000000E+000  0.000000000000000E+000  0.000000000000000E+000
  0.000000000000000E+000  0.000000000000000E+000  0.000000000000000E+000
  0.000000000000000E+000  0.000000000000000E+000  0.000000000000000E+000
  0.000000000000000E+000  0.000000000000000E+000  0.000000000000000E+000
  0.000000000000000E+000  0.000000000000000E+000  0.000000000000000E+000
  0.000000000000000E+000  0.000000000000000E+000  0.000000000000000E+000
  0.000000000000000E+000  0.000000000000000E+000  0.000000000000000E+000
  0.000000000000000E+000  0.000000000000000E+000  0.000000000000000E+000
  0.000000000000000E+000  0.000000000000000E+000  0.000000000000000E+000
  0.000000000000000E+000  0.000000000000000E+000  0.000000000000000E+000
  0.000000000000000E+000  0.000000000000000E+000  0.000000000000000E+000
  0.000000000000000E+000  0.000000000000000E+000  0.000000000000000E+000
  0.000000000000000E+000  0.000000000000000E+000  0.000000000000000E+000
  0.000000000000000E+000  0.000000000000000E+000  0.000000000000000E+000
  0.000000000000000E+000  0.000000000000000E+000  0.000000000000000E+000
  0.000000000000000E+000  0.000000000000000E+000  0.000000000000000E+000
  0.000000000000000E+000  0.000000000000000E+000  0.000000000000000E+000
  0.000000000000000E+000  0.000000000000000E+000  0.000000000000000E+000