 Title = "Wing and Wake"
 VARIABLES = "X" "Y" "Z" "GAM" "skew"
 Zone I=   11 J=   26 K=1  T="Blade"
 DATAPACKING=BLOCK
 VARLOCATION=([4]=CELLCENTERED,[5]=CELLCENTERED)
 -0.243869956528849      -0.237370014989559      -0.230870073450268     
 -0.224370131910979      -0.217870190371689      -0.211370248832399     
 -0.204870307293109      -0.198370365753819      -0.191870424214529     
 -0.185370482675239      -0.178870541135949      -0.247395229536728     
 -0.240895287997438      -0.234395346458148      -0.227895404918858     
 -0.221395463379568      -0.214895521840278      -0.208395580300988     
 -0.201895638761698      -0.195395697222408      -0.188895755683119     
 -0.182395814143828      -0.257915452899134      -0.251415511359844     
 -0.244915569820554      -0.238415628281264      -0.231915686741974     
 -0.225415745202684      -0.218915803663395      -0.212415862124105     
 -0.205915920584815      -0.199415979045525      -0.192916037506235     
 -0.275264716409167      -0.268764774869876      -0.262264833330587     
 -0.255764891791297      -0.249264950252007      -0.242765008712717     
 -0.236265067173427      -0.229765125634137      -0.223265184094847     
 -0.216765242555557      -0.210265301016267      -0.299169411817324     
 -0.292669470278034      -0.286169528738744      -0.279669587199454     
 -0.273169645660164      -0.266669704120874      -0.260169762581584     
 -0.253669821042295      -0.247169879503004      -0.240669937963715     
 -0.234169996424425      -0.329252547797046      -0.322752606257756     
 -0.316252664718467      -0.309752723179177      -0.303252781639887     
 -0.296752840100597      -0.290252898561307      -0.283752957022017     
 -0.277253015482727      -0.270753073943437      -0.264253132404147     
 -0.365039695323140      -0.358539753783850      -0.352039812244560     
 -0.345539870705270      -0.339039929165980      -0.332539987626690     
 -0.326040046087400      -0.319540104548111      -0.313040163008821     
 -0.306540221469531      -0.300040279930240      -0.405966469700912     
 -0.399466528161622      -0.392966586622332      -0.386466645083042     
 -0.379966703543752      -0.373466762004462      -0.366966820465172     
 -0.360466878925883      -0.353966937386592      -0.347466995847303     
 -0.340967054308013      -0.451387431249955      -0.444887489710665     
 -0.438387548171376      -0.431887606632086      -0.425387665092795     
 -0.418887723553505      -0.412387782014215      -0.405887840474926     
 -0.399387898935636      -0.392887957396346      -0.386388015857056     
 -0.500586264273474      -0.494086322734184      -0.487586381194894     
 -0.481086439655604      -0.474586498116314      -0.468086556577024     
 -0.461586615037734      -0.455086673498445      -0.448586731959154     
 -0.442086790419864      -0.435586848880575      -0.552787073784729     
 -0.546287132245439      -0.539787190706149      -0.533287249166859     
 -0.526787307627569      -0.520287366088279      -0.513787424548990     
 -0.507287483009700      -0.500787541470410      -0.494287599931120     
 -0.487787658391830      -0.607166621834476      -0.600666680295185     
 -0.594166738755896      -0.587666797216606      -0.581166855677316     
 -0.574666914138027      -0.568166972598736      -0.561667031059447     
 -0.555167089520156      -0.548667147980867      -0.542167206441577     
 -0.662867310465203      -0.656367368925912      -0.649867427386623     
 -0.643367485847333      -0.636867544308043      -0.630367602768753     
 -0.623867661229463      -0.617367719690173      -0.610867778150883     
 -0.604367836611594      -0.597867895072304      -0.719010706543224     
 -0.712510765003935      -0.706010823464644      -0.699510881925354     
 -0.693010940386065      -0.686510998846775      -0.680011057307485     
 -0.673511115768194      -0.667011174228905      -0.660511232689615     
 -0.654011291150325      -0.774711395173951      -0.768211453634662     
 -0.761711512095371      -0.755211570556081      -0.748711629016791     
 -0.742211687477501      -0.735711745938211      -0.729211804398921     
 -0.722711862859632      -0.716211921320343      -0.709711979781053     
 -0.829090943223697      -0.822591001684407      -0.816091060145118     
 -0.809591118605827      -0.803091177066539      -0.796591235527248     
 -0.790091293987958      -0.783591352448669      -0.777091410909377     
 -0.770591469370089      -0.764091527830799      -0.881291752734953     
 -0.874791811195663      -0.868291869656373      -0.861791928117083     
 -0.855291986577793      -0.848792045038503      -0.842292103499213     
 -0.835792161959924      -0.829292220420633      -0.822792278881344     
 -0.816292337342054      -0.930490585758471      -0.923990644219181     
 -0.917490702679891      -0.910990761140602      -0.904490819601312     
 -0.897990878062022      -0.891490936522732      -0.884990994983442     
 -0.878491053444152      -0.871991111904862      -0.865491170365572     
 -0.975911547307515      -0.969411605768225      -0.962911664228935     
 -0.956411722689644      -0.949911781150355      -0.943411839611065     
 -0.936911898071775      -0.930411956532485      -0.923912014993196     
 -0.917412073453906      -0.910912131914616       -1.01683832168529     
  -1.01033838014600       -1.00383843860671      -0.997338497067417     
 -0.990838555528127      -0.984338613988837      -0.977838672449548     
 -0.971338730910257      -0.964838789370969      -0.958338847831678     
 -0.951838906292387       -1.05262546921138       -1.04612552767209     
  -1.03962558613280       -1.03312564459351       -1.02662570305422     
  -1.02012576151493       -1.01362581997564       -1.00712587843635     
  -1.00062593689706      -0.994125995357771      -0.987626053818481     
  -1.08270860519110       -1.07620866365181       -1.06970872211252     
  -1.06320878057323       -1.05670883903394       -1.05020889749465     
  -1.04370895595536       -1.03720901441607       -1.03070907287678     
  -1.02420913133749       -1.01770918979820       -1.10661330059926     
  -1.10011335905997       -1.09361341752068       -1.08711347598139     
  -1.08061353444210       -1.07411359290281       -1.06761365136352     
  -1.06111370982423       -1.05461376828494       -1.04811382674565     
  -1.04161388520636       -1.12396256410929       -1.11746262257000     
  -1.11096268103071       -1.10446273949142       -1.09796279795213     
  -1.09146285641284       -1.08496291487355       -1.07846297333426     
  -1.07196303179497       -1.06546309025568       -1.05896314871639     
  -1.13448278747170       -1.12798284593241       -1.12148290439312     
  -1.11498296285383       -1.10848302131454       -1.10198307977525     
  -1.09548313823596       -1.08898319669667       -1.08248325515738     
  -1.07598331361809       -1.06948337207880       -1.13800806047958     
  -1.13150811894029       -1.12500817740100       -1.11850823586171     
  -1.11200829432242       -1.10550835278313       -1.09900841124384     
  -1.09250846970455       -1.08600852816526       -1.07950858662597     
  -1.07300864508668     
 -0.111443036950453      -9.373360030523652E-002 -7.602416366001991E-002
 -5.831472701480322E-002 -4.060529036958666E-002 -2.289585372437020E-002
 -5.186417079153546E-003  1.252301956606318E-002  3.023245621127976E-002
  4.794189285649612E-002  6.565132950171289E-002 -0.110149146640992     
 -9.243970999577603E-002 -7.473027335055930E-002 -5.702083670534272E-002
 -3.931140006012609E-002 -2.160196341490963E-002 -3.892526769692971E-003
  1.381690987552365E-002  3.152634652074020E-002  4.923578316595673E-002
  6.694521981117331E-002 -0.106287881135724      -8.857844449050739E-002
 -7.086900784529071E-002 -5.315957120007418E-002 -3.545013455485758E-002
 -1.774069790964091E-002 -3.126126442448177E-005  1.767817538079214E-002
  3.538761202600871E-002  5.309704867122529E-002  7.080648531644190E-002
 -9.992013489827338E-002 -8.221069825305662E-002 -6.450126160783998E-002
 -4.679182496262353E-002 -2.908238831740710E-002 -1.137295167219044E-002
  6.336484973026081E-003  2.404592161824258E-002  4.175535826345934E-002
  5.946479490867577E-002  7.717423155389228E-002 -9.114633109071277E-002
 -7.343689444549607E-002 -5.572745780027968E-002 -3.801802115506295E-002
 -2.030858450984649E-002 -2.599147864629763E-003  1.511028878058672E-002
  3.281972542580326E-002  5.052916207101973E-002  6.823859871623648E-002
  8.594803536145300E-002 -8.010483784030398E-002 -6.239540119508721E-002
 -4.468596454987080E-002 -2.697652790465405E-002 -9.267091259437494E-003
  8.442345385779171E-003  2.615178203099584E-002  4.386121867621228E-002
  6.157065532142881E-002  7.928009196664534E-002  9.698952861186219E-002
 -6.696978609147325E-002 -4.926034944625675E-002 -3.155091280104053E-002
 -1.384147615582400E-002  3.867960489392942E-003  2.157739713460922E-002
  3.928683377982586E-002  5.699627042504266E-002  7.470570707025939E-002
  9.241514371547561E-002  0.110124580360692      -5.194832345680089E-002
 -3.423888681158425E-002 -1.652945016636728E-002  1.179986478848957E-003
  1.888942312406552E-002  3.659885976928240E-002  5.430829641449915E-002
  7.201773305971550E-002  8.972716970493186E-002  0.107436606350149     
  0.125146042995365      -3.527734737542101E-002 -1.756791073020452E-002
  1.415259150119950E-004  1.785096256022868E-002  3.556039920544576E-002
  5.326983585066185E-002  7.097927249587857E-002  8.868870914109522E-002
  0.106398145786311       0.124107582431529       0.141817019076745     
 -1.721976909889599E-002  4.896675463205630E-004  1.819910419153719E-002
  3.590854083675335E-002  5.361797748197028E-002  7.132741412718693E-002
  8.903685077240317E-002  0.106746287417620       0.124455724062837     
  0.142165160708053       0.159874597353270       1.939632576278953E-003
  1.964906922149592E-002  3.735850586671173E-002  5.506794251192844E-002
  7.277737915714529E-002  9.048681580236180E-002  0.108196252447579     
  0.125905689092795       0.143615125738012       0.161324562383228     
  0.179033999028445       2.189870244041451E-002  3.960813908563156E-002
  5.731757573084793E-002  7.502701237606366E-002  9.273644902128052E-002
  0.110445885666498       0.128155322311714       0.145864758956931     
  0.163574195602147       0.181283632247364       0.198993068892580     
  4.234267403878320E-002  6.005211068399915E-002  7.776154732921640E-002
  9.547098397443204E-002  0.113180420619649       0.130889857264866     
  0.148599293910083       0.166308730555299       0.184018167200515     
  0.201727603845732       0.219437040490949       6.294913372664167E-002
  8.065857037185831E-002  9.836800701707457E-002  0.116077443662291     
  0.133786880307508       0.151496316952724       0.169205753597941     
  0.186915190243157       0.204624626888375       0.222334063533591     
  0.240043500178807       8.339310532500954E-002  0.101102541970227     
  0.118811978615443       0.136521415260660       0.154230851905875     
  0.171940288551092       0.189649725196310       0.207359161841525     
  0.225068598486743       0.242778035131959       0.260487471777176     
  0.103352175189145       0.121061611834362       0.138771048479578     
  0.156480485124795       0.174189921770011       0.191899358415228     
  0.209608795060445       0.227318231705661       0.245027668350877     
  0.262737104996095       0.280446541641311       0.122511576864321     
  0.140221013509537       0.157930450154753       0.175639886799970     
  0.193349323445187       0.211058760090403       0.228768196735620     
  0.246477633380836       0.264187070026053       0.281896506671270     
  0.299605943316486       0.140569155140845       0.158278591786062     
  0.175988028431278       0.193697465076496       0.211406901721712     
  0.229116338366928       0.246825775012145       0.264535211657361     
  0.282244648302579       0.299954084947795       0.317663521593011     
  0.157240131222225       0.174949567867441       0.192659004512658     
  0.210368441157875       0.228077877803091       0.245787314448308     
  0.263496751093525       0.281206187738741       0.298915624383958     
  0.316625061029174       0.334334497674390       0.172261593856898     
  0.189971030502114       0.207680467147330       0.225389903792548     
  0.243099340437764       0.260808777082981       0.278518213728197     
  0.296227650373414       0.313937087018631       0.331646523663846     
  0.349355960309063       0.185396645605727       0.203106082250945     
  0.220815518896160       0.238524955541378       0.256234392186595     
  0.273943828831811       0.291653265477028       0.309362702122245     
  0.327072138767461       0.344781575412678       0.362491012057894     
  0.196438138856137       0.214147575501354       0.231857012146571     
  0.249566448791787       0.267275885437003       0.284985322082220     
  0.302694758727437       0.320404195372654       0.338113632017870     
  0.355823068663086       0.373532505308304       0.205211942663697     
  0.222921379308914       0.240630815954132       0.258340252599347     
  0.276049689244564       0.293759125889780       0.311468562534997     
  0.329177999180213       0.346887435825431       0.364596872470648     
  0.382306309115864       0.211579688901148       0.229289125546364     
  0.246998562191582       0.264707998836798       0.282417435482014     
  0.300126872127231       0.317836308772448       0.335545745417665     
  0.353255182062881       0.370964618708097       0.388674055353314     
  0.215440954406417       0.233150391051633       0.250859827696849     
  0.268569264342067       0.286278700987284       0.303988137632500     
  0.321697574277716       0.339407010922932       0.357116447568149     
  0.374825884213366       0.392535320858582       0.216734844715878     
  0.234444281361094       0.252153718006312       0.269863154651526     
  0.287572591296744       0.305282027941960       0.322991464587177     
  0.340700901232394       0.358410337877609       0.376119774522827     
  0.393829211168044     
  2.651247573289247E-002  2.386122815960322E-002  2.120998058631397E-002
  1.855873301302472E-002  1.590748543973548E-002  1.325623786644623E-002
  1.060499029315698E-002  7.953742719867740E-003  5.302495146578492E-003
  2.651247573289244E-003  0.000000000000000E+000  2.651247573289247E-002
  2.386122815960322E-002  2.120998058631397E-002  1.855873301302472E-002
  1.590748543973548E-002  1.325623786644623E-002  1.060499029315698E-002
  7.953742719867740E-003  5.302495146578492E-003  2.651247573289244E-003
  0.000000000000000E+000  2.651247573289247E-002  2.386122815960322E-002
  2.120998058631397E-002  1.855873301302472E-002  1.590748543973548E-002
  1.325623786644623E-002  1.060499029315698E-002  7.953742719867740E-003
  5.302495146578492E-003  2.651247573289244E-003  0.000000000000000E+000
  2.651247573289247E-002  2.386122815960322E-002  2.120998058631397E-002
  1.855873301302472E-002  1.590748543973548E-002  1.325623786644623E-002
  1.060499029315698E-002  7.953742719867740E-003  5.302495146578492E-003
  2.651247573289244E-003  0.000000000000000E+000  2.651247573289247E-002
  2.386122815960322E-002  2.120998058631397E-002  1.855873301302472E-002
  1.590748543973548E-002  1.325623786644623E-002  1.060499029315698E-002
  7.953742719867740E-003  5.302495146578492E-003  2.651247573289244E-003
  0.000000000000000E+000  2.651247573289247E-002  2.386122815960322E-002
  2.120998058631397E-002  1.855873301302472E-002  1.590748543973548E-002
  1.325623786644623E-002  1.060499029315698E-002  7.953742719867740E-003
  5.302495146578492E-003  2.651247573289244E-003  0.000000000000000E+000
  2.651247573289247E-002  2.386122815960322E-002  2.120998058631397E-002
  1.855873301302472E-002  1.590748543973548E-002  1.325623786644623E-002
  1.060499029315698E-002  7.953742719867740E-003  5.302495146578492E-003
  2.651247573289244E-003  0.000000000000000E+000  2.651247573289247E-002
  2.386122815960322E-002  2.120998058631397E-002  1.855873301302472E-002
  1.590748543973548E-002  1.325623786644623E-002  1.060499029315698E-002
  7.953742719867740E-003  5.302495146578492E-003  2.651247573289244E-003
  0.000000000000000E+000  2.651247573289247E-002  2.386122815960322E-002
  2.120998058631397E-002  1.855873301302472E-002  1.590748543973548E-002
  1.325623786644623E-002  1.060499029315698E-002  7.953742719867740E-003
  5.302495146578492E-003  2.651247573289244E-003  0.000000000000000E+000
  2.651247573289247E-002  2.386122815960322E-002  2.120998058631397E-002
  1.855873301302472E-002  1.590748543973548E-002  1.325623786644623E-002
  1.060499029315698E-002  7.953742719867740E-003  5.302495146578492E-003
  2.651247573289244E-003  0.000000000000000E+000  2.651247573289247E-002
  2.386122815960322E-002  2.120998058631397E-002  1.855873301302472E-002
  1.590748543973548E-002  1.325623786644623E-002  1.060499029315698E-002
  7.953742719867740E-003  5.302495146578492E-003  2.651247573289244E-003
  0.000000000000000E+000  2.651247573289247E-002  2.386122815960322E-002
  2.120998058631397E-002  1.855873301302472E-002  1.590748543973548E-002
  1.325623786644623E-002  1.060499029315698E-002  7.953742719867740E-003
  5.302495146578492E-003  2.651247573289244E-003  0.000000000000000E+000
  2.651247573289247E-002  2.386122815960322E-002  2.120998058631397E-002
  1.855873301302472E-002  1.590748543973548E-002  1.325623786644623E-002
  1.060499029315698E-002  7.953742719867740E-003  5.302495146578492E-003
  2.651247573289244E-003  0.000000000000000E+000  2.651247573289247E-002
  2.386122815960322E-002  2.120998058631397E-002  1.855873301302472E-002
  1.590748543973548E-002  1.325623786644623E-002  1.060499029315698E-002
  7.953742719867740E-003  5.302495146578492E-003  2.651247573289244E-003
  0.000000000000000E+000  2.651247573289247E-002  2.386122815960322E-002
  2.120998058631397E-002  1.855873301302472E-002  1.590748543973548E-002
  1.325623786644623E-002  1.060499029315698E-002  7.953742719867740E-003
  5.302495146578492E-003  2.651247573289244E-003  0.000000000000000E+000
  2.651247573289247E-002  2.386122815960322E-002  2.120998058631397E-002
  1.855873301302472E-002  1.590748543973548E-002  1.325623786644623E-002
  1.060499029315698E-002  7.953742719867740E-003  5.302495146578492E-003
  2.651247573289244E-003  0.000000000000000E+000  2.651247573289247E-002
  2.386122815960322E-002  2.120998058631397E-002  1.855873301302472E-002
  1.590748543973548E-002  1.325623786644623E-002  1.060499029315698E-002
  7.953742719867740E-003  5.302495146578492E-003  2.651247573289244E-003
  0.000000000000000E+000  2.651247573289247E-002  2.386122815960322E-002
  2.120998058631397E-002  1.855873301302472E-002  1.590748543973548E-002
  1.325623786644623E-002  1.060499029315698E-002  7.953742719867740E-003
  5.302495146578492E-003  2.651247573289244E-003  0.000000000000000E+000
  2.651247573289247E-002  2.386122815960322E-002  2.120998058631397E-002
  1.855873301302472E-002  1.590748543973548E-002  1.325623786644623E-002
  1.060499029315698E-002  7.953742719867740E-003  5.302495146578492E-003
  2.651247573289244E-003  0.000000000000000E+000  2.651247573289247E-002
  2.386122815960322E-002  2.120998058631397E-002  1.855873301302472E-002
  1.590748543973548E-002  1.325623786644623E-002  1.060499029315698E-002
  7.953742719867740E-003  5.302495146578492E-003  2.651247573289244E-003
  0.000000000000000E+000  2.651247573289247E-002  2.386122815960322E-002
  2.120998058631397E-002  1.855873301302472E-002  1.590748543973548E-002
  1.325623786644623E-002  1.060499029315698E-002  7.953742719867740E-003
  5.302495146578492E-003  2.651247573289244E-003  0.000000000000000E+000
  2.651247573289247E-002  2.386122815960322E-002  2.120998058631397E-002
  1.855873301302472E-002  1.590748543973548E-002  1.325623786644623E-002
  1.060499029315698E-002  7.953742719867740E-003  5.302495146578492E-003
  2.651247573289244E-003  0.000000000000000E+000  2.651247573289247E-002
  2.386122815960322E-002  2.120998058631397E-002  1.855873301302472E-002
  1.590748543973548E-002  1.325623786644623E-002  1.060499029315698E-002
  7.953742719867740E-003  5.302495146578492E-003  2.651247573289244E-003
  0.000000000000000E+000  2.651247573289247E-002  2.386122815960322E-002
  2.120998058631397E-002  1.855873301302472E-002  1.590748543973548E-002
  1.325623786644623E-002  1.060499029315698E-002  7.953742719867740E-003
  5.302495146578492E-003  2.651247573289244E-003  0.000000000000000E+000
  2.651247573289247E-002  2.386122815960322E-002  2.120998058631397E-002
  1.855873301302472E-002  1.590748543973548E-002  1.325623786644623E-002
  1.060499029315698E-002  7.953742719867740E-003  5.302495146578492E-003
  2.651247573289244E-003  0.000000000000000E+000  2.651247573289247E-002
  2.386122815960322E-002  2.120998058631397E-002  1.855873301302472E-002
  1.590748543973548E-002  1.325623786644623E-002  1.060499029315698E-002
  7.953742719867740E-003  5.302495146578492E-003  2.651247573289244E-003
  0.000000000000000E+000
  4.823528812393178E-002  7.391174575757835E-002  9.542465641255113E-002
  0.114789937325516       0.132703846374482       0.149427845903166     
  0.165144284051385       0.180152156579007       0.194495973835550     
  0.207286574375834       8.230164156543035E-002  0.127062143543049     
  0.164117542772369       0.197277215492781       0.227793919758627     
  0.256128620588463       0.282554166811101       0.307590965195713     
  0.331484859063416       0.353401225172044       0.117371589365362     
  0.182679274368702       0.235904769516606       0.282961755094832     
  0.325796097528859       0.365181412935044       0.401467177079636     
  0.435212259662194       0.466596119911491       0.493854447677934     
  0.153121956865746       0.237984424474807       0.306255396777459     
  0.365787771289589       0.419214614318878       0.467685742482445     
  0.511710464025658       0.551627674112308       0.587393770660411     
  0.616783621738111       0.190823935538091       0.294294521204745     
  0.376070805330101       0.446238014611236       0.508206925271627     
  0.563552623669268       0.613054474862450       0.656918335579387     
  0.694645073574380       0.723862401784055       0.231845551665503     
  0.354103975594638       0.448633325586074       0.528236866345122     
  0.597313037002299       0.657860035914512       0.710859665586208     
  0.756578974756841       0.794467873487236       0.822118460011965     
  0.277934236374184       0.420649262282159       0.528603063951245     
  0.617774133062209       0.693765535604800       0.759124352796879     
  0.815115080076156       0.862130440851904       0.899656052001896     
  0.925483601492229       0.331013263690928       0.497264511405502     
  0.620719960562442       0.721054772713468       0.805291509237830     
  0.876650431411728       0.936705533427562       0.986045235008284     
   1.02429389135453        1.04926052266991       0.393030823170002     
  0.587013923698148       0.728962067592961       0.842873243010349     
  0.937419820733565        1.01664384769134        1.08255449399054     
   1.13597803727534        1.17664414533624        1.20234201748273     
  0.465224490860324       0.691704585915843       0.855499624487016     
  0.985638309146452        1.09273133740375        1.18178922444298     
   1.25537201385277        1.31462842215960        1.35947041305620     
   1.38770087207071       0.547802221749548       0.811663351668032     
   1.00073202311191        1.14975264985151        1.27154312847789     
   1.37223637497064        1.45505195398849        1.52154341473355     
   1.57183170315253        1.60365882439667       0.640365067521042     
  0.946237403093294        1.16376468849207        1.33407340931222     
   1.47244307856815        1.58626277695074        1.67949382958098     
   1.75413721213613        1.81053353396341        1.84633735855968     
  0.742118740034046        1.09413287993606        1.34286129897795     
   1.53643885494678        1.69286297232946        1.82091674046080     
   1.92536926519681        2.00870970113458        2.07154049029073     
   2.11145534809904       0.852093063881408        1.25377317103506     
   1.53591011152701        1.75424718231208        1.92973624135495     
   2.07268619470743        2.18876461663671        2.28101482355363     
   2.35034659832656        2.39434393739512       0.969458675286222     
   1.42374073092970        1.74092214557549        1.98492396441217     
   2.17989881334428        2.33783364416112        2.46541150914180     
   2.56631799587047        2.64184453143779        2.68965658936558     
   1.09508387649601        1.60475248455064        1.95809388499359     
   2.22795471220653        2.44204399010955        2.61424716701167     
   2.75242622571201        2.86104776591572        2.94191352986824     
   2.99292114051387        1.23538542238203        1.80433942116483     
   2.19460493622192        2.48959459177323        2.72134140632743     
   2.90605484525138        3.05302056703870        3.16765759879802     
   3.25243501833078        3.30567274648711        1.40186538556166     
   2.03534021555778        2.46239209051010        2.78041101080456     
   3.02715596452283        3.22176644212060        3.37520600973771     
   3.49395760340914        3.58123201286132        3.63588117624745     
   1.57017912544838        2.26408107762240        2.72235396003494     
   3.05749832668120        3.31351269920496        3.51277057037513     
   3.66809685204019        3.78712597186379        3.87385531377969     
   3.92782661881707        1.66959727634329        2.39224037284322     
   2.85977612544204        3.19512434280265        3.44680832612558     
   3.63964742204960        3.78787227680334        3.89993360891558     
   3.98038779563976        4.02958779728151        1.66761956447506     
   2.37000569545431        2.81292159143549        3.12369645734948     
   3.35277993462635        3.52572189983189        3.65687636954706     
   3.75453529768644        3.82309517228532        3.86346686998222     
   1.56133137186278        2.18924569404099        2.57122558440691     
   2.83292417546303        3.02290203352460        3.16480230276136     
   3.27138769413917        3.34970611770780        3.40322896980087     
   3.43267559576365        1.35369000414989        1.85465243264121     
   2.14745691804414        2.34501096725933        2.48760867148471     
   2.59387803998086        2.67360410393340        2.73213306680411     
   2.77221376729987        2.79473774368716        1.03733495459723     
   1.37578345443586        1.57078233986729        1.70261279403533     
   1.79810464305418        1.86950466290133        1.92328923210649     
   1.96314129636837        1.99147976403374        2.01184630801129     
  0.631161974215138       0.820659040223534       0.930851527888919     
   1.00576275183901        1.06021437899069        1.10102472734327     
   1.13181812552448        1.15463687339187        1.17061478983677     
   1.18011697683382     
  0.000000000000000E+000  0.000000000000000E+000  0.000000000000000E+000
  0.000000000000000E+000  0.000000000000000E+000  0.000000000000000E+000
  0.000000000000000E+000  0.000000000000000E+000  0.000000000000000E+000
  0.000000000000000E+000  0.000000000000000E+000  0.000000000000000E+000
  0.000000000000000E+000  0.000000000000000E+000  0.000000000000000E+000
  0.000000000000000E+000  0.000000000000000E+000  0.000000000000000E+000
  0.000000000000000E+000  0.000000000000000E+000  0.000000000000000E+000
  0.000000000000000E+000  0.000000000000000E+000  0.000000000000000E+000
  0.000000000000000E+000  0.000000000000000E+000  0.000000000000000E+000
  0.000000000000000E+000  0.000000000000000E+000  0.000000000000000E+000
  0.000000000000000E+000  0.000000000000000E+000  0.000000000000000E+000
  0.000000000000000E+000  0.000000000000000E+000  0.000000000000000E+000
  0.000000000000000E+000  0.000000000000000E+000  0.000000000000000E+000
  0.000000000000000E+000  0.000000000000000E+000  0.000000000000000E+000
  0.000000000000000E+000  0.000000000000000E+000  0.000000000000000E+000
  0.000000000000000E+000  0.000000000000000E+000  0.000000000000000E+000
  0.000000000000000E+000  0.000000000000000E+000  0.000000000000000E+000
  0.000000000000000E+000  0.000000000000000E+000  0.000000000000000E+000
  0.000000000000000E+000  0.000000000000000E+000  0.000000000000000E+000
  0.000000000000000E+000  0.000000000000000E+000  0.000000000000000E+000
  0.000000000000000E+000  0.000000000000000E+000  0.000000000000000E+000
  0.000000000000000E+000  0.000000000000000E+000  0.000000000000000E+000
  0.000000000000000E+000  0.000000000000000E+000  0.000000000000000E+000
  0.000000000000000E+000  0.000000000000000E+000  0.000000000000000E+000
  0.000000000000000E+000  0.000000000000000E+000  0.000000000000000E+000
  0.000000000000000E+000  0.000000000000000E+000  0.000000000000000E+000
  0.000000000000000E+000  0.000000000000000E+000  0.000000000000000E+000
  0.000000000000000E+000  0.000000000000000E+000  0.000000000000000E+000
  0.000000000000000E+000  0.000000000000000E+000  0.000000000000000E+000
  0.000000000000000E+000  0.000000000000000E+000  0.000000000000000E+000
  0.000000000000000E+000  0.000000000000000E+000  0.000000000000000E+000
  0.000000000000000E+000  0.000000000000000E+000  0.000000000000000E+000
  0.000000000000000E+000  0.000000000000000E+000  0.000000000000000E+000
  0.000000000000000E+000  0.000000000000000E+000  0.000000000000000E+000
  0.000000000000000E+000  0.000000000000000E+000  0.000000000000000E+000
  0.000000000000000E+000  0.000000000000000E+000  0.000000000000000E+000
  0.000000000000000E+000  0.000000000000000E+000  0.000000000000000E+000
  0.000000000000000E+000  0.000000000000000E+000  0.000000000000000E+000
  0.000000000000000E+000  0.000000000000000E+000  0.000000000000000E+000