 Title = "Wing and Wake"
 VARIABLES = "X" "Y" "Z" "GAM" "skew"
 Zone I=   11 J=   26 K=1  T="Blade"
 DATAPACKING=BLOCK
 VARLOCATION=([4]=CELLCENTERED,[5]=CELLCENTERED)
 -0.256327563053603      -0.247572169992368      -0.238816776931133     
 -0.230061383869898      -0.221305990808663      -0.212550597747428     
 -0.203795204686193      -0.195039811624958      -0.186284418563724     
 -0.177529025502489      -0.168773632441254      -0.259653840970069     
 -0.250898447908834      -0.242143054847599      -0.233387661786364     
 -0.224632268725129      -0.215876875663895      -0.207121482602660     
 -0.198366089541425      -0.189610696480190      -0.180855303418955     
 -0.172099910357720      -0.269580217329702      -0.260824824268467     
 -0.252069431207232      -0.243314038145997      -0.234558645084762     
 -0.225803252023528      -0.217047858962293      -0.208292465901058     
 -0.199537072839823      -0.190781679778588      -0.182026286717353     
 -0.285950147247582      -0.277194754186347      -0.268439361125112     
 -0.259683968063877      -0.250928575002642      -0.242173181941407     
 -0.233417788880172      -0.224662395818938      -0.215907002757703     
 -0.207151609696468      -0.198396216635233      -0.308505467149980     
 -0.299750074088745      -0.290994681027511      -0.282239287966275     
 -0.273483894905041      -0.264728501843806      -0.255973108782571     
 -0.247217715721336      -0.238462322660101      -0.229706929598866     
 -0.220951536537632      -0.336890466168142      -0.328135073106907     
 -0.319379680045672      -0.310624286984437      -0.301868893923202     
 -0.293113500861968      -0.284358107800732      -0.275602714739498     
 -0.266847321678262      -0.258091928617028      -0.249336535555793     
 -0.370657495911174      -0.361902102849939      -0.353146709788704     
 -0.344391316727469      -0.335635923666234      -0.326880530604999     
 -0.318125137543764      -0.309369744482529      -0.300614351421295     
 -0.291858958360060      -0.283103565298825      -0.409274030148582     
 -0.400518637087348      -0.391763244026113      -0.383007850964878     
 -0.374252457903643      -0.365497064842408      -0.356741671781173     
 -0.347986278719939      -0.339230885658703      -0.330475492597469     
 -0.321720099536234      -0.452131063067045      -0.443375670005810     
 -0.434620276944575      -0.425864883883340      -0.417109490822105     
 -0.408354097760870      -0.399598704699635      -0.390843311638401     
 -0.382087918577166      -0.373332525515931      -0.364577132454696     
 -0.498552713655886      -0.489797320594651      -0.481041927533416     
 -0.472286534472181      -0.463531141410946      -0.454775748349711     
 -0.446020355288476      -0.437264962227242      -0.428509569166007     
 -0.419754176104772      -0.410998783043537      -0.547806884754370     
 -0.539051491693135      -0.530296098631900      -0.521540705570665     
 -0.512785312509431      -0.504029919448196      -0.495274526386961     
 -0.486519133325726      -0.477763740264491      -0.469008347203256     
 -0.460252954142021      -0.599116808661258      -0.590361415600023     
 -0.581606022538788      -0.572850629477553      -0.564095236416318     
 -0.555339843355084      -0.546584450293849      -0.537829057232615     
 -0.529073664171379      -0.520318271110145      -0.511562878048909     
 -0.651673297225476      -0.642917904164241      -0.634162511103006     
 -0.625407118041772      -0.616651724980536      -0.607896331919302     
 -0.599140938858067      -0.590385545796832      -0.581630152735597     
 -0.572874759674363      -0.564119366613128      -0.704647503226642     
 -0.695892110165408      -0.687136717104172      -0.678381324042937     
 -0.669625930981702      -0.660870537920467      -0.652115144859232     
 -0.643359751797998      -0.634604358736762      -0.625848965675528     
 -0.617093572614293      -0.757203991790860      -0.748448598729626     
 -0.739693205668390      -0.730937812607156      -0.722182419545921     
 -0.713427026484685      -0.704671633423450      -0.695916240362215     
 -0.687160847300981      -0.678405454239747      -0.669650061178512     
 -0.808513915697746      -0.799758522636513      -0.791003129575278     
 -0.782247736514043      -0.773492343452809      -0.764736950391573     
 -0.755981557330339      -0.747226164269104      -0.738470771207868     
 -0.729715378146634      -0.720959985085400      -0.857768086796232     
 -0.849012693734997      -0.840257300673763      -0.831501907612528     
 -0.822746514551293      -0.813991121490057      -0.805235728428822     
 -0.796480335367588      -0.787724942306352      -0.778969549245119     
 -0.770214156183884      -0.904189737385073      -0.895434344323838     
 -0.886678951262603      -0.877923558201369      -0.869168165140133     
 -0.860412772078899      -0.851657379017664      -0.842901985956429     
 -0.834146592895194      -0.825391199833959      -0.816635806772724     
 -0.947046770303535      -0.938291377242301      -0.929535984181066     
 -0.920780591119830      -0.912025198058596      -0.903269804997360     
 -0.894514411936126      -0.885759018874892      -0.877003625813657     
 -0.868248232752422      -0.859492839691187      -0.985663304540944     
 -0.976907911479709      -0.968152518418474      -0.959397125357239     
 -0.950641732296004      -0.941886339234770      -0.933130946173536     
 -0.924375553112300      -0.915620160051066      -0.906864766989831     
 -0.898109373928595       -1.01943033428398       -1.01067494122274     
  -1.00191954816151      -0.993164155100272      -0.984408762039037     
 -0.975653368977802      -0.966897975916568      -0.958142582855333     
 -0.949387189794098      -0.940631796732862      -0.931876403671627     
  -1.04781533330214       -1.03905994024090       -1.03030454717967     
  -1.02154915411843       -1.01279376105720       -1.00403836799596     
 -0.995282974934729      -0.986527581873494      -0.977772188812257     
 -0.969016795751024      -0.960261402689789       -1.07037065320454     
  -1.06161526014330       -1.05285986708207       -1.04410447402083     
  -1.03534908095960       -1.02659368789836       -1.01783829483712     
  -1.00908290177589       -1.00032750871466      -0.991572115653423     
 -0.982816722592186       -1.08674058312242       -1.07798519006118     
  -1.06922979699995       -1.06047440393871       -1.05171901087748     
  -1.04296361781624       -1.03420822475501       -1.02545283169377     
  -1.01669743863254       -1.00794204557130      -0.999186652510067     
  -1.09666695948205       -1.08791156642081       -1.07915617335958     
  -1.07040078029834       -1.06164538723711       -1.05288999417587     
  -1.04413460111464       -1.03537920805340       -1.02662381499217     
  -1.01786842193093       -1.00911302886970       -1.09999323739852     
  -1.09123784433728       -1.08248245127605       -1.07372705821481     
  -1.06497166515358       -1.05621627209234       -1.04746087903110     
  -1.03870548596987       -1.02995009290864       -1.02119469984740     
  -1.01243930678617     
 -7.866566341882417E-002 -6.195589146800422E-002 -4.524611951718444E-002
 -2.853634756636438E-002 -1.182657561554458E-002  4.883196335275189E-003
  2.159296828609504E-002  3.830274023691512E-002  5.501251218773498E-002
  7.172228413855454E-002  8.843205608937468E-002 -7.692279878396943E-002
 -6.021302683314986E-002 -4.350325488232987E-002 -2.679348293151003E-002
 -1.008371098069008E-002  6.626060970129662E-003  2.333583292094961E-002
  4.004560487176951E-002  5.675537682258928E-002  7.346514877340919E-002
  9.017492072422913E-002 -7.172169089583520E-002 -5.501191894501525E-002
 -3.830214699419540E-002 -2.159237504337552E-002 -4.882603092555646E-003
  1.182716885826428E-002  2.853694080908402E-002  4.524671275990402E-002
  6.195648471072380E-002  7.866625666154356E-002  9.537602861236344E-002
 -6.314436433280721E-002 -4.643459238198732E-002 -2.972482043116721E-002
 -1.301504848034766E-002  3.694723470472161E-003  2.040449542129204E-002
  3.711426737211182E-002  5.382403932293153E-002  7.053381127375166E-002
  8.724358322457135E-002  0.103953355175391      -5.132608865863181E-002
 -3.461631670781191E-002 -1.790654475699215E-002 -1.196772806172230E-003
  1.551299914464751E-002  3.222277109546757E-002  4.893254304628721E-002
  6.564231499710710E-002  8.235208694792681E-002  9.906185889874676E-002
  0.115771630849567      -3.645324514058649E-002 -1.974347318976655E-002
 -3.033701238946734E-003  1.367607071187325E-002  3.038584266269306E-002
  4.709561461351299E-002  6.380538656433285E-002  8.051515851515273E-002
  9.722493046597226E-002  0.113934702416792       0.130644474367613     
 -1.876038740555585E-002 -2.050615454736210E-003  1.465915649608336E-002
  3.136892844690335E-002  4.807870039772349E-002  6.478847234854289E-002
  8.149824429936262E-002  9.820801625018298E-002  0.114917788201003     
  0.131627560151822       0.148337332102642       1.473457610775995E-003
  1.818322956159601E-002  3.489300151241608E-002  5.160277346323564E-002
  6.831254541405560E-002  8.502231736487574E-002  0.101732089315696     
  0.118441861266515       0.135151633217335       0.151861405168155     
  0.168571177118975       2.392919008539036E-002  4.063896203621003E-002
  5.734873398702981E-002  7.405850593784953E-002  9.076827788867006E-002
  0.107478049839489       0.124187821790309       0.140897593741129     
  0.157607365691949       0.174317137642769       0.191026909593588     
  4.825266970275689E-002  6.496244165357645E-002  8.167221360439647E-002
  9.838198555521596E-002  0.115091757506036       0.131801529456856     
  0.148511301407676       0.165221073358496       0.181930845309316     
  0.198640617260135       0.215350389210955       7.406030065916741E-002
  9.077007260998772E-002  0.107479844560807       0.124189616511627     
  0.140899388462447       0.157609160413267       0.174318932364087     
  0.191028704314906       0.207738476265727       0.224448248216546     
  0.241158020167366       0.100945081197708       0.117654853148529     
  0.134364625099349       0.151074397050167       0.167784169000987     
  0.184493940951808       0.201203712902628       0.217913484853447     
  0.234623256804267       0.251333028755087       0.268042800705907     
  0.128483022269098       0.145192794219917       0.161902566170737     
  0.178612338121556       0.195322110072376       0.212031882023196     
  0.228741653974016       0.245451425924836       0.262161197875656     
  0.278870969826475       0.295580741777296       0.156239834092270     
  0.172949606043090       0.189659377993909       0.206369149944729     
  0.223078921895549       0.239788693846369       0.256498465797189     
  0.273208237748008       0.289918009698829       0.306627781649649     
  0.323337553600468       0.183777775163658       0.200487547114479     
  0.217197319065298       0.233907091016119       0.250616862966937     
  0.267326634917757       0.284036406868578       0.300746178819397     
  0.317455950770217       0.334165722721037       0.350875494671858     
  0.210662555702199       0.227372327653019       0.244082099603839     
  0.260791871554659       0.277501643505479       0.294211415456298     
  0.310921187407119       0.327630959357938       0.344340731308757     
  0.361050503259578       0.377760275210398       0.236470186658611     
  0.253179958609430       0.269889730560250       0.286599502511070     
  0.303309274461890       0.320019046412709       0.336728818363529     
  0.353438590314349       0.370148362265169       0.386858134215989     
  0.403567906166809       0.260793666275976       0.277503438226796     
  0.294213210177616       0.310922982128437       0.327632754079256     
  0.344342526030076       0.361052297980896       0.377762069931716     
  0.394471841882536       0.411181613833356       0.427891385784175     
  0.283249398750591       0.299959170701410       0.316668942652231     
  0.333378714603050       0.350088486553870       0.366798258504690     
  0.383508030455510       0.400217802406330       0.416927574357150     
  0.433637346307969       0.450347118258789       0.303483243766923     
  0.320193015717743       0.336902787668562       0.353612559619382     
  0.370322331570202       0.387032103521022       0.403741875471842     
  0.420451647422662       0.437161419373482       0.453871191324301     
  0.470580963275121       0.321176101501953       0.337885873452773     
  0.354595645403592       0.371305417354413       0.388015189305234     
  0.404724961256053       0.421434733206873       0.438144505157692     
  0.454854277108512       0.471564049059333       0.488273821010151     
  0.336048945019999       0.352758716970819       0.369468488921639     
  0.386178260872459       0.402888032823277       0.419597804774098     
  0.436307576724917       0.453017348675738       0.469727120626557     
  0.486436892577377       0.503146664528198       0.347867220694174     
  0.364576992644995       0.381286764595815       0.397996536546633     
  0.414706308497453       0.431416080448273       0.448125852399093     
  0.464835624349912       0.481545396300733       0.498255168251554     
  0.514964940202373       0.356444547257202       0.373154319208021     
  0.389864091158842       0.406573863109662       0.423283635060481     
  0.439993407011301       0.456703178962121       0.473412950912941     
  0.490122722863761       0.506832494814580       0.523542266765401     
  0.361645655145337       0.378355427096156       0.395065199046975     
  0.411774970997796       0.428484742948617       0.445194514899436     
  0.461904286850256       0.478614058801074       0.495323830751896     
  0.512033602702715       0.528743374653535       0.363388519780192     
  0.380098291731010       0.396808063681832       0.413517835632650     
  0.430227607583470       0.446937379534290       0.463647151485110     
  0.480356923435930       0.497066695386749       0.513776467337571     
  0.530486239288390     
  2.651247573289247E-002  2.386122815960322E-002  2.120998058631397E-002
  1.855873301302472E-002  1.590748543973548E-002  1.325623786644623E-002
  1.060499029315698E-002  7.953742719867740E-003  5.302495146578492E-003
  2.651247573289244E-003  0.000000000000000E+000  2.651247573289247E-002
  2.386122815960322E-002  2.120998058631397E-002  1.855873301302472E-002
  1.590748543973548E-002  1.325623786644623E-002  1.060499029315698E-002
  7.953742719867740E-003  5.302495146578492E-003  2.651247573289244E-003
  0.000000000000000E+000  2.651247573289247E-002  2.386122815960322E-002
  2.120998058631397E-002  1.855873301302472E-002  1.590748543973548E-002
  1.325623786644623E-002  1.060499029315698E-002  7.953742719867740E-003
  5.302495146578492E-003  2.651247573289244E-003  0.000000000000000E+000
  2.651247573289247E-002  2.386122815960322E-002  2.120998058631397E-002
  1.855873301302472E-002  1.590748543973548E-002  1.325623786644623E-002
  1.060499029315698E-002  7.953742719867740E-003  5.302495146578492E-003
  2.651247573289244E-003  0.000000000000000E+000  2.651247573289247E-002
  2.386122815960322E-002  2.120998058631397E-002  1.855873301302472E-002
  1.590748543973548E-002  1.325623786644623E-002  1.060499029315698E-002
  7.953742719867740E-003  5.302495146578492E-003  2.651247573289244E-003
  0.000000000000000E+000  2.651247573289247E-002  2.386122815960322E-002
  2.120998058631397E-002  1.855873301302472E-002  1.590748543973548E-002
  1.325623786644623E-002  1.060499029315698E-002  7.953742719867740E-003
  5.302495146578492E-003  2.651247573289244E-003  0.000000000000000E+000
  2.651247573289247E-002  2.386122815960322E-002  2.120998058631397E-002
  1.855873301302472E-002  1.590748543973548E-002  1.325623786644623E-002
  1.060499029315698E-002  7.953742719867740E-003  5.302495146578492E-003
  2.651247573289244E-003  0.000000000000000E+000  2.651247573289247E-002
  2.386122815960322E-002  2.120998058631397E-002  1.855873301302472E-002
  1.590748543973548E-002  1.325623786644623E-002  1.060499029315698E-002
  7.953742719867740E-003  5.302495146578492E-003  2.651247573289244E-003
  0.000000000000000E+000  2.651247573289247E-002  2.386122815960322E-002
  2.120998058631397E-002  1.855873301302472E-002  1.590748543973548E-002
  1.325623786644623E-002  1.060499029315698E-002  7.953742719867740E-003
  5.302495146578492E-003  2.651247573289244E-003  0.000000000000000E+000
  2.651247573289247E-002  2.386122815960322E-002  2.120998058631397E-002
  1.855873301302472E-002  1.590748543973548E-002  1.325623786644623E-002
  1.060499029315698E-002  7.953742719867740E-003  5.302495146578492E-003
  2.651247573289244E-003  0.000000000000000E+000  2.651247573289247E-002
  2.386122815960322E-002  2.120998058631397E-002  1.855873301302472E-002
  1.590748543973548E-002  1.325623786644623E-002  1.060499029315698E-002
  7.953742719867740E-003  5.302495146578492E-003  2.651247573289244E-003
  0.000000000000000E+000  2.651247573289247E-002  2.386122815960322E-002
  2.120998058631397E-002  1.855873301302472E-002  1.590748543973548E-002
  1.325623786644623E-002  1.060499029315698E-002  7.953742719867740E-003
  5.302495146578492E-003  2.651247573289244E-003  0.000000000000000E+000
  2.651247573289247E-002  2.386122815960322E-002  2.120998058631397E-002
  1.855873301302472E-002  1.590748543973548E-002  1.325623786644623E-002
  1.060499029315698E-002  7.953742719867740E-003  5.302495146578492E-003
  2.651247573289244E-003  0.000000000000000E+000  2.651247573289247E-002
  2.386122815960322E-002  2.120998058631397E-002  1.855873301302472E-002
  1.590748543973548E-002  1.325623786644623E-002  1.060499029315698E-002
  7.953742719867740E-003  5.302495146578492E-003  2.651247573289244E-003
  0.000000000000000E+000  2.651247573289247E-002  2.386122815960322E-002
  2.120998058631397E-002  1.855873301302472E-002  1.590748543973548E-002
  1.325623786644623E-002  1.060499029315698E-002  7.953742719867740E-003
  5.302495146578492E-003  2.651247573289244E-003  0.000000000000000E+000
  2.651247573289247E-002  2.386122815960322E-002  2.120998058631397E-002
  1.855873301302472E-002  1.590748543973548E-002  1.325623786644623E-002
  1.060499029315698E-002  7.953742719867740E-003  5.302495146578492E-003
  2.651247573289244E-003  0.000000000000000E+000  2.651247573289247E-002
  2.386122815960322E-002  2.120998058631397E-002  1.855873301302472E-002
  1.590748543973548E-002  1.325623786644623E-002  1.060499029315698E-002
  7.953742719867740E-003  5.302495146578492E-003  2.651247573289244E-003
  0.000000000000000E+000  2.651247573289247E-002  2.386122815960322E-002
  2.120998058631397E-002  1.855873301302472E-002  1.590748543973548E-002
  1.325623786644623E-002  1.060499029315698E-002  7.953742719867740E-003
  5.302495146578492E-003  2.651247573289244E-003  0.000000000000000E+000
  2.651247573289247E-002  2.386122815960322E-002  2.120998058631397E-002
  1.855873301302472E-002  1.590748543973548E-002  1.325623786644623E-002
  1.060499029315698E-002  7.953742719867740E-003  5.302495146578492E-003
  2.651247573289244E-003  0.000000000000000E+000  2.651247573289247E-002
  2.386122815960322E-002  2.120998058631397E-002  1.855873301302472E-002
  1.590748543973548E-002  1.325623786644623E-002  1.060499029315698E-002
  7.953742719867740E-003  5.302495146578492E-003  2.651247573289244E-003
  0.000000000000000E+000  2.651247573289247E-002  2.386122815960322E-002
  2.120998058631397E-002  1.855873301302472E-002  1.590748543973548E-002
  1.325623786644623E-002  1.060499029315698E-002  7.953742719867740E-003
  5.302495146578492E-003  2.651247573289244E-003  0.000000000000000E+000
  2.651247573289247E-002  2.386122815960322E-002  2.120998058631397E-002
  1.855873301302472E-002  1.590748543973548E-002  1.325623786644623E-002
  1.060499029315698E-002  7.953742719867740E-003  5.302495146578492E-003
  2.651247573289244E-003  0.000000000000000E+000  2.651247573289247E-002
  2.386122815960322E-002  2.120998058631397E-002  1.855873301302472E-002
  1.590748543973548E-002  1.325623786644623E-002  1.060499029315698E-002
  7.953742719867740E-003  5.302495146578492E-003  2.651247573289244E-003
  0.000000000000000E+000  2.651247573289247E-002  2.386122815960322E-002
  2.120998058631397E-002  1.855873301302472E-002  1.590748543973548E-002
  1.325623786644623E-002  1.060499029315698E-002  7.953742719867740E-003
  5.302495146578492E-003  2.651247573289244E-003  0.000000000000000E+000
  2.651247573289247E-002  2.386122815960322E-002  2.120998058631397E-002
  1.855873301302472E-002  1.590748543973548E-002  1.325623786644623E-002
  1.060499029315698E-002  7.953742719867740E-003  5.302495146578492E-003
  2.651247573289244E-003  0.000000000000000E+000  2.651247573289247E-002
  2.386122815960322E-002  2.120998058631397E-002  1.855873301302472E-002
  1.590748543973548E-002  1.325623786644623E-002  1.060499029315698E-002
  7.953742719867740E-003  5.302495146578492E-003  2.651247573289244E-003
  0.000000000000000E+000
  8.900117110983269E-003  2.116319420272907E-002  3.408272586952543E-002
  4.722698464094324E-002  6.050428569418955E-002  7.333509673882385E-002
  8.484045394860933E-002  9.430396075875269E-002  0.101797040385208     
  0.107646827512317       1.650126496166857E-002  3.689706179544053E-002
  5.832844695172512E-002  8.016063892493128E-002  0.102144898271103     
  0.123429364877571       0.142666916390516       0.158836995611966     
  0.172022751881178       0.182783327699128       2.882144089622484E-002
  5.713935664829137E-002  8.615817405158088E-002  0.115558845602520     
  0.144931487419199       0.173326710479230       0.199340001016680     
  0.222069646588508       0.241359446425174       0.256874487303254     
  4.968177263001974E-002  8.790292460254291E-002  0.124635077018862     
  0.160768799016480       0.196254109612536       0.230398095382417     
  0.261760738441046       0.289912166089742       0.314505649194575     
  0.334156311045443       8.299971373603204E-002  0.135887760739208     
  0.182669017469826       0.226493511346469       0.268039315571972     
  0.307051179164791       0.343031828347679       0.375436850967769     
  0.403558760093904       0.425741639319330       0.129317899597116     
  0.202616917381133       0.262903816109769       0.316548107618345     
  0.365364936594332       0.409798100800390       0.449854083831312     
  0.485352695786918       0.515736432085564       0.539118650340142     
  0.186496825788778       0.285267481947201       0.362305145406753     
  0.427927451275967       0.485553934311889       0.536572533565845     
  0.581546043545899       0.620558337830473       0.653176792086621     
  0.677524008638562       0.252880511289960       0.381557271191465     
  0.478531979894773       0.558683353896756       0.627258169760497     
  0.686612704646064       0.737867356263106       0.781437499203682     
  0.817046690927368       0.842789448820771       0.328610217690769     
  0.491561184044331       0.611588060845051       0.708764332640008     
  0.790355784703210       0.859757598634627       0.918695458688202     
  0.967941663864568        1.00736643863088        1.03499972458181     
  0.413380881723849       0.614783693938049       0.760776560502804     
  0.877252069732093       0.973717437094265        1.05470492342978     
   1.12260157830184        1.17855990623798        1.22261039382076     
   1.25268777880483       0.506300400181493       0.749981131726707     
  0.924634628670815        1.06251527924265        1.17557430197700     
   1.26958176178773        1.34763429316070        1.41128677759214     
   1.46074045233914        1.49383894968880       0.606619062737925     
  0.896017896194065        1.10172451091761        1.26284989944826     
   1.39398207805358        1.50222166418804        1.59141587664480     
   1.66355698654318        1.71905784044645        1.75567192556258     
  0.713633398261303        1.05176472596481        1.29053928366026     
   1.47638686525775        1.62671099379719        1.75003958071040     
   1.85103903945899        1.93218156857108        1.99412205251597     
   2.03454871222250       0.826605123704003        1.21598968004279     
   1.48938502538061        1.70097535006871        1.87116447588671     
   2.01001570893731        2.12308529154728        2.21338102526299     
   2.28184351131860        2.32614248061797       0.944972574421933     
   1.38767520765398        1.69677199584185        1.93463086079226     
   2.12483924934852        2.27911662567957        2.40400862780518     
   2.50314157289084        2.57781519730834        2.62575994779337     
   1.06991251229344        1.56810160364095        1.91368830290176     
   2.17781843011024        2.38755545100336        2.55646498560907     
   2.69223320165599        2.79923866499480        2.87926402256102     
   2.93024896465640        1.20900107214065        1.76664848925081     
   2.14966327118305        2.43950886976948        2.66746345050942     
   2.84935528001095        2.99425603507770        3.10746782241248     
   3.19141667612439        3.24445235459928        1.38230628427971     
   2.00718468454340        2.42869313477794        2.74293559333819     
   2.98712035875574        3.18000010979131        3.33227340001870     
   3.45026889182660        3.53712319338745        3.59166294225121     
   1.57821942340050        2.27339787141173        2.73158753240396     
   3.06663352204882        3.32292450786521        3.52275546438628     
   3.67878933715034        3.79855335917227        3.88597619913081     
   3.94049129718399        1.70360182991127        2.43798734015710     
   2.91175774182225        3.25116241053950        3.50591189031572     
   3.70122926972083        3.85148078410780        3.96517132586246     
   4.04686283224908        4.09681808234115        1.71663646653802     
   2.43726233268879        2.89060585586029        3.20838489399447     
   3.44269335701726        3.61976778388334        3.75427066078155     
   3.85463563332137        3.92528976812639        3.96702128427889     
   1.61198716871816        2.25904689366042        2.65210267922814     
   2.92121402964684        3.11662253252452        3.26273006163107     
   3.37265914818600        3.45361584114219        3.50909396442945     
   3.53969094097008        1.39794987560929        1.91492160555145     
   2.21686219274434        2.42051661650512        2.56756370572660     
   2.67725190897658        2.75966526156960        2.82028338130148     
   2.86187599122405        2.88523599795788        1.07083894176191     
   1.42025553376441        1.62151147043268        1.75756123841613     
   1.85615001343583        1.92993578848633        1.98559750912083     
   2.02691407356929        2.05633726460804        2.07743090542160     
  0.651401442727382       0.847066890793018       0.960825659417043     
   1.03816157044278        1.09440146793053        1.13659308069711     
   1.16847467626186        1.19214201095015        1.20874035666265     
   1.21859567544635     
  0.000000000000000E+000  0.000000000000000E+000  0.000000000000000E+000
  0.000000000000000E+000  0.000000000000000E+000  0.000000000000000E+000
  0.000000000000000E+000  0.000000000000000E+000  0.000000000000000E+000
  0.000000000000000E+000  0.000000000000000E+000  0.000000000000000E+000
  0.000000000000000E+000  0.000000000000000E+000  0.000000000000000E+000
  0.000000000000000E+000  0.000000000000000E+000  0.000000000000000E+000
  0.000000000000000E+000  0.000000000000000E+000  0.000000000000000E+000
  0.000000000000000E+000  0.000000000000000E+000  0.000000000000000E+000
  0.000000000000000E+000  0.000000000000000E+000  0.000000000000000E+000
  0.000000000000000E+000  0.000000000000000E+000  0.000000000000000E+000
  0.000000000000000E+000  0.000000000000000E+000  0.000000000000000E+000
  0.000000000000000E+000  0.000000000000000E+000  0.000000000000000E+000
  0.000000000000000E+000  0.000000000000000E+000  0.000000000000000E+000
  0.000000000000000E+000  0.000000000000000E+000  0.000000000000000E+000
  0.000000000000000E+000  0.000000000000000E+000  0.000000000000000E+000
  0.000000000000000E+000  0.000000000000000E+000  0.000000000000000E+000
  0.000000000000000E+000  0.000000000000000E+000  0.000000000000000E+000
  0.000000000000000E+000  0.000000000000000E+000  0.000000000000000E+000
  0.000000000000000E+000  0.000000000000000E+000  0.000000000000000E+000
  0.000000000000000E+000  0.000000000000000E+000  0.000000000000000E+000
  0.000000000000000E+000  0.000000000000000E+000  0.000000000000000E+000
  0.000000000000000E+000  0.000000000000000E+000  0.000000000000000E+000
  0.000000000000000E+000  0.000000000000000E+000  0.000000000000000E+000
  0.000000000000000E+000  0.000000000000000E+000  0.000000000000000E+000
  0.000000000000000E+000  0.000000000000000E+000  0.000000000000000E+000
  0.000000000000000E+000  0.000000000000000E+000  0.000000000000000E+000
  0.000000000000000E+000  0.000000000000000E+000  0.000000000000000E+000
  0.000000000000000E+000  0.000000000000000E+000  0.000000000000000E+000
  0.000000000000000E+000  0.000000000000000E+000  0.000000000000000E+000
  0.000000000000000E+000  0.000000000000000E+000  0.000000000000000E+000
  0.000000000000000E+000  0.000000000000000E+000  0.000000000000000E+000
  0.000000000000000E+000  0.000000000000000E+000  0.000000000000000E+000
  0.000000000000000E+000  0.000000000000000E+000  0.000000000000000E+000
  0.000000000000000E+000  0.000000000000000E+000  0.000000000000000E+000
  0.000000000000000E+000  0.000000000000000E+000  0.000000000000000E+000
  0.000000000000000E+000  0.000000000000000E+000  0.000000000000000E+000
  0.000000000000000E+000  0.000000000000000E+000  0.000000000000000E+000
  0.000000000000000E+000  0.000000000000000E+000  0.000000000000000E+000
  0.000000000000000E+000  0.000000000000000E+000  0.000000000000000E+000