 Title = "Wing and Wake"
 VARIABLES = "X" "Y" "Z" "GAM" "skew"
 Zone I=   11 J=   26 K=1  T="Blade"
 DATAPACKING=BLOCK
 VARLOCATION=([4]=CELLCENTERED,[5]=CELLCENTERED)
 -4.456134837721128E-002 -2.913626514847204E-002 -1.371118191973283E-002
  1.713901309006469E-003  1.713898453774550E-002  3.256406776648475E-002
  4.798915099522384E-002  6.341423422396335E-002  7.883931745270245E-002
  9.426440068144147E-002  0.109689483910181      -4.239953137581415E-002
 -2.697444814707529E-002 -1.154936491833599E-002  3.875718310403090E-003
  1.930080153914241E-002  3.472588476788156E-002  5.015096799662085E-002
  6.557605122536010E-002  8.100113445409927E-002  9.642621768283838E-002
  0.111851300911578      -3.594817351714309E-002 -2.052309028840403E-002
 -5.098007059664763E-003  1.032707616907453E-002  2.575215939781384E-002
  4.117724262655302E-002  5.660232585529194E-002  7.202740908403156E-002
  8.745249231277062E-002  0.102877575541510       0.118302658770249     
 -2.530901656848248E-002 -9.883933339743177E-003  5.541149888996150E-003
  2.096623311773515E-002  3.639131634647425E-002  5.181639957521355E-002
  6.724148280395262E-002  8.266656603269164E-002  9.809164926143103E-002
  0.113516732490170       0.128941815718909      -1.064984639043757E-002
  4.775236838301464E-003  2.020032006704081E-002  3.562540329577974E-002
  5.105048652451892E-002  6.647556975325843E-002  8.190065298199721E-002
  9.732573621073666E-002  0.112750819439476       0.128175902668215     
  0.143600985896954       7.798153146319475E-003  2.322323637505871E-002
  3.864831960379797E-002  5.407340283253723E-002  6.949848606127640E-002
  8.492356929001584E-002  0.100348652518755       0.115773735747494     
  0.131198818976233       0.146623902204972       0.162048985433712     
  2.974404606879497E-002  4.516912929753387E-002  6.059421252627258E-002
  7.601929575501211E-002  9.144437898375141E-002  0.106869462212490     
  0.122294545441229       0.137719628669969       0.153144711898708     
  0.168569795127447       0.183994878356186       5.484173253575834E-002
  7.026681576449753E-002  8.569189899323716E-002  0.101116982221976     
  0.116542065450715       0.131967148679454       0.147392231908194     
  0.162817315136933       0.178242398365672       0.193667481594412     
  0.209092564823151       8.269540703899604E-002  9.812049026773552E-002
  0.113545573496475       0.128970656725213       0.144395739953953     
  0.159820823182692       0.175245906411431       0.190670989640171     
  0.206096072868909       0.221521156097649       0.236946239326388     
  0.112865800492613       0.128290883721352       0.143715966950091     
  0.159141050178830       0.174566133407570       0.189991216636309     
  0.205416299865048       0.220841383093787       0.236266466322526     
  0.251691549551265       0.267116632780004       0.144877107768926     
  0.160302190997666       0.175727274226404       0.191152357455143     
  0.206577440683883       0.222002523912621       0.237427607141361     
  0.252852690370100       0.268277773598840       0.283702856827578     
  0.299127940056317       0.178224491429559       0.193649574658298     
  0.209074657887038       0.224499741115776       0.239924824344516     
  0.255349907573255       0.270774990801994       0.286200074030733     
  0.301625157259473       0.317050240488212       0.332475323716951     
  0.212382043313424       0.227807126542162       0.243232209770902     
  0.258657292999641       0.274082376228380       0.289507459457119     
  0.304932542685859       0.320357625914597       0.335782709143337     
  0.351207792372075       0.366632875600815       0.246811078422579     
  0.262236161651317       0.277661244880056       0.293086328108796     
  0.308511411337535       0.323936494566274       0.339361577795013     
  0.354786661023751       0.370211744252491       0.385636827481231     
  0.401061910709970       0.280968630306442       0.296393713535182     
  0.311818796763920       0.327243879992661       0.342668963221399     
  0.358094046450138       0.373519129678878       0.388944212907615     
  0.404369296136356       0.419794379365095       0.435219462593834     
  0.314316013967075       0.329741097195815       0.345166180424553     
  0.360591263653294       0.376016346882034       0.391441430110771     
  0.406866513339511       0.422291596568250       0.437716679796988     
  0.453141763025729       0.468566846254468       0.346327321243390     
  0.361752404472127       0.377177487700867       0.392602570929606     
  0.408027654158345       0.423452737387083       0.438877820615823     
  0.454302903844563       0.469727987073302       0.485153070302041     
  0.500578153530781       0.376497714697004       0.391922797925745     
  0.407347881154483       0.422772964383224       0.438198047611962     
  0.453623130840701       0.469048214069441       0.484473297298180     
  0.499898380526919       0.515323463755658       0.530748546984396     
  0.404351389200244       0.419776472428982       0.435201555657722     
  0.450626638886461       0.466051722115199       0.481476805343938     
  0.496901888572678       0.512326971801417       0.527752055030157     
  0.543177138258895       0.558602221487634       0.429449075667206     
  0.444874158895946       0.460299242124684       0.475724325353423     
  0.491149408582163       0.506574491810902       0.521999575039642     
  0.537424658268381       0.552849741497121       0.568274824725859     
  0.583699907954597       0.451394968589681       0.466820051818421     
  0.482245135047159       0.497670218275899       0.513095301504639     
  0.528520384733377       0.543945467962118       0.559370551190855     
  0.574795634419595       0.590220717648335       0.605645800877072     
  0.469842968126440       0.485268051355178       0.500693134583918     
  0.516118217812657       0.531543301041395       0.546968384270135     
  0.562393467498874       0.577818550727613       0.593243633956352     
  0.608668717185091       0.624093800413833       0.484502138304483     
  0.499927221533224       0.515352304761963       0.530777387990701     
  0.546202471219441       0.561627554448179       0.577052637676918     
  0.592477720905657       0.607902804134397       0.623327887363138     
  0.638752970591876       0.495141295253144       0.510566378481883     
  0.525991461710623       0.541416544939362       0.556841628168102     
  0.572266711396841       0.587691794625579       0.603116877854319     
  0.618541961083058       0.633967044311797       0.649392127540536     
  0.501592653111817       0.517017736340554       0.532442819569293     
  0.547867902798033       0.563292986026774       0.578718069255511     
  0.594143152484251       0.609568235712988       0.624993318941729     
  0.640418402170469       0.655843485399206       0.503754470113215     
  0.519179553341951       0.534604636570691       0.550029719799430     
  0.565454803028169       0.580879886256907       0.596304969485648     
  0.611730052714387       0.627155135943126       0.642580219171867     
  0.658005302400606     
  0.264398170214786       0.253538142880953       0.242678115547120     
  0.231818088213288       0.220958060879455       0.210098033545622     
  0.199238006211789       0.188377978877957       0.177517951544124     
  0.166657924210292       0.155797896876459       0.267468715633025     
  0.256608688299192       0.245748660965359       0.234888633631526     
  0.224028606297694       0.213168578963861       0.202308551630028     
  0.191448524296196       0.180588496962363       0.169728469628531     
  0.158868442294698       0.276631927552240       0.265771900218408     
  0.254911872884575       0.244051845550742       0.233191818216910     
  0.222331790883077       0.211471763549244       0.200611736215412     
  0.189751708881579       0.178891681547746       0.168031654213914     
  0.291743296646630       0.280883269312797       0.270023241978965     
  0.259163214645132       0.248303187311300       0.237443159977467     
  0.226583132643634       0.215723105309802       0.204863077975969     
  0.194003050642136       0.183143023308304       0.312564507598481     
  0.301704480264648       0.290844452930815       0.279984425596983     
  0.269124398263150       0.258264370929317       0.247404343595485     
  0.236544316261652       0.225684288927819       0.214824261593987     
  0.203964234260154       0.338767197473093       0.327907170139260     
  0.317047142805427       0.306187115471594       0.295327088137762     
  0.284467060803929       0.273607033470096       0.262747006136264     
  0.251886978802431       0.241026951468598       0.230166924134766     
  0.369938134198415       0.359078106864583       0.348218079530751     
  0.337358052196918       0.326498024863085       0.315637997529252     
  0.304777970195419       0.293917942861587       0.283057915527754     
  0.272197888193921       0.261337860860088       0.405585733481675     
  0.394725706147843       0.383865678814011       0.373005651480177     
  0.362145624146345       0.351285596812513       0.340425569478679     
  0.329565542144847       0.318705514811014       0.307845487477182     
  0.296985460143350       0.445147811387333       0.434287784053500     
  0.423427756719668       0.412567729385835       0.401707702052002     
  0.390847674718169       0.379987647384336       0.369127620050504     
  0.358267592716671       0.347407565382839       0.336547538049006     
  0.488000450313574       0.477140422979741       0.466280395645909     
  0.455420368312076       0.444560340978243       0.433700313644411     
  0.422840286310578       0.411980258976746       0.401120231642912     
  0.390260204309080       0.379400176975248       0.533467838545609     
  0.522607811211777       0.511747783877943       0.500887756544110     
  0.490027729210277       0.479167701876445       0.468307674542612     
  0.457447647208780       0.446587619874948       0.435727592541115     
  0.424867565207282       0.580832928210115       0.569972900876280     
  0.559112873542449       0.548252846208616       0.537392818874783     
  0.526532791540951       0.515672764207117       0.504812736873285     
  0.493952709539454       0.483092682205620       0.472232654871787     
  0.629348743548549       0.618488716214717       0.607628688880883     
  0.596768661547053       0.585908634213218       0.575048606879386     
  0.564188579545553       0.553328552211721       0.542468524877888     
  0.531608497544056       0.520748470210223       0.678250161171084     
  0.667390133837251       0.656530106503418       0.645670079169586     
  0.634810051835753       0.623950024501921       0.613089997168087     
  0.602229969834256       0.591369942500422       0.580509915166589     
  0.569649887832757       0.726765976509519       0.715905949175687     
  0.705045921841855       0.694185894508022       0.683325867174189     
  0.672465839840357       0.661605812506523       0.650745785172690     
  0.639885757838859       0.629025730505026       0.618165703171193     
  0.774131066174023       0.763271038840192       0.752411011506360     
  0.741550984172527       0.730690956838695       0.719830929504861     
  0.708970902171029       0.698110874837196       0.687250847503362     
  0.676390820169531       0.665530792835699       0.819598454406059     
  0.808738427072226       0.797878399738394       0.787018372404562     
  0.776158345070729       0.765298317736895       0.754438290403062     
  0.743578263069231       0.732718235735397       0.721858208401566     
  0.710998181067733       0.862451093332300       0.851591065998467     
  0.840731038664634       0.829871011330804       0.819010983996969     
  0.808150956663138       0.797290929329305       0.786430901995472     
  0.775570874661639       0.764710847327805       0.753850819993974     
  0.902013171237958       0.891153143904125       0.880293116570291     
  0.869433089236459       0.858573061902627       0.847713034568793     
  0.836853007234960       0.825992979901129       0.815132952567297     
  0.804272925233463       0.793412897899630       0.937660770521219     
  0.926800743187384       0.915940715853551       0.905080688519720     
  0.894220661185887       0.883360633852054       0.872500606518221     
  0.861640579184389       0.850780551850557       0.839920524516724     
  0.829060497182891       0.968831707246538       0.957971679912707     
  0.947111652578874       0.936251625245043       0.925391597911209     
  0.914531570577375       0.903671543243546       0.892811515909711     
  0.881951488575880       0.871091461242046       0.860231433908213     
  0.995034397121152       0.984174369787322       0.973314342453487     
  0.962454315119655       0.951594287785822       0.940734260451988     
  0.929874233118156       0.919014205784323       0.908154178450490     
  0.897294151116658       0.886434123782826        1.01585560807301     
   1.00499558073917       0.994135553405338       0.983275526071504     
  0.972415498737672       0.961555471403839       0.950695444070004     
  0.939835416736174       0.928975389402341       0.918115362068510     
  0.907255334734675        1.03096697716739        1.02010694983356     
   1.00924692249973       0.998386895165894       0.987526867832062     
  0.976666840498229       0.965806813164396       0.954946785830565     
  0.944086758496732       0.933226731162897       0.922366703829064     
   1.04013018908661        1.02927016175278        1.01841013441894     
   1.00755010708511       0.996690079751278       0.985830052417445     
  0.974970025083612       0.964109997749777       0.953249970415947     
  0.942389943082115       0.931529915748281        1.04320073450485     
   1.03234070717102        1.02148067983718        1.01062065250335     
  0.999760625169516       0.988900597835683       0.978040570501851     
  0.967180543168018       0.956320515834187       0.945460488500353     
  0.934600461166522     
  2.651247573289247E-002  2.386122815960322E-002  2.120998058631397E-002
  1.855873301302472E-002  1.590748543973548E-002  1.325623786644623E-002
  1.060499029315698E-002  7.953742719867740E-003  5.302495146578492E-003
  2.651247573289244E-003  0.000000000000000E+000  2.651247573289247E-002
  2.386122815960322E-002  2.120998058631397E-002  1.855873301302472E-002
  1.590748543973548E-002  1.325623786644623E-002  1.060499029315698E-002
  7.953742719867740E-003  5.302495146578492E-003  2.651247573289244E-003
  0.000000000000000E+000  2.651247573289247E-002  2.386122815960322E-002
  2.120998058631397E-002  1.855873301302472E-002  1.590748543973548E-002
  1.325623786644623E-002  1.060499029315698E-002  7.953742719867740E-003
  5.302495146578492E-003  2.651247573289244E-003  0.000000000000000E+000
  2.651247573289247E-002  2.386122815960322E-002  2.120998058631397E-002
  1.855873301302472E-002  1.590748543973548E-002  1.325623786644623E-002
  1.060499029315698E-002  7.953742719867740E-003  5.302495146578492E-003
  2.651247573289244E-003  0.000000000000000E+000  2.651247573289247E-002
  2.386122815960322E-002  2.120998058631397E-002  1.855873301302472E-002
  1.590748543973548E-002  1.325623786644623E-002  1.060499029315698E-002
  7.953742719867740E-003  5.302495146578492E-003  2.651247573289244E-003
  0.000000000000000E+000  2.651247573289247E-002  2.386122815960322E-002
  2.120998058631397E-002  1.855873301302472E-002  1.590748543973548E-002
  1.325623786644623E-002  1.060499029315698E-002  7.953742719867740E-003
  5.302495146578492E-003  2.651247573289244E-003  0.000000000000000E+000
  2.651247573289247E-002  2.386122815960322E-002  2.120998058631397E-002
  1.855873301302472E-002  1.590748543973548E-002  1.325623786644623E-002
  1.060499029315698E-002  7.953742719867740E-003  5.302495146578492E-003
  2.651247573289244E-003  0.000000000000000E+000  2.651247573289247E-002
  2.386122815960322E-002  2.120998058631397E-002  1.855873301302472E-002
  1.590748543973548E-002  1.325623786644623E-002  1.060499029315698E-002
  7.953742719867740E-003  5.302495146578492E-003  2.651247573289244E-003
  0.000000000000000E+000  2.651247573289247E-002  2.386122815960322E-002
  2.120998058631397E-002  1.855873301302472E-002  1.590748543973548E-002
  1.325623786644623E-002  1.060499029315698E-002  7.953742719867740E-003
  5.302495146578492E-003  2.651247573289244E-003  0.000000000000000E+000
  2.651247573289247E-002  2.386122815960322E-002  2.120998058631397E-002
  1.855873301302472E-002  1.590748543973548E-002  1.325623786644623E-002
  1.060499029315698E-002  7.953742719867740E-003  5.302495146578492E-003
  2.651247573289244E-003  0.000000000000000E+000  2.651247573289247E-002
  2.386122815960322E-002  2.120998058631397E-002  1.855873301302472E-002
  1.590748543973548E-002  1.325623786644623E-002  1.060499029315698E-002
  7.953742719867740E-003  5.302495146578492E-003  2.651247573289244E-003
  0.000000000000000E+000  2.651247573289247E-002  2.386122815960322E-002
  2.120998058631397E-002  1.855873301302472E-002  1.590748543973548E-002
  1.325623786644623E-002  1.060499029315698E-002  7.953742719867740E-003
  5.302495146578492E-003  2.651247573289244E-003  0.000000000000000E+000
  2.651247573289247E-002  2.386122815960322E-002  2.120998058631397E-002
  1.855873301302472E-002  1.590748543973548E-002  1.325623786644623E-002
  1.060499029315698E-002  7.953742719867740E-003  5.302495146578492E-003
  2.651247573289244E-003  0.000000000000000E+000  2.651247573289247E-002
  2.386122815960322E-002  2.120998058631397E-002  1.855873301302472E-002
  1.590748543973548E-002  1.325623786644623E-002  1.060499029315698E-002
  7.953742719867740E-003  5.302495146578492E-003  2.651247573289244E-003
  0.000000000000000E+000  2.651247573289247E-002  2.386122815960322E-002
  2.120998058631397E-002  1.855873301302472E-002  1.590748543973548E-002
  1.325623786644623E-002  1.060499029315698E-002  7.953742719867740E-003
  5.302495146578492E-003  2.651247573289244E-003  0.000000000000000E+000
  2.651247573289247E-002  2.386122815960322E-002  2.120998058631397E-002
  1.855873301302472E-002  1.590748543973548E-002  1.325623786644623E-002
  1.060499029315698E-002  7.953742719867740E-003  5.302495146578492E-003
  2.651247573289244E-003  0.000000000000000E+000  2.651247573289247E-002
  2.386122815960322E-002  2.120998058631397E-002  1.855873301302472E-002
  1.590748543973548E-002  1.325623786644623E-002  1.060499029315698E-002
  7.953742719867740E-003  5.302495146578492E-003  2.651247573289244E-003
  0.000000000000000E+000  2.651247573289247E-002  2.386122815960322E-002
  2.120998058631397E-002  1.855873301302472E-002  1.590748543973548E-002
  1.325623786644623E-002  1.060499029315698E-002  7.953742719867740E-003
  5.302495146578492E-003  2.651247573289244E-003  0.000000000000000E+000
  2.651247573289247E-002  2.386122815960322E-002  2.120998058631397E-002
  1.855873301302472E-002  1.590748543973548E-002  1.325623786644623E-002
  1.060499029315698E-002  7.953742719867740E-003  5.302495146578492E-003
  2.651247573289244E-003  0.000000000000000E+000  2.651247573289247E-002
  2.386122815960322E-002  2.120998058631397E-002  1.855873301302472E-002
  1.590748543973548E-002  1.325623786644623E-002  1.060499029315698E-002
  7.953742719867740E-003  5.302495146578492E-003  2.651247573289244E-003
  0.000000000000000E+000  2.651247573289247E-002  2.386122815960322E-002
  2.120998058631397E-002  1.855873301302472E-002  1.590748543973548E-002
  1.325623786644623E-002  1.060499029315698E-002  7.953742719867740E-003
  5.302495146578492E-003  2.651247573289244E-003  0.000000000000000E+000
  2.651247573289247E-002  2.386122815960322E-002  2.120998058631397E-002
  1.855873301302472E-002  1.590748543973548E-002  1.325623786644623E-002
  1.060499029315698E-002  7.953742719867740E-003  5.302495146578492E-003
  2.651247573289244E-003  0.000000000000000E+000  2.651247573289247E-002
  2.386122815960322E-002  2.120998058631397E-002  1.855873301302472E-002
  1.590748543973548E-002  1.325623786644623E-002  1.060499029315698E-002
  7.953742719867740E-003  5.302495146578492E-003  2.651247573289244E-003
  0.000000000000000E+000  2.651247573289247E-002  2.386122815960322E-002
  2.120998058631397E-002  1.855873301302472E-002  1.590748543973548E-002
  1.325623786644623E-002  1.060499029315698E-002  7.953742719867740E-003
  5.302495146578492E-003  2.651247573289244E-003  0.000000000000000E+000
  2.651247573289247E-002  2.386122815960322E-002  2.120998058631397E-002
  1.855873301302472E-002  1.590748543973548E-002  1.325623786644623E-002
  1.060499029315698E-002  7.953742719867740E-003  5.302495146578492E-003
  2.651247573289244E-003  0.000000000000000E+000  2.651247573289247E-002
  2.386122815960322E-002  2.120998058631397E-002  1.855873301302472E-002
  1.590748543973548E-002  1.325623786644623E-002  1.060499029315698E-002
  7.953742719867740E-003  5.302495146578492E-003  2.651247573289244E-003
  0.000000000000000E+000
  6.101240437381426E-003  2.415520878528837E-002  4.618410819502981E-002
  6.995392949927874E-002  9.254893072819941E-002  0.111911436170119     
  0.128923734341729       0.144138514499357       0.157865618120109     
  0.170553168830889       1.108273360469693E-002  3.942465495956235E-002
  7.456916386591332E-002  0.113057592771080       0.150240517515027     
  0.182801011352449       0.211847192848924       0.238008798288080     
  0.261713004855153       0.284100596717144       1.926931970952449E-002
  5.315059807804397E-002  9.482912568170088E-002  0.141266584310842     
  0.187405941444789       0.229657525628174       0.268605496351771     
  0.304287471364957       0.336509332785944       0.365687736692669     
  3.430399707090182E-002  7.261518403977524E-002  0.115218331079651     
  0.160554132140496       0.206128150453393       0.249537923703399     
  0.290364142385123       0.328136508695935       0.361975047767614     
  0.390932601709493       6.035135166162339E-002  0.107138487958251     
  0.152335161935216       0.196205912491422       0.237963021195177     
  0.276868624669064       0.312619039516408       0.345119233404341     
  0.374164788110016       0.398510714402959       9.981724114244180E-002
  0.161378371091502       0.214167806626175       0.261715777507913     
  0.304749930016320       0.343437746012281       0.377911858182906     
  0.408369650930946       0.434880185451830       0.456516071781640     
  0.152366748155448       0.235443472633877       0.301191301057514     
  0.357366913141070       0.406498045083660       0.449723517424236     
  0.487686838854317       0.520775345850103       0.549041390234898     
  0.571320047318292       0.216595412011854       0.327638145525301     
  0.411569518734168       0.480911899347610       0.540111961276382     
  0.591274432929101       0.635545020042715       0.673514800684735     
  0.705203177718964       0.729167974518630       0.291843680033446     
  0.436719547203839       0.543404560802898       0.629705733525139     
  0.702117560466691       0.763749463622319       0.816277605125543     
  0.860548633693498       0.896620648114911       0.922878375701137     
  0.377396945338665       0.561200842555968       0.694360491137983     
  0.800559388855115       0.888541740000660       0.962528599168305     
   1.02479471458254        1.07649249586166        1.11778679676689     
   1.14692797798582       0.471970936132746       0.698990737401420     
  0.861639915063236       0.990043273410447        1.09540309670186     
   1.18317048124457        1.25630617327381        1.31634088566416     
   1.36358152591041        1.39612870907260       0.574189138041256     
  0.847961087492557        1.04250797541741        1.19490731758997     
   1.31902110316286        1.42163317840773        1.50645441412502     
   1.57544562824648        1.62909702582519        1.66537168696594     
  0.682722129656550        1.00604952156469        1.23432389866334     
   1.41201861950242        1.55582614352205        1.67395510971203     
   1.77092556060676        1.84917374849023        1.90941608006129     
   1.94951202469798       0.796325878347859        1.17132455794041     
   1.43459435376095        1.63838011385990        1.80236139989060     
   1.93626202058622        2.04547741941453        2.13296298934535     
   2.19970360154857        2.24351618937453       0.914094633867656     
   1.34235393064579        1.64142716342582        1.87165053190924     
   2.05583788790725        2.20532614258088        2.32646263903252     
   2.42279102042108        2.49562468124904        2.54282267517560     
   1.03705776246056        1.52040146002565        1.85600701927622     
   2.11273109059798        2.31673503149662        2.48112182813164     
   2.61332089806659        2.71758211205996        2.79566609289076     
   2.84561790761559        1.17394255505744        1.71687582481082     
   2.09061369730354        2.37392281511921        2.59700045470364     
   2.77510934945440        2.91699656152367        3.02778502953205     
   3.10983636829437        3.16158008439361        1.35742747784289     
   1.97164709480615        2.38662864164350        2.69685435113027     
   2.93863562333845        3.12999716142355        3.28118127264932     
   3.39827593300015        3.48428758333944        3.53796268387795     
   1.59943750069947        2.29996685909093        2.76030864144557     
   3.09738823029522        3.35610524114122        3.55831208673643     
   3.71637553757891        3.83771437527213        3.92617403087220     
   3.98097903003416        1.76258005025538        2.51772969474677     
   3.00300958494671        3.35036534805392        3.61119184292376     
   3.81118929430835        3.96496662302741        4.08119985535212     
   4.16451925067687        4.21506616871286        1.79861417063476     
   2.54944566428302        3.01999530284589        3.34940067923988     
   3.59219960600885        3.77555539653351        3.91463895249194     
   4.01820263058407        4.09084149949128        4.13335825146842     
   1.69461193178417        2.37286419924136        2.78380620603571     
   3.06466539909604        3.26837321346678        3.42053373457368     
   3.53487585072594        3.61892660999075        3.67632253617450     
   3.70767433690434        1.46883736495208        2.01150365301610     
   2.32796424547387        2.54107815524853        2.69473674765058     
   2.80919515539206        2.89505320287415        2.95806429704540     
   3.00112262578308        3.02503097142362        1.12408335594656     
   1.49095917314808        1.70206146027903        1.84457662714170     
   1.94770707034446        2.02477882790977        2.08282091522566     
   2.12580638373873        2.15630053512994        2.17801173694599     
  0.683504164994087       0.888962105094033        1.00831212467528     
   1.08934704324888        1.14819731593385        1.19228328349335     
   1.22554006330161        1.25017185160730        1.26737707055689     
   1.27748297932879     
  0.000000000000000E+000  0.000000000000000E+000  0.000000000000000E+000
  0.000000000000000E+000  0.000000000000000E+000  0.000000000000000E+000
  0.000000000000000E+000  0.000000000000000E+000  0.000000000000000E+000
  0.000000000000000E+000  0.000000000000000E+000  0.000000000000000E+000
  0.000000000000000E+000  0.000000000000000E+000  0.000000000000000E+000
  0.000000000000000E+000  0.000000000000000E+000  0.000000000000000E+000
  0.000000000000000E+000  0.000000000000000E+000  0.000000000000000E+000
  0.000000000000000E+000  0.000000000000000E+000  0.000000000000000E+000
  0.000000000000000E+000  0.000000000000000E+000  0.000000000000000E+000
  0.000000000000000E+000  0.000000000000000E+000  0.000000000000000E+000
  0.000000000000000E+000  0.000000000000000E+000  0.000000000000000E+000
  0.000000000000000E+000  0.000000000000000E+000  0.000000000000000E+000
  0.000000000000000E+000  0.000000000000000E+000  0.000000000000000E+000
  0.000000000000000E+000  0.000000000000000E+000  0.000000000000000E+000
  0.000000000000000E+000  0.000000000000000E+000  0.000000000000000E+000
  0.000000000000000E+000  0.000000000000000E+000  0.000000000000000E+000
  0.000000000000000E+000  0.000000000000000E+000  0.000000000000000E+000
  0.000000000000000E+000  0.000000000000000E+000  0.000000000000000E+000
  0.000000000000000E+000  0.000000000000000E+000  0.000000000000000E+000
  0.000000000000000E+000  0.000000000000000E+000  0.000000000000000E+000
  0.000000000000000E+000  0.000000000000000E+000  0.000000000000000E+000
  0.000000000000000E+000  0.000000000000000E+000  0.000000000000000E+000
  0.000000000000000E+000  0.000000000000000E+000  0.000000000000000E+000
  0.000000000000000E+000  0.000000000000000E+000  0.000000000000000E+000
  0.000000000000000E+000  0.000000000000000E+000  0.000000000000000E+000
  0.000000000000000E+000  0.000000000000000E+000  0.000000000000000E+000
  0.000000000000000E+000  0.000000000000000E+000  0.000000000000000E+000
  0.000000000000000E+000  0.000000000000000E+000  0.000000000000000E+000
  0.000000000000000E+000  0.000000000000000E+000  0.000000000000000E+000
  0.000000000000000E+000  0.000000000000000E+000  0.000000000000000E+000
  0.000000000000000E+000  0.000000000000000E+000  0.000000000000000E+000
  0.000000000000000E+000  0.000000000000000E+000  0.000000000000000E+000
  0.000000000000000E+000  0.000000000000000E+000  0.000000000000000E+000
  0.000000000000000E+000  0.000000000000000E+000  0.000000000000000E+000
  0.000000000000000E+000  0.000000000000000E+000  0.000000000000000E+000
  0.000000000000000E+000  0.000000000000000E+000  0.000000000000000E+000
  0.000000000000000E+000  0.000000000000000E+000  0.000000000000000E+000
  0.000000000000000E+000  0.000000000000000E+000  0.000000000000000E+000
  0.000000000000000E+000  0.000000000000000E+000  0.000000000000000E+000