 Title = "Wing and Wake"
 VARIABLES = "X" "Y" "Z" "GAM" "skew"
 Zone I=   11 J=   26 K=1  T="Blade"
 DATAPACKING=BLOCK
 VARLOCATION=([4]=CELLCENTERED,[5]=CELLCENTERED)
  0.111494094216449       9.378329704915479E-002  7.607249988186085E-002
  5.836170271456721E-002  4.065090554727360E-002  2.294010837997991E-002
  5.229311212686064E-003 -1.248148595460782E-002 -3.019228312190153E-002
 -4.790308028919488E-002 -6.561387745648882E-002  0.110200942031238     
  9.249014486394498E-002  7.477934769665097E-002  5.706855052935750E-002
  3.935775336206357E-002  2.164695619477003E-002  3.936159027476161E-003
 -1.377463813981771E-002 -3.148543530711147E-002 -4.919623247440491E-002
 -6.690702964169885E-002  0.106341879258061       8.863108209076756E-002
  7.092028492347363E-002  5.320948775617987E-002  3.549869058888615E-002
  1.778789342159237E-002  7.709625429885172E-005 -1.763370091299493E-002
 -3.534449808028872E-002 -5.305529524758226E-002 -7.076609241487603E-002
  9.997776562214167E-002  8.226696845484756E-002  6.455617128755387E-002
  4.684537412026010E-002  2.913457695296661E-002  1.142377978567282E-002
 -6.287017381620821E-003 -2.399781454891428E-002 -4.170861171620811E-002
 -5.941940888350172E-002 -7.713020605079528E-002  9.120896699725539E-002
  7.349816982996175E-002  5.578737266266792E-002  3.807657549537442E-002
  2.036577832808095E-002  2.654981160786577E-003 -1.505581600650660E-002
 -3.276661317380056E-002 -5.047741034109401E-002 -6.818820750838787E-002
 -8.589900467568153E-002  8.017377257594413E-002  6.246297540865060E-002
  4.475217824135674E-002  2.704138107406299E-002  9.330583906769326E-003
 -8.380213260524443E-003 -2.609101042781834E-002 -4.380180759511196E-002
 -6.151260476240512E-002 -7.922340192969925E-002 -9.693419909699363E-002
  6.704621396633621E-002  4.933541679904266E-002  3.162461963174969E-002
  1.391382246445565E-002 -3.796974702838382E-003 -2.150777187013166E-002
 -3.921856903742515E-002 -5.692936620471959E-002 -7.464016337201372E-002
 -9.235096053930675E-002 -0.110061757706600       5.203332060973018E-002
  3.432252344243677E-002  1.661172627514231E-002 -1.099070892150959E-003
 -1.880986805944477E-002 -3.652066522673822E-002 -5.423146239403245E-002
 -7.194225956132602E-002 -8.965305672861985E-002 -0.107363853895914     
 -0.125074651063207       3.537185480262603E-002  1.766105763533259E-002
 -4.973953196145268E-005 -1.776053669925450E-002 -3.547133386654892E-002
 -5.318213103384242E-002 -7.089292820113580E-002 -8.860372536843011E-002
 -0.106314522535723      -0.124025319703018      -0.141736116870311     
  1.732457781387923E-002 -3.862193534136946E-004 -1.809701652070764E-002
 -3.580781368800097E-002 -5.351861085529495E-002 -7.122940802258888E-002
 -8.894020518988263E-002 -0.106651002357176      -0.124361799524470     
 -0.142072596691763      -0.159783393859057      -1.823894017475325E-003
 -1.953469118476928E-002 -3.724548835206269E-002 -5.495628551935656E-002
 -7.266708268665059E-002 -9.037787985394345E-002 -0.108088677021238     
 -0.125799474188532      -0.143510271355826      -0.161221068523119     
 -0.178931865690413      -2.177157785191602E-002 -3.948237501921038E-002
 -5.719317218650469E-002 -7.490396935379695E-002 -9.261476652109217E-002
 -0.110325563688385      -0.128036360855679      -0.145747158022972     
 -0.163457955190266      -0.181168752357560      -0.198879549524853     
 -4.220388679920620E-002 -5.991468396649915E-002 -7.762548113379390E-002
 -9.533627830108705E-002 -0.113047075468380      -0.130757872635674     
 -0.148468669802969      -0.166179466970262      -0.183890264137555     
 -0.201601061304849      -0.219311858472143      -6.279859114157589E-002
 -8.050938830886903E-002 -9.822018547616244E-002 -0.115930982643456     
 -0.133641779810750      -0.151352576978044      -0.169063374145337     
 -0.186774171312630      -0.204484968479924      -0.222195765647219     
 -0.239906562814512      -8.323090008886373E-002 -0.100941697256158     
 -0.118652494423451      -0.136363291590746      -0.154074088758039     
 -0.171784885925332      -0.189495683092627      -0.207206480259919     
 -0.224917277427214      -0.242628074594508      -0.260338871761802     
 -0.103178583923305      -0.120889381090599      -0.138600178257892     
 -0.156310975425187      -0.174021772592481      -0.191732569759774     
 -0.209443366927067      -0.227154164094362      -0.244864961261654     
 -0.262575758428949      -0.280286555596243      -0.122327055754662     
 -0.140037852921954      -0.157748650089249      -0.175459447256542     
 -0.193170244423836      -0.210881041591128      -0.228591838758423     
 -0.246302635925716      -0.264013433093010      -0.281724230260304     
 -0.299435027427598      -0.140374332743406      -0.158085129910701     
 -0.175795927077994      -0.193506724245289      -0.211217521412582     
 -0.228928318579876      -0.246639115747170      -0.264349912914463     
 -0.282060710081757      -0.299771507249051      -0.317482304416343     
 -0.157035798550512      -0.174746595717804      -0.192457392885099     
 -0.210168190052393      -0.227878987219685      -0.245589784386979     
 -0.263300581554273      -0.281011378721567      -0.298722175888861     
 -0.316432973056154      -0.334143770223447      -0.172048691907117     
 -0.189759489074411      -0.207470286241704      -0.225181083408998     
 -0.242891880576292      -0.260602677743586      -0.278313474910880     
 -0.296024272078174      -0.313735069245468      -0.331445866412759     
 -0.349156663580053      -0.185176250516726      -0.202887047684019     
 -0.220597844851310      -0.238308642018606      -0.256019439185900     
 -0.273730236353194      -0.291441033520488      -0.309151830687780     
 -0.326862627855074      -0.344573425022369      -0.362284222189661     
 -0.196211444938037      -0.213922242105330      -0.231633039272625     
 -0.249343836439918      -0.267054633607211      -0.284765430774505     
 -0.302476227941798      -0.320187025109092      -0.337897822276386     
 -0.355608619443679      -0.373319416610976      -0.204980243562921     
 -0.222691040730218      -0.240401837897511      -0.258112635064802     
 -0.275823432232097      -0.293534229399391      -0.311245026566684     
 -0.328955823733978      -0.346666620901272      -0.364377418068568     
 -0.382088215235859      -0.211344357198842      -0.229055154366134     
 -0.246765951533429      -0.264476748700723      -0.282187545868017     
 -0.299898343035311      -0.317609140202603      -0.335319937369898     
 -0.353030734537193      -0.370741531704485      -0.388452328871780     
 -0.215203419972020      -0.232914217139313      -0.250625014306605     
 -0.268335811473901      -0.286046608641197      -0.303757405808487     
 -0.321468202975781      -0.339179000143074      -0.356889797310369     
 -0.374600594477663      -0.392311391644956      -0.216496572157232     
 -0.234207369324522      -0.251918166491816      -0.269628963659111     
 -0.287339760826405      -0.305050557993696      -0.322761355160992     
 -0.340472152328286      -0.358182949495579      -0.375893746662874     
 -0.393604543830168     
 -0.243846618055235      -0.237350384530791      -0.230854151006347     
 -0.224357917481904      -0.217861683957461      -0.211365450433017     
 -0.204869216908573      -0.198372983384130      -0.191876749859687     
 -0.185380516335243      -0.178884282810800      -0.247372161891139     
 -0.240875928366696      -0.234379694842252      -0.227883461317808     
 -0.221387227793365      -0.214890994268922      -0.208394760744478     
 -0.201898527220035      -0.195402293695591      -0.188906060171148     
 -0.182409826646704      -0.257893193466501      -0.251396959942058     
 -0.244900726417614      -0.238404492893171      -0.231908259368728     
 -0.225412025844284      -0.218915792319840      -0.212419558795397     
 -0.205923325270954      -0.199427091746510      -0.192930858222067     
 -0.275243789828420      -0.268747556303976      -0.262251322779533     
 -0.255755089255089      -0.249258855730646      -0.242762622206202     
 -0.236266388681759      -0.229770155157316      -0.223273921632872     
 -0.216777688108428      -0.210281454583985      -0.299150321707522     
 -0.292654088183078      -0.286157854658635      -0.279661621134191     
 -0.273165387609748      -0.266669154085304      -0.260172920560861     
 -0.253676687036418      -0.247180453511974      -0.240684219987531     
 -0.234187986463087      -0.329235768815004      -0.322739535290561     
 -0.316243301766117      -0.309747068241674      -0.303250834717231     
 -0.296754601192788      -0.290258367668343      -0.283762134143901     
 -0.277265900619456      -0.270769667095013      -0.264273433570570     
 -0.365025665677808      -0.358529432153365      -0.352033198628921     
 -0.345536965104479      -0.339040731580034      -0.332544498055591     
 -0.326048264531147      -0.319552031006704      -0.313055797482261     
 -0.306559563957817      -0.300063330433373      -0.405955584242558     
 -0.399459350718115      -0.392963117193672      -0.386466883669227     
 -0.379970650144785      -0.373474416620342      -0.366978183095897     
 -0.360481949571454      -0.353985716047010      -0.347489482522568     
 -0.340993248998125      -0.451380035243140      -0.444883801718697     
 -0.438387568194253      -0.431891334669810      -0.425395101145366     
 -0.418898867620923      -0.412402634096480      -0.405906400572037     
 -0.399410167047592      -0.392913933523149      -0.386417699998706     
 -0.500582647952023      -0.494086414427579      -0.487590180903136     
 -0.481093947378692      -0.474597713854249      -0.468101480329806     
 -0.461605246805362      -0.455109013280919      -0.448612779756475     
 -0.442116546232032      -0.435620312707589      -0.552787467774573     
 -0.546291234250130      -0.539795000725685      -0.533298767201242     
 -0.526802533676798      -0.520306300152355      -0.513810066627912     
 -0.507313833103469      -0.500817599579026      -0.494321366054581     
 -0.487825132530137      -0.607171193516538      -0.600674959992093     
 -0.594178726467650      -0.587682492943207      -0.581186259418764     
 -0.574690025894321      -0.568193792369875      -0.561697558845433     
 -0.555201325320990      -0.548705091796546      -0.542208858272103     
 -0.662876161335705      -0.656379927811263      -0.649883694286818     
 -0.643387460762377      -0.636891227237932      -0.630394993713488     
 -0.623898760189044      -0.617402526664601      -0.610906293140158     
 -0.604410059615715      -0.597913826091271      -0.719023870613034     
 -0.712527637088590      -0.706031403564146      -0.699535170039702     
 -0.693038936515259      -0.686542702990817      -0.680046469466371     
 -0.673550235941929      -0.667054002417485      -0.660557768893042     
 -0.654061535368599      -0.774728838432201      -0.768232604907758     
 -0.761736371383315      -0.755240137858872      -0.748743904334429     
 -0.742247670809985      -0.735751437285541      -0.729255203761096     
 -0.722758970236654      -0.716262736712212      -0.709766503187768     
 -0.829112564174165      -0.822616330649723      -0.816120097125279     
 -0.809623863600837      -0.803127630076394      -0.796631396551949     
 -0.790135163027506      -0.783638929503063      -0.777142695978617     
 -0.770646462454175      -0.764150228929733      -0.881317383996716     
 -0.874821150472270      -0.868324916947829      -0.861828683423386     
 -0.855332449898943      -0.848836216374497      -0.842339982850054     
 -0.835843749325612      -0.829347515801167      -0.822851282276726     
 -0.816355048752282      -0.930519996705598      -0.924023763181154     
 -0.917527529656710      -0.911031296132269      -0.904535062607824     
 -0.898038829083381      -0.891542595558938      -0.885046362034495     
 -0.878550128510050      -0.872053894985607      -0.865557661461163     
 -0.975944447706180      -0.969448214181737      -0.962951980657292     
 -0.956455747132850      -0.949959513608407      -0.943463280083962     
 -0.936967046559518      -0.930470813035077      -0.923974579510634     
 -0.917478345986189      -0.910982112461745       -1.01687436627093     
  -1.01037813274649       -1.00388189922204      -0.997385665697600     
 -0.990889432173156      -0.984393198648712      -0.977896965124270     
 -0.971400731599826      -0.964904498075385      -0.958408264550939     
 -0.951912031026496       -1.05266426313373       -1.04616802960929     
  -1.03967179608485       -1.03317556256040       -1.02667932903596     
  -1.02018309551152       -1.01368686198708       -1.00719062846263     
  -1.00069439493819      -0.994198161413743      -0.987701927889298     
  -1.08274971024122       -1.07625347671677       -1.06975724319233     
  -1.06326100966789       -1.05676477614344       -1.05026854261900     
  -1.04377230909455       -1.03727607557011       -1.03077984204567     
  -1.02428360852123       -1.01778737499678       -1.10665624212032     
  -1.10016000859588       -1.09366377507143       -1.08716754154699     
  -1.08067130802255       -1.07417507449810       -1.06767884097366     
  -1.06118260744921       -1.05468637392477       -1.04819014040033     
  -1.04169390687588       -1.12400683848224       -1.11751060495779     
  -1.11101437143335       -1.10451813790891       -1.09802190438447     
  -1.09152567086002       -1.08502943733558       -1.07853320381113     
  -1.07203697028669       -1.06554073676225       -1.05904450323780     
  -1.13452787005760       -1.12803163653316       -1.12153540300871     
  -1.11503916948427       -1.10854293595983       -1.10204670243538     
  -1.09555046891094       -1.08905423538649       -1.08255800186205     
  -1.07606176833761       -1.06956553481316       -1.13805341389351     
  -1.13155718036906       -1.12506094684461       -1.11856471332017     
  -1.11206847979573       -1.10557224627129       -1.09907601274684     
  -1.09257977922240       -1.08608354569796       -1.07958731217351     
  -1.07309107864907     
  2.651247573289247E-002  2.386122815960322E-002  2.120998058631397E-002
  1.855873301302472E-002  1.590748543973548E-002  1.325623786644623E-002
  1.060499029315698E-002  7.953742719867740E-003  5.302495146578492E-003
  2.651247573289244E-003  0.000000000000000E+000  2.651247573289247E-002
  2.386122815960322E-002  2.120998058631397E-002  1.855873301302472E-002
  1.590748543973548E-002  1.325623786644623E-002  1.060499029315698E-002
  7.953742719867740E-003  5.302495146578492E-003  2.651247573289244E-003
  0.000000000000000E+000  2.651247573289247E-002  2.386122815960322E-002
  2.120998058631397E-002  1.855873301302472E-002  1.590748543973548E-002
  1.325623786644623E-002  1.060499029315698E-002  7.953742719867740E-003
  5.302495146578492E-003  2.651247573289244E-003  0.000000000000000E+000
  2.651247573289247E-002  2.386122815960322E-002  2.120998058631397E-002
  1.855873301302472E-002  1.590748543973548E-002  1.325623786644623E-002
  1.060499029315698E-002  7.953742719867740E-003  5.302495146578492E-003
  2.651247573289244E-003  0.000000000000000E+000  2.651247573289247E-002
  2.386122815960322E-002  2.120998058631397E-002  1.855873301302472E-002
  1.590748543973548E-002  1.325623786644623E-002  1.060499029315698E-002
  7.953742719867740E-003  5.302495146578492E-003  2.651247573289244E-003
  0.000000000000000E+000  2.651247573289247E-002  2.386122815960322E-002
  2.120998058631397E-002  1.855873301302472E-002  1.590748543973548E-002
  1.325623786644623E-002  1.060499029315698E-002  7.953742719867740E-003
  5.302495146578492E-003  2.651247573289244E-003  0.000000000000000E+000
  2.651247573289247E-002  2.386122815960322E-002  2.120998058631397E-002
  1.855873301302472E-002  1.590748543973548E-002  1.325623786644623E-002
  1.060499029315698E-002  7.953742719867740E-003  5.302495146578492E-003
  2.651247573289244E-003  0.000000000000000E+000  2.651247573289247E-002
  2.386122815960322E-002  2.120998058631397E-002  1.855873301302472E-002
  1.590748543973548E-002  1.325623786644623E-002  1.060499029315698E-002
  7.953742719867740E-003  5.302495146578492E-003  2.651247573289244E-003
  0.000000000000000E+000  2.651247573289247E-002  2.386122815960322E-002
  2.120998058631397E-002  1.855873301302472E-002  1.590748543973548E-002
  1.325623786644623E-002  1.060499029315698E-002  7.953742719867740E-003
  5.302495146578492E-003  2.651247573289244E-003  0.000000000000000E+000
  2.651247573289247E-002  2.386122815960322E-002  2.120998058631397E-002
  1.855873301302472E-002  1.590748543973548E-002  1.325623786644623E-002
  1.060499029315698E-002  7.953742719867740E-003  5.302495146578492E-003
  2.651247573289244E-003  0.000000000000000E+000  2.651247573289247E-002
  2.386122815960322E-002  2.120998058631397E-002  1.855873301302472E-002
  1.590748543973548E-002  1.325623786644623E-002  1.060499029315698E-002
  7.953742719867740E-003  5.302495146578492E-003  2.651247573289244E-003
  0.000000000000000E+000  2.651247573289247E-002  2.386122815960322E-002
  2.120998058631397E-002  1.855873301302472E-002  1.590748543973548E-002
  1.325623786644623E-002  1.060499029315698E-002  7.953742719867740E-003
  5.302495146578492E-003  2.651247573289244E-003  0.000000000000000E+000
  2.651247573289247E-002  2.386122815960322E-002  2.120998058631397E-002
  1.855873301302472E-002  1.590748543973548E-002  1.325623786644623E-002
  1.060499029315698E-002  7.953742719867740E-003  5.302495146578492E-003
  2.651247573289244E-003  0.000000000000000E+000  2.651247573289247E-002
  2.386122815960322E-002  2.120998058631397E-002  1.855873301302472E-002
  1.590748543973548E-002  1.325623786644623E-002  1.060499029315698E-002
  7.953742719867740E-003  5.302495146578492E-003  2.651247573289244E-003
  0.000000000000000E+000  2.651247573289247E-002  2.386122815960322E-002
  2.120998058631397E-002  1.855873301302472E-002  1.590748543973548E-002
  1.325623786644623E-002  1.060499029315698E-002  7.953742719867740E-003
  5.302495146578492E-003  2.651247573289244E-003  0.000000000000000E+000
  2.651247573289247E-002  2.386122815960322E-002  2.120998058631397E-002
  1.855873301302472E-002  1.590748543973548E-002  1.325623786644623E-002
  1.060499029315698E-002  7.953742719867740E-003  5.302495146578492E-003
  2.651247573289244E-003  0.000000000000000E+000  2.651247573289247E-002
  2.386122815960322E-002  2.120998058631397E-002  1.855873301302472E-002
  1.590748543973548E-002  1.325623786644623E-002  1.060499029315698E-002
  7.953742719867740E-003  5.302495146578492E-003  2.651247573289244E-003
  0.000000000000000E+000  2.651247573289247E-002  2.386122815960322E-002
  2.120998058631397E-002  1.855873301302472E-002  1.590748543973548E-002
  1.325623786644623E-002  1.060499029315698E-002  7.953742719867740E-003
  5.302495146578492E-003  2.651247573289244E-003  0.000000000000000E+000
  2.651247573289247E-002  2.386122815960322E-002  2.120998058631397E-002
  1.855873301302472E-002  1.590748543973548E-002  1.325623786644623E-002
  1.060499029315698E-002  7.953742719867740E-003  5.302495146578492E-003
  2.651247573289244E-003  0.000000000000000E+000  2.651247573289247E-002
  2.386122815960322E-002  2.120998058631397E-002  1.855873301302472E-002
  1.590748543973548E-002  1.325623786644623E-002  1.060499029315698E-002
  7.953742719867740E-003  5.302495146578492E-003  2.651247573289244E-003
  0.000000000000000E+000  2.651247573289247E-002  2.386122815960322E-002
  2.120998058631397E-002  1.855873301302472E-002  1.590748543973548E-002
  1.325623786644623E-002  1.060499029315698E-002  7.953742719867740E-003
  5.302495146578492E-003  2.651247573289244E-003  0.000000000000000E+000
  2.651247573289247E-002  2.386122815960322E-002  2.120998058631397E-002
  1.855873301302472E-002  1.590748543973548E-002  1.325623786644623E-002
  1.060499029315698E-002  7.953742719867740E-003  5.302495146578492E-003
  2.651247573289244E-003  0.000000000000000E+000  2.651247573289247E-002
  2.386122815960322E-002  2.120998058631397E-002  1.855873301302472E-002
  1.590748543973548E-002  1.325623786644623E-002  1.060499029315698E-002
  7.953742719867740E-003  5.302495146578492E-003  2.651247573289244E-003
  0.000000000000000E+000  2.651247573289247E-002  2.386122815960322E-002
  2.120998058631397E-002  1.855873301302472E-002  1.590748543973548E-002
  1.325623786644623E-002  1.060499029315698E-002  7.953742719867740E-003
  5.302495146578492E-003  2.651247573289244E-003  0.000000000000000E+000
  2.651247573289247E-002  2.386122815960322E-002  2.120998058631397E-002
  1.855873301302472E-002  1.590748543973548E-002  1.325623786644623E-002
  1.060499029315698E-002  7.953742719867740E-003  5.302495146578492E-003
  2.651247573289244E-003  0.000000000000000E+000  2.651247573289247E-002
  2.386122815960322E-002  2.120998058631397E-002  1.855873301302472E-002
  1.590748543973548E-002  1.325623786644623E-002  1.060499029315698E-002
  7.953742719867740E-003  5.302495146578492E-003  2.651247573289244E-003
  0.000000000000000E+000
  4.016475840900247E-002  6.800766449625634E-002  9.148170273638162E-002
  0.107940994370211       0.120360780184250       0.128172579239298     
  0.128168204113231       0.122733415857269       0.114096002374825     
  0.102791384540402       6.342650108308458E-002  0.108238681351935     
  0.145327209504442       0.172066921049985       0.192282505464609     
  0.205340908037216       0.206048324286516       0.197980846587392     
  0.184569902812914       0.167300141403718       7.730315833693481E-002
  0.129854946571770       0.173226989247866       0.205073499731778     
  0.228789089479107       0.244696630491751       0.248555720049594     
  0.240964930919563       0.226002271889943       0.206746167291722     
  8.770375638994204E-002  0.139261272806545       0.179789817105269     
  0.210195030262144       0.232175782432301       0.247773677834218     
  0.254251696673801       0.249682815731638       0.237524871806123     
  0.221631489041738       0.101410806125347       0.156248421979604     
  0.196004895628550       0.224932862267084       0.245397106196604     
  0.258807210028403       0.265423815553981       0.265297674275615     
  0.259622549088497       0.250118091972337       0.122418048731044     
  0.186309134740953       0.232600968963168       0.267242311643304     
  0.292857567443738       0.311217155471094       0.323350007585565     
  0.329895481446195       0.331469121855277       0.328431141238527     
  0.159521813959359       0.240399771332786       0.299361749419667     
  0.345264271777703       0.381380507515545       0.409520729077299     
  0.430940018806009       0.446461724752690       0.456370001361169     
  0.460114198256104       0.214781075716732       0.321404771706587     
  0.398984871546792       0.460291032887920       0.510010344505101     
  0.550467392441923       0.582985930343400       0.608312819494733     
  0.626558311414764       0.636667985874545       0.285598345123763     
  0.425281279799189       0.526332404229359       0.606358041779319     
  0.671826543641392       0.725864290785412       0.770152074214480     
  0.805495380912970       0.831870577829065       0.847846434584589     
  0.369361329665512       0.547983261096051       0.676292681496567     
  0.777559446351199       0.860368933107097       0.928843719104574     
  0.985173363695038        1.03041581362152        1.06459843587216     
   1.08600993437025       0.463816412892670       0.686098483873988     
  0.844637430579585       0.969082916638507        1.07043570025625     
   1.15400930020631        1.22264149371739        1.27774332683830     
   1.31948400543705        1.34597396257737       0.566736046589279     
  0.836355378190963        1.02741527087398        1.17653956616556     
   1.29738977248685        1.39661463953537        1.47780905936850     
   1.54282216599048        1.59202435147001        1.62338006057839     
  0.676175036195935       0.995909078989176        1.22119543908623     
   1.39610357913717        1.53715250398898        1.65243499287820     
   1.74637520553631        1.82131324998395        1.87786750426139     
   1.91390750181121       0.790616009062246        1.16250253104666     
   1.42319790264554        1.62459083680116        1.78621589045658     
   1.91770398111060        2.02437029815726        2.10909177763483     
   2.17277176577525        2.21324108425140       0.909063529042885     
   1.33461353828706        1.63147333761594        1.85966321137776     
   2.04186688631659        2.18934429178691        2.30837889086873     
   2.40244934285089        2.47280289402186        2.51730582246120     
   1.03240081161974        1.51332129794130        1.84701662675705     
   2.10204318128857        2.30443846529161        2.46723230404027     
   2.59779777419857        2.70033056565870        2.77653323608627     
   2.82444363405105        1.16892469225619        1.70949815035714     
   2.08154308710226        2.36347137048493        2.58533526279697     
   2.76231624427044        2.90310537806847        3.01278010674138     
   3.09365642826033        3.14413887689889        1.35118283161667     
   1.96288556912501        2.37633186516727        2.68551171653540     
   2.92654337475697        3.11734628564798        3.26810575389104     
   3.38488362521464        3.47067629056941        3.52422643718089     
   1.59586620843712        2.29468035542844        2.75397261207578     
   3.09054751200213        3.34914820149532        3.55148121154519     
   3.70987066175816        3.83174713181967        3.92099532369938     
   3.97687454607894        1.76284650308702        2.51785624875494     
   3.00306228600438        3.35052161362770        3.61161877996564     
   3.81204469229526        3.96642923561575        4.08349326596399     
   4.16794098300024        4.21998462152168        1.80218166325688     
   2.55407516477798        3.02521201556001        3.35514473821797     
   3.59849532174581        3.78245851207100        3.92225654578542     
   4.02671153333178        4.10051289804914        4.14455537699699     
   1.69968444501653        2.37965738695154        2.79156272658153     
   3.07313993428341        3.27750097372157        3.43032636770329     
   3.54539787704358        3.63029865861623        3.68873889177157     
   3.72140236117658        1.47374391176954        2.01803933670502     
   2.33540051696580        2.54915697245473        2.70336797328747     
   2.81836502492752        2.90479619605454        2.96846027657531     
   3.01230691077162        3.03718992019783        1.12795820970732     
   1.49598976968825        1.70773102209360        1.85070280937366     
   1.95422171917130        2.03166731268756        2.09010276605291     
   2.13353306931647        2.16456370585155        2.18695404240132     
  0.685878041051570       0.891989255721466        1.01170611253884     
   1.09300517071356        1.15208038625167        1.19638235483828     
   1.22986560577259        1.25475229488011        1.27226208623235     
   1.28274186371160     
  0.000000000000000E+000  0.000000000000000E+000  0.000000000000000E+000
  0.000000000000000E+000  0.000000000000000E+000  0.000000000000000E+000
  0.000000000000000E+000  0.000000000000000E+000  0.000000000000000E+000
  0.000000000000000E+000  0.000000000000000E+000  0.000000000000000E+000
  0.000000000000000E+000  0.000000000000000E+000  0.000000000000000E+000
  0.000000000000000E+000  0.000000000000000E+000  0.000000000000000E+000
  0.000000000000000E+000  0.000000000000000E+000  0.000000000000000E+000
  0.000000000000000E+000  0.000000000000000E+000  0.000000000000000E+000
  0.000000000000000E+000  0.000000000000000E+000  0.000000000000000E+000
  0.000000000000000E+000  0.000000000000000E+000  0.000000000000000E+000
  0.000000000000000E+000  0.000000000000000E+000  0.000000000000000E+000
  0.000000000000000E+000  0.000000000000000E+000  0.000000000000000E+000
  0.000000000000000E+000  0.000000000000000E+000  0.000000000000000E+000
  0.000000000000000E+000  0.000000000000000E+000  0.000000000000000E+000
  0.000000000000000E+000  0.000000000000000E+000  0.000000000000000E+000
  0.000000000000000E+000  0.000000000000000E+000  0.000000000000000E+000
  0.000000000000000E+000  0.000000000000000E+000  0.000000000000000E+000
  0.000000000000000E+000  0.000000000000000E+000  0.000000000000000E+000
  0.000000000000000E+000  0.000000000000000E+000  0.000000000000000E+000
  0.000000000000000E+000  0.000000000000000E+000  0.000000000000000E+000
  0.000000000000000E+000  0.000000000000000E+000  0.000000000000000E+000
  0.000000000000000E+000  0.000000000000000E+000  0.000000000000000E+000
  0.000000000000000E+000  0.000000000000000E+000  0.000000000000000E+000
  0.000000000000000E+000  0.000000000000000E+000  0.000000000000000E+000
  0.000000000000000E+000  0.000000000000000E+000  0.000000000000000E+000
  0.000000000000000E+000  0.000000000000000E+000  0.000000000000000E+000
  0.000000000000000E+000  0.000000000000000E+000  0.000000000000000E+000
  0.000000000000000E+000  0.000000000000000E+000  0.000000000000000E+000
  0.000000000000000E+000  0.000000000000000E+000  0.000000000000000E+000
  0.000000000000000E+000  0.000000000000000E+000  0.000000000000000E+000
  0.000000000000000E+000  0.000000000000000E+000  0.000000000000000E+000
  0.000000000000000E+000  0.000000000000000E+000  0.000000000000000E+000
  0.000000000000000E+000  0.000000000000000E+000  0.000000000000000E+000
  0.000000000000000E+000  0.000000000000000E+000  0.000000000000000E+000
  0.000000000000000E+000  0.000000000000000E+000  0.000000000000000E+000
  0.000000000000000E+000  0.000000000000000E+000  0.000000000000000E+000
  0.000000000000000E+000  0.000000000000000E+000  0.000000000000000E+000
  0.000000000000000E+000  0.000000000000000E+000  0.000000000000000E+000
  0.000000000000000E+000  0.000000000000000E+000  0.000000000000000E+000