 Title = "Wing and Wake"
 VARIABLES = "X" "Y" "Z" "GAM" "skew"
 Zone I=   11 J=   26 K=1  T="Blade"
 DATAPACKING=BLOCK
 VARLOCATION=([4]=CELLCENTERED,[5]=CELLCENTERED)
 -0.155440483864325      -0.158669114422207      -0.161897744980088     
 -0.165126375537970      -0.168355006095852      -0.171583636653734     
 -0.174812267211615      -0.178040897769497      -0.181269528327378     
 -0.184498158885260      -0.187726789443142      -0.159140300387924     
 -0.162368930945805      -0.165597561503687      -0.168826192061568     
 -0.172054822619450      -0.175283453177332      -0.178512083735213     
 -0.181740714293095      -0.184969344850977      -0.188197975408858     
 -0.191426605966740      -0.170181401641976      -0.173410032199858     
 -0.176638662757740      -0.179867293315621      -0.183095923873503     
 -0.186324554431385      -0.189553184989266      -0.192781815547148     
 -0.196010446105030      -0.199239076662911      -0.202467707220793     
 -0.188389662864075      -0.191618293421957      -0.194846923979838     
 -0.198075554537720      -0.201304185095602      -0.204532815653483     
 -0.207761446211365      -0.210990076769247      -0.214218707327128     
 -0.217447337885010      -0.220675968442891      -0.213477928897658     
 -0.216706559455539      -0.219935190013421      -0.223163820571302     
 -0.226392451129184      -0.229621081687066      -0.232849712244947     
 -0.236078342802829      -0.239306973360710      -0.242535603918593     
 -0.245764234476474      -0.245050542800371      -0.248279173358253     
 -0.251507803916134      -0.254736434474016      -0.257965065031898     
 -0.261193695589779      -0.264422326147661      -0.267650956705543     
 -0.270879587263424      -0.274108217821305      -0.277336848379188     
 -0.282609585590405      -0.285838216148287      -0.289066846706168     
 -0.292295477264050      -0.295524107821931      -0.298752738379812     
 -0.301981368937694      -0.305209999495576      -0.308438630053458     
 -0.311667260611339      -0.314895891169221      -0.325562728726274     
 -0.328791359284156      -0.332019989842039      -0.335248620399919     
 -0.338477250957802      -0.341705881515683      -0.344934512073564     
 -0.348163142631446      -0.351391773189328      -0.354620403747210     
 -0.357849034305092      -0.373232575481765      -0.376461206039647     
 -0.379689836597528      -0.382918467155410      -0.386147097713291     
 -0.389375728271173      -0.392604358829054      -0.395832989386937     
 -0.399061619944817      -0.402290250502700      -0.405518881060581     
 -0.424867343896954      -0.428095974454835      -0.431324605012718     
 -0.434553235570599      -0.437781866128481      -0.441010496686363     
 -0.444239127244244      -0.447467757802126      -0.450696388360007     
 -0.453925018917889      -0.457153649475771      -0.479652722828821     
 -0.482881353386704      -0.486109983944584      -0.489338614502466     
 -0.492567245060347      -0.495795875618229      -0.499024506176110     
 -0.502253136733992      -0.505481767291875      -0.508710397849755     
 -0.511939028407637      -0.536724714124409      -0.539953344682289     
 -0.543181975240172      -0.546410605798053      -0.549639236355935     
 -0.552867866913818      -0.556096497471698      -0.559325128029580     
 -0.562553758587463      -0.565782389145344      -0.569011019703225     
 -0.595183258387832      -0.598411888945714      -0.601640519503595     
 -0.604869150061478      -0.608097780619358      -0.611326411177241     
 -0.614555041735123      -0.617783672293003      -0.621012302850885     
 -0.624240933408767      -0.627469563966649      -0.654106429454617     
 -0.657335060012498      -0.660563690570379      -0.663792321128261     
 -0.667020951686143      -0.670249582244025      -0.673478212801905     
 -0.676706843359787      -0.679935473917669      -0.683164104475550     
 -0.686392735033432      -0.712564973718039      -0.715793604275922     
 -0.719022234833803      -0.722250865391686      -0.725479495949567     
 -0.728708126507448      -0.731936757065330      -0.735165387623210     
 -0.738394018181094      -0.741622648738975      -0.744851279296857     
 -0.769636965013626      -0.772865595571509      -0.776094226129390     
 -0.779322856687273      -0.782551487245156      -0.785780117803036     
 -0.789008748360917      -0.792237378918799      -0.795466009476679     
 -0.798694640034563      -0.801923270592445      -0.824422343945495     
 -0.827650974503374      -0.830879605061258      -0.834108235619140     
 -0.837336866177021      -0.840565496734901      -0.843794127292783     
 -0.847022757850666      -0.850251388408547      -0.853480018966429     
 -0.856708649524312      -0.876057112360682      -0.879285742918564     
 -0.882514373476445      -0.885743004034330      -0.888971634592210     
 -0.892200265150092      -0.895428895707973      -0.898657526265855     
 -0.901886156823736      -0.905114787381618      -0.908343417939499     
 -0.923726959116174      -0.926955589674055      -0.930184220231936     
 -0.933412850789819      -0.936641481347699      -0.939870111905580     
 -0.943098742463462      -0.946327373021346      -0.949556003579228     
 -0.952784634137107      -0.956013264694989      -0.966680102252044     
 -0.969908732809925      -0.973137363367805      -0.976365993925688     
 -0.979594624483570      -0.982823255041451      -0.986051885599334     
 -0.989280516157215      -0.992509146715099      -0.995737777272977     
 -0.998966407830859       -1.00423914504208       -1.00746777559996     
  -1.01069640615784       -1.01392503671572       -1.01715366727360     
  -1.02038229783148       -1.02361092838937       -1.02683955894725     
  -1.03006818950513       -1.03329682006301       -1.03652545062089     
  -1.03581175894479       -1.03904038950267       -1.04226902006055     
  -1.04549765061844       -1.04872628117632       -1.05195491173420     
  -1.05518354229208       -1.05841217284996       -1.06164080340784     
  -1.06486943396572       -1.06809806452361       -1.06090002497837     
  -1.06412865553626       -1.06735728609414       -1.07058591665202     
  -1.07381454720990       -1.07704317776778       -1.08027180832566     
  -1.08350043888354       -1.08672906944143       -1.08995769999931     
  -1.09318633055719       -1.07910828620047       -1.08233691675835     
  -1.08556554731624       -1.08879417787412       -1.09202280843200     
  -1.09525143898988       -1.09848006954776       -1.10170870010564     
  -1.10493733066353       -1.10816596122141       -1.11139459177929     
  -1.09014938745453       -1.09337801801241       -1.09660664857029     
  -1.09983527912817       -1.10306390968605       -1.10629254024393     
  -1.10952117080181       -1.11274980135969       -1.11597843191758     
  -1.11920706247546       -1.12243569303334       -1.09384920397812     
  -1.09707783453601       -1.10030646509389       -1.10353509565177     
  -1.10676372620965       -1.10999235676753       -1.11322098732541     
  -1.11644961788329       -1.11967824844118       -1.12290687899906     
  -1.12613550955694     
 -0.218472795006945      -0.199886527737107      -0.181300260467269     
 -0.162713993197432      -0.144127725927594      -0.125541458657756     
 -0.106955191387918      -8.836892411808082E-002 -6.978265684824329E-002
 -5.119638957840604E-002 -3.261012230856838E-002 -0.219115492139898     
 -0.200529224870061      -0.181942957600223      -0.163356690330386     
 -0.144770423060548      -0.126184155790711      -0.107597888520873     
 -8.901162125103525E-002 -7.042535398119752E-002 -5.183908671136032E-002
 -3.325281944152241E-002 -0.221033447821045      -0.202447180551208     
 -0.183860913281370      -0.165274646011532      -0.146688378741695     
 -0.128102111471857      -0.109515844202020      -9.092957693218237E-002
 -7.234330966234463E-002 -5.375704239250712E-002 -3.517077512266958E-002
 -0.224196414743563      -0.205610147473725      -0.187023880203887     
 -0.168437612934049      -0.149851345664212      -0.131265078394374     
 -0.112678811124537      -9.409254385469969E-002 -7.550627658486174E-002
 -5.692000931502440E-002 -3.833374204518684E-002 -0.228554511029617     
 -0.209968243759779      -0.191381976489941      -0.172795709220104     
 -0.154209441950267      -0.135623174680428      -0.117036907410591     
 -9.845064014075348E-002 -7.986437287091597E-002 -6.127810560107862E-002
 -4.269183833124091E-002 -0.234039006897376      -0.215452739627539     
 -0.196866472357701      -0.178280205087863      -0.159693937818026     
 -0.141107670548188      -0.122521403278350      -0.103935136008513     
 -8.534886873867573E-002 -6.676260146883796E-002 -4.817633419900012E-002
 -0.240563408570727      -0.221977141300890      -0.203390874031053     
 -0.184804606761215      -0.166218339491377      -0.147632072221540     
 -0.129045804951703      -0.110459537681865      -9.187327041202685E-002
 -7.328700314218950E-002 -5.470073587235206E-002 -0.248024822337794     
 -0.229438555067957      -0.210852287798119      -0.192266020528281     
 -0.173679753258444      -0.155093485988606      -0.136507218718768     
 -0.117920951448931      -9.933468417909296E-002 -8.074841690925547E-002
 -6.216214963941837E-002 -0.256305577246235      -0.237719309976398     
 -0.219133042706560      -0.200546775436723      -0.181960508166885     
 -0.163374240897047      -0.144787973627210      -0.126201706357372     
 -0.107615439087535      -8.902917181769691E-002 -7.044290454785970E-002
 -0.265275080844462      -0.246688813574625      -0.228102546304788     
 -0.209516279034950      -0.190930011765112      -0.172343744495275     
 -0.153757477225437      -0.135171209955600      -0.116584942685761     
 -9.799867541592473E-002 -7.941240814608691E-002 -0.274791878702611     
 -0.256205611432773      -0.237619344162935      -0.219033076893098     
 -0.200446809623260      -0.181860542353423      -0.163274275083585     
 -0.144688007813747      -0.126101740543910      -0.107515473274072     
 -8.892920600423464E-002 -0.284705885233396      -0.266119617963557     
 -0.247533350693720      -0.228947083423883      -0.210360816154045     
 -0.191774548884208      -0.173188281614369      -0.154602014344533     
 -0.136015747074696      -0.117429479804857      -9.884321253502019E-002
 -0.294860750631487      -0.276274483361651      -0.257688216091812     
 -0.239101948821976      -0.220515681552137      -0.201929414282301     
 -0.183343147012462      -0.164756879742625      -0.146170612472787     
 -0.127584345202950      -0.108998077933112      -0.305096326603336     
 -0.286510059333499      -0.267923792063661      -0.249337524793823     
 -0.230751257523986      -0.212164990254149      -0.193578722984310     
 -0.174992455714474      -0.156406188444636      -0.137819921174798     
 -0.119233653904961      -0.315251192001429      -0.296664924731592     
 -0.278078657461754      -0.259492390191916      -0.240906122922079     
 -0.222319855652242      -0.203733588382403      -0.185147321112567     
 -0.166561053842728      -0.147974786572891      -0.129388519303053     
 -0.325165198532214      -0.306578931262376      -0.287992663992539     
 -0.269406396722701      -0.250820129452864      -0.232233862183026     
 -0.213647594913189      -0.195061327643351      -0.176475060373514     
 -0.157888793103675      -0.139302525833838      -0.334681996390361     
 -0.316095729120524      -0.297509461850686      -0.278923194580850     
 -0.260336927311012      -0.241750660041174      -0.223164392771336     
 -0.204578125501499      -0.185991858231661      -0.167405590961824     
 -0.148819323691987      -0.343651499988589      -0.325065232718751     
 -0.306478965448914      -0.287892698179076      -0.269306430909239     
 -0.250720163639401      -0.232133896369563      -0.213547629099726     
 -0.194961361829888      -0.176375094560050      -0.157788827290214     
 -0.351932254897030      -0.333345987627193      -0.314759720357354     
 -0.296173453087517      -0.277587185817681      -0.259000918547842     
 -0.240414651278004      -0.221828384008167      -0.203242116738330     
 -0.184655849468492      -0.166069582198655      -0.359393668664097     
 -0.340807401394258      -0.322221134124421      -0.303634866854584     
 -0.285048599584746      -0.266462332314908      -0.247876065045071     
 -0.229289797775233      -0.210703530505396      -0.192117263235559     
 -0.173530995965721      -0.365918070337447      -0.347331803067610     
 -0.328745535797773      -0.310159268527935      -0.291573001258097     
 -0.272986733988259      -0.254400466718423      -0.235814199448585     
 -0.217227932178748      -0.198641664908909      -0.180055397639072     
 -0.371402566205207      -0.352816298935371      -0.334230031665532     
 -0.315643764395694      -0.297057497125858      -0.278471229856019     
 -0.259884962586182      -0.241298695316345      -0.222712428046506     
 -0.204126160776670      -0.185539893506831      -0.375760662491264     
 -0.357174395221423      -0.338588127951586      -0.320001860681749     
 -0.301415593411911      -0.282829326142074      -0.264243058872236     
 -0.245656791602399      -0.227070524332561      -0.208484257062723     
 -0.189897989792885      -0.378923629413780      -0.360337362143943     
 -0.341751094874104      -0.323164827604266      -0.304578560334429     
 -0.285992293064590      -0.267406025794754      -0.248819758524916     
 -0.230233491255078      -0.211647223985240      -0.193060956715402     
 -0.380841585094925      -0.362255317825088      -0.343669050555251     
 -0.325082783285412      -0.306496516015574      -0.287910248745738     
 -0.269323981475900      -0.250737714206063      -0.232151446936226     
 -0.213565179666388      -0.194978912396550      -0.381484282227879     
 -0.362898014958044      -0.344311747688205      -0.325725480418368     
 -0.307139213148529      -0.288552945878692      -0.269966678608854     
 -0.251380411339016      -0.232794144069180      -0.214207876799341     
 -0.195621609529504     
  2.651247573289247E-002  2.386122815960322E-002  2.120998058631397E-002
  1.855873301302472E-002  1.590748543973548E-002  1.325623786644623E-002
  1.060499029315698E-002  7.953742719867740E-003  5.302495146578492E-003
  2.651247573289244E-003  0.000000000000000E+000  2.651247573289247E-002
  2.386122815960322E-002  2.120998058631397E-002  1.855873301302472E-002
  1.590748543973548E-002  1.325623786644623E-002  1.060499029315698E-002
  7.953742719867740E-003  5.302495146578492E-003  2.651247573289244E-003
  0.000000000000000E+000  2.651247573289247E-002  2.386122815960322E-002
  2.120998058631397E-002  1.855873301302472E-002  1.590748543973548E-002
  1.325623786644623E-002  1.060499029315698E-002  7.953742719867740E-003
  5.302495146578492E-003  2.651247573289244E-003  0.000000000000000E+000
  2.651247573289247E-002  2.386122815960322E-002  2.120998058631397E-002
  1.855873301302472E-002  1.590748543973548E-002  1.325623786644623E-002
  1.060499029315698E-002  7.953742719867740E-003  5.302495146578492E-003
  2.651247573289244E-003  0.000000000000000E+000  2.651247573289247E-002
  2.386122815960322E-002  2.120998058631397E-002  1.855873301302472E-002
  1.590748543973548E-002  1.325623786644623E-002  1.060499029315698E-002
  7.953742719867740E-003  5.302495146578492E-003  2.651247573289244E-003
  0.000000000000000E+000  2.651247573289247E-002  2.386122815960322E-002
  2.120998058631397E-002  1.855873301302472E-002  1.590748543973548E-002
  1.325623786644623E-002  1.060499029315698E-002  7.953742719867740E-003
  5.302495146578492E-003  2.651247573289244E-003  0.000000000000000E+000
  2.651247573289247E-002  2.386122815960322E-002  2.120998058631397E-002
  1.855873301302472E-002  1.590748543973548E-002  1.325623786644623E-002
  1.060499029315698E-002  7.953742719867740E-003  5.302495146578492E-003
  2.651247573289244E-003  0.000000000000000E+000  2.651247573289247E-002
  2.386122815960322E-002  2.120998058631397E-002  1.855873301302472E-002
  1.590748543973548E-002  1.325623786644623E-002  1.060499029315698E-002
  7.953742719867740E-003  5.302495146578492E-003  2.651247573289244E-003
  0.000000000000000E+000  2.651247573289247E-002  2.386122815960322E-002
  2.120998058631397E-002  1.855873301302472E-002  1.590748543973548E-002
  1.325623786644623E-002  1.060499029315698E-002  7.953742719867740E-003
  5.302495146578492E-003  2.651247573289244E-003  0.000000000000000E+000
  2.651247573289247E-002  2.386122815960322E-002  2.120998058631397E-002
  1.855873301302472E-002  1.590748543973548E-002  1.325623786644623E-002
  1.060499029315698E-002  7.953742719867740E-003  5.302495146578492E-003
  2.651247573289244E-003  0.000000000000000E+000  2.651247573289247E-002
  2.386122815960322E-002  2.120998058631397E-002  1.855873301302472E-002
  1.590748543973548E-002  1.325623786644623E-002  1.060499029315698E-002
  7.953742719867740E-003  5.302495146578492E-003  2.651247573289244E-003
  0.000000000000000E+000  2.651247573289247E-002  2.386122815960322E-002
  2.120998058631397E-002  1.855873301302472E-002  1.590748543973548E-002
  1.325623786644623E-002  1.060499029315698E-002  7.953742719867740E-003
  5.302495146578492E-003  2.651247573289244E-003  0.000000000000000E+000
  2.651247573289247E-002  2.386122815960322E-002  2.120998058631397E-002
  1.855873301302472E-002  1.590748543973548E-002  1.325623786644623E-002
  1.060499029315698E-002  7.953742719867740E-003  5.302495146578492E-003
  2.651247573289244E-003  0.000000000000000E+000  2.651247573289247E-002
  2.386122815960322E-002  2.120998058631397E-002  1.855873301302472E-002
  1.590748543973548E-002  1.325623786644623E-002  1.060499029315698E-002
  7.953742719867740E-003  5.302495146578492E-003  2.651247573289244E-003
  0.000000000000000E+000  2.651247573289247E-002  2.386122815960322E-002
  2.120998058631397E-002  1.855873301302472E-002  1.590748543973548E-002
  1.325623786644623E-002  1.060499029315698E-002  7.953742719867740E-003
  5.302495146578492E-003  2.651247573289244E-003  0.000000000000000E+000
  2.651247573289247E-002  2.386122815960322E-002  2.120998058631397E-002
  1.855873301302472E-002  1.590748543973548E-002  1.325623786644623E-002
  1.060499029315698E-002  7.953742719867740E-003  5.302495146578492E-003
  2.651247573289244E-003  0.000000000000000E+000  2.651247573289247E-002
  2.386122815960322E-002  2.120998058631397E-002  1.855873301302472E-002
  1.590748543973548E-002  1.325623786644623E-002  1.060499029315698E-002
  7.953742719867740E-003  5.302495146578492E-003  2.651247573289244E-003
  0.000000000000000E+000  2.651247573289247E-002  2.386122815960322E-002
  2.120998058631397E-002  1.855873301302472E-002  1.590748543973548E-002
  1.325623786644623E-002  1.060499029315698E-002  7.953742719867740E-003
  5.302495146578492E-003  2.651247573289244E-003  0.000000000000000E+000
  2.651247573289247E-002  2.386122815960322E-002  2.120998058631397E-002
  1.855873301302472E-002  1.590748543973548E-002  1.325623786644623E-002
  1.060499029315698E-002  7.953742719867740E-003  5.302495146578492E-003
  2.651247573289244E-003  0.000000000000000E+000  2.651247573289247E-002
  2.386122815960322E-002  2.120998058631397E-002  1.855873301302472E-002
  1.590748543973548E-002  1.325623786644623E-002  1.060499029315698E-002
  7.953742719867740E-003  5.302495146578492E-003  2.651247573289244E-003
  0.000000000000000E+000  2.651247573289247E-002  2.386122815960322E-002
  2.120998058631397E-002  1.855873301302472E-002  1.590748543973548E-002
  1.325623786644623E-002  1.060499029315698E-002  7.953742719867740E-003
  5.302495146578492E-003  2.651247573289244E-003  0.000000000000000E+000
  2.651247573289247E-002  2.386122815960322E-002  2.120998058631397E-002
  1.855873301302472E-002  1.590748543973548E-002  1.325623786644623E-002
  1.060499029315698E-002  7.953742719867740E-003  5.302495146578492E-003
  2.651247573289244E-003  0.000000000000000E+000  2.651247573289247E-002
  2.386122815960322E-002  2.120998058631397E-002  1.855873301302472E-002
  1.590748543973548E-002  1.325623786644623E-002  1.060499029315698E-002
  7.953742719867740E-003  5.302495146578492E-003  2.651247573289244E-003
  0.000000000000000E+000  2.651247573289247E-002  2.386122815960322E-002
  2.120998058631397E-002  1.855873301302472E-002  1.590748543973548E-002
  1.325623786644623E-002  1.060499029315698E-002  7.953742719867740E-003
  5.302495146578492E-003  2.651247573289244E-003  0.000000000000000E+000
  2.651247573289247E-002  2.386122815960322E-002  2.120998058631397E-002
  1.855873301302472E-002  1.590748543973548E-002  1.325623786644623E-002
  1.060499029315698E-002  7.953742719867740E-003  5.302495146578492E-003
  2.651247573289244E-003  0.000000000000000E+000  2.651247573289247E-002
  2.386122815960322E-002  2.120998058631397E-002  1.855873301302472E-002
  1.590748543973548E-002  1.325623786644623E-002  1.060499029315698E-002
  7.953742719867740E-003  5.302495146578492E-003  2.651247573289244E-003
  0.000000000000000E+000
  2.050917143258432E-002  4.414668075293984E-002  7.206933321156991E-002
  0.102540637754476       0.133366455954812       0.162138782476411     
  0.187707779315105       0.210476321305040       0.230394698892216     
  0.246231054933758       3.529877465272595E-002  7.397977395236595E-002
  0.119339556919831       0.169269918366350       0.220639918106059     
  0.269396000569420       0.312988311983467       0.351736411008213     
  0.385402735146452       0.412647735810558       5.117045320521143E-002
  0.100415094600302       0.156335469556489       0.218488373877357     
  0.284321802536260       0.349143603875850       0.408653107621148     
  0.461989056060744       0.506936039083816       0.540513661543350     
  6.897828608827278E-002  0.124442941288586       0.182364919271862     
  0.245071191253500       0.311629491001196       0.377956296234213     
  0.441496592466347       0.500182885548418       0.547495026516836     
  0.579678431496802       9.267217073889898E-002  0.155318543076955     
  0.213373164866362       0.270248845248817       0.326736347958300     
  0.382355814085242       0.436014911970206       0.484405229087809     
  0.521109617546604       0.544409152503617       0.126147824139046     
  0.200824192338059       0.263563534784695       0.319707510985938     
  0.370651901775188       0.416647106074175       0.457230771200258     
  0.491179312694669       0.516667716847836       0.531482418748101     
  0.172679029726314       0.266256104668257       0.339847125386003     
  0.402204825520270       0.456038070515732       0.502387737961478     
  0.541568531656548       0.573333187531315       0.596857212305761     
  0.610207421168708       0.233716296319016       0.353659224442514     
  0.444148394577923       0.518435854983400       0.581077491260314     
  0.634075396233065       0.678352135688943       0.714091750648830     
  0.740620558808290       0.755857227577554       0.308063368755759     
  0.461115898930830       0.573682658244998       0.664316841657076     
  0.739643005374326       0.802688493446087       0.854909878282606     
  0.896812956402093       0.927976608353000       0.946402292428340     
  0.393183023381879       0.584649116499746       0.723116049370205     
  0.833066920566609       0.923430912402762       0.998417115906640     
   1.06016275223979        1.10956951726436        1.14643614889921     
   1.16874687980546       0.486590485739184       0.720497492093836     
  0.887764636854531        1.01931812850128        1.12656526483467     
   1.21497224683509        1.28741124852771        1.34523896122174     
   1.38848746649282        1.41505989401275       0.586930241198634     
  0.866586253480474        1.06497526563446        1.21990013700807     
   1.34541676034422        1.44833282338105        1.53229956742761     
   1.59914862386880        1.64916591520677        1.68017655063798     
  0.693200227217031        1.02128228400166        1.25257595982056     
   1.43216212792426        1.57690652959706        1.69504384500662     
   1.79105131973988        1.86726356222760        1.92423547474870     
   1.95973928857073       0.804368396042233        1.18295471053598     
   1.44843645729819        1.65352433675441        1.81803689135869     
   1.95172430283147        2.05994615548830        2.14557776115412     
   2.20947432357754        2.24939312240137       0.919629048266885     
   1.35031720706702        1.65083894980639        1.88184581359238     
   2.06623966790983        2.21537345476824        2.33556665042692     
   2.43029736691588        2.50077998402593        2.54483031156039     
   1.03997430059542        1.52457835719755        1.86089618717401     
   2.11793472746897        2.32188607824310        2.48584700835845     
   2.61721928035211        2.72020324876324        2.79648460654770     
   2.84407755301065        1.17379663053709        1.71672178681325     
   2.09042514388022        2.37360473806172        2.59640789710801     
   2.77405852734552        2.91527149937116        3.02513820475687     
   3.10598199277286        3.15621978594738        1.35306717878757     
   1.96580811203232        2.38002382485818        2.68972074721179     
   2.93100960248346        3.12184339584594        3.27244709336457     
   3.38891413143350        3.47427629484657        3.52734939897151     
   1.59409653621537        2.29243439088468        2.75154301503615     
   3.08791297067383        3.34615583058056        3.54799540854579     
   3.70578790158239        3.82698831259817        3.91551129407313     
   3.97068711688184        1.75945837883770        2.51319651449309     
   2.99763578798309        3.34447359083143        3.60496897316390     
   3.80477580530869        3.95850863119484        4.07488303506477     
   4.15860767037071        4.20993277135395        1.79809290258963     
   2.54840041599195        3.01857524656191        3.34776801533333     
   3.59046170609277        3.77380765534313        3.91300344999925     
   4.01685222877082        4.09002783265867        4.13342607270632     
   1.69578938652285        2.37421977418752        2.78518146431247     
   3.06607192632009        3.26986808668495        3.42219073246787     
   3.53678978579829        3.62122587084043        3.67918810581632     
   3.71134584077332        1.47046700800506        2.01352586016021     
   2.33014385988309        2.54336889158130        2.69715492139550     
   2.81178362888455        2.89787475078471        2.96120675760914     
   3.00471044952199        3.02922472181227        1.12550968842986     
   1.49271062306876        1.70395577074827        1.84657215303822     
   1.94980745415122        2.02700785500584        2.08521706133286     
   2.12842579434150        2.15922506662792        2.18135412038630     
  0.684402867457210       0.890049658136830        1.00948625624269     
   1.09058350124769        1.14949727386050        1.19365944956020     
   1.22701360588812        1.25177400380171        1.26915307358997     
   1.27949172006902     
  0.000000000000000E+000  0.000000000000000E+000  0.000000000000000E+000
  0.000000000000000E+000  0.000000000000000E+000  0.000000000000000E+000
  0.000000000000000E+000  0.000000000000000E+000  0.000000000000000E+000
  0.000000000000000E+000  0.000000000000000E+000  0.000000000000000E+000
  0.000000000000000E+000  0.000000000000000E+000  0.000000000000000E+000
  0.000000000000000E+000  0.000000000000000E+000  0.000000000000000E+000
  0.000000000000000E+000  0.000000000000000E+000  0.000000000000000E+000
  0.000000000000000E+000  0.000000000000000E+000  0.000000000000000E+000
  0.000000000000000E+000  0.000000000000000E+000  0.000000000000000E+000
  0.000000000000000E+000  0.000000000000000E+000  0.000000000000000E+000
  0.000000000000000E+000  0.000000000000000E+000  0.000000000000000E+000
  0.000000000000000E+000  0.000000000000000E+000  0.000000000000000E+000
  0.000000000000000E+000  0.000000000000000E+000  0.000000000000000E+000
  0.000000000000000E+000  0.000000000000000E+000  0.000000000000000E+000
  0.000000000000000E+000  0.000000000000000E+000  0.000000000000000E+000
  0.000000000000000E+000  0.000000000000000E+000  0.000000000000000E+000
  0.000000000000000E+000  0.000000000000000E+000  0.000000000000000E+000
  0.000000000000000E+000  0.000000000000000E+000  0.000000000000000E+000
  0.000000000000000E+000  0.000000000000000E+000  0.000000000000000E+000
  0.000000000000000E+000  0.000000000000000E+000  0.000000000000000E+000
  0.000000000000000E+000  0.000000000000000E+000  0.000000000000000E+000
  0.000000000000000E+000  0.000000000000000E+000  0.000000000000000E+000
  0.000000000000000E+000  0.000000000000000E+000  0.000000000000000E+000
  0.000000000000000E+000  0.000000000000000E+000  0.000000000000000E+000
  0.000000000000000E+000  0.000000000000000E+000  0.000000000000000E+000
  0.000000000000000E+000  0.000000000000000E+000  0.000000000000000E+000
  0.000000000000000E+000  0.000000000000000E+000  0.000000000000000E+000
  0.000000000000000E+000  0.000000000000000E+000  0.000000000000000E+000
  0.000000000000000E+000  0.000000000000000E+000  0.000000000000000E+000
  0.000000000000000E+000  0.000000000000000E+000  0.000000000000000E+000
  0.000000000000000E+000  0.000000000000000E+000  0.000000000000000E+000
  0.000000000000000E+000  0.000000000000000E+000  0.000000000000000E+000
  0.000000000000000E+000  0.000000000000000E+000  0.000000000000000E+000
  0.000000000000000E+000  0.000000000000000E+000  0.000000000000000E+000
  0.000000000000000E+000  0.000000000000000E+000  0.000000000000000E+000
  0.000000000000000E+000  0.000000000000000E+000  0.000000000000000E+000
  0.000000000000000E+000  0.000000000000000E+000  0.000000000000000E+000
  0.000000000000000E+000  0.000000000000000E+000  0.000000000000000E+000
  0.000000000000000E+000  0.000000000000000E+000  0.000000000000000E+000