 Title = "Wing and Wake"
 VARIABLES = "X" "Y" "Z" "GAM" "skew"
 Zone I=   11 J=   26 K=1  T="Blade"
 DATAPACKING=BLOCK
 VARLOCATION=([4]=CELLCENTERED,[5]=CELLCENTERED)
  4.452444277232323E-002  2.910087555594057E-002  1.367730833955781E-002
 -1.746258876824982E-003 -1.716982609320762E-002 -3.259339330959026E-002
 -4.801696052597289E-002 -6.344052774235578E-002 -7.886409495873845E-002
 -9.428766217512098E-002 -0.109711229391504       4.236219719974908E-002
  2.693862998336666E-002  1.151506276698390E-002 -3.908504449398822E-003
 -1.933207166578155E-002 -3.475563888216417E-002 -5.017920609854687E-002
 -6.560277331492970E-002 -8.102634053131229E-002 -9.644990774769505E-002
 -0.111873474964078       3.590956038637047E-002  2.048599316998766E-002
  5.062425953604883E-003 -1.036114126277771E-002 -2.578470847916044E-002
 -4.120827569554315E-002 -5.663184291192576E-002 -7.205541012830850E-002
 -8.747897734469114E-002 -0.102902544561074      -0.118326111777457     
  2.526829426935137E-002  9.844727052968641E-003 -5.578840163414247E-003
 -2.100240737979672E-002 -3.642597459617929E-002 -5.184954181256204E-002
 -6.727310902894472E-002 -8.269667624532730E-002 -9.812024346171010E-002
 -0.113543810678093      -0.128967377894475       1.060621797214215E-002
 -4.817349244240500E-003 -2.024091646062310E-002 -3.566448367700583E-002
 -5.108805089338851E-002 -6.651161810977126E-002 -8.193518532615383E-002
 -9.735875254253652E-002 -0.112782319758919      -0.128205886975302     
 -0.143629454191685      -7.845438803349963E-003 -2.326900601973277E-002
 -3.869257323611539E-002 -5.411614045249828E-002 -6.953970766888087E-002
 -8.496327488526366E-002 -0.100386842101646      -0.115810409318029     
 -0.131233976534412      -0.146657543750794      -0.162081110967177     
 -2.979568240729132E-002 -4.521924962367399E-002 -6.064281684005632E-002
 -7.606638405643897E-002 -9.148995127282188E-002 -0.106913518489204     
 -0.122337085705587      -0.137760652921970      -0.153184220138353     
 -0.168607787354735      -0.184031354571118      -5.489834438560610E-002
 -7.032191160198888E-002 -8.574547881837190E-002 -0.101169046034754     
 -0.116592613251137      -0.132016180467520      -0.147439747683903     
 -0.162863314900285      -0.178286882116668      -0.193710449333051     
 -0.209134016549433      -8.275754076329425E-002 -9.818110797967701E-002
 -0.113604675196060      -0.129028242412442      -0.144451809628826     
 -0.159875376845208      -0.175298944061590      -0.190722511277973     
 -0.206146078494355      -0.221569645710739      -0.236993212927121     
 -0.112933915371202      -0.128357482587585      -0.143781049803967     
 -0.159204617020350      -0.174628184236733      -0.190051751453115     
 -0.205475318669498      -0.220898885885881      -0.236322453102263     
 -0.251746020318646      -0.267169587535029      -0.144951568755270     
 -0.160375135971653      -0.175798703188035      -0.191222270404418     
 -0.206645837620801      -0.222069404837183      -0.237492972053566     
 -0.252916539269949      -0.268340106486331      -0.283763673702714     
 -0.299187240919097      -0.178305563395213      -0.193729130611595     
 -0.209152697827978      -0.224576265044360      -0.239999832260743     
 -0.255423399477126      -0.270846966693509      -0.286270533909892     
 -0.301694101126273      -0.317117668342657      -0.332541235559039     
 -0.212469886870848      -0.227893454087229      -0.243317021303613     
 -0.258740588519995      -0.274164155736378      -0.289587722952761     
 -0.305011290169143      -0.320434857385526      -0.335858424601908     
 -0.351281991818291      -0.366705559034674      -0.246905747392186     
 -0.262329314608569      -0.277752881824951      -0.293176449041333     
 -0.308600016257717      -0.324023583474099      -0.339447150690482     
 -0.354870717906863      -0.370294285123247      -0.385717852339630     
 -0.401141419556012      -0.281070070867820      -0.296493638084203     
 -0.311917205300586      -0.327340772516969      -0.342764339733350     
 -0.358187906949733      -0.373611474166116      -0.389035041382498     
 -0.404458608598882      -0.419882175815264      -0.435305743031647     
 -0.314424065507762      -0.329847632724146      -0.345271199940528     
 -0.360694767156911      -0.376118334373293      -0.391541901589676     
 -0.406965468806059      -0.422389036022441      -0.437812603238823     
 -0.453236170455207      -0.468659737671590      -0.346441718891831     
 -0.361865286108214      -0.377288853324596      -0.392712420540979     
 -0.408135987757362      -0.423559554973743      -0.438983122190127     
 -0.454406689406509      -0.469830256622892      -0.485253823839275     
 -0.500677391055658      -0.376618093499738      -0.392041660716121     
 -0.407465227932503      -0.422888795148887      -0.438312362365269     
 -0.453735929581652      -0.469159496798035      -0.484583064014417     
 -0.500006631230801      -0.515430198447183      -0.530853765663565     
 -0.404477289877427      -0.419900857093809      -0.435324424310192     
 -0.450747991526575      -0.466171558742957      -0.481595125959340     
 -0.497018693175723      -0.512442260392105      -0.527865827608488     
 -0.543289394824870      -0.558712962041253      -0.429579951855741     
 -0.445003519072124      -0.460427086288506      -0.475850653504889     
 -0.491274220721272      -0.506697787937655      -0.522121355154038     
 -0.537544922370420      -0.552968489586803      -0.568392056803185     
 -0.583815624019568      -0.451530195459681      -0.466953762676066     
 -0.482377329892447      -0.497800897108830      -0.513224464325213     
 -0.528648031541596      -0.544071598757979      -0.559495165974362     
 -0.574918733190744      -0.590342300407127      -0.605765867623509     
 -0.469981852235175      -0.485405419451558      -0.500828986667941     
 -0.516252553884323      -0.531676121100705      -0.547099688317088     
 -0.562523255533471      -0.577946822749854      -0.593370389966236     
 -0.608793957182619      -0.624217524399002      -0.484643928532384     
 -0.500067495748766      -0.515491062965150      -0.530914630181532     
 -0.546338197397915      -0.561761764614297      -0.577185331830680     
 -0.592608899047062      -0.608032466263446      -0.623456033479829     
 -0.638879600696211      -0.495285194649403      -0.510708761865785     
 -0.526132329082169      -0.541555896298551      -0.556979463514934     
 -0.572403030731316      -0.587826597947700      -0.603250165164082     
 -0.618673732380464      -0.634097299596847      -0.649520866813229     
 -0.501737831462782      -0.517161398679164      -0.532584965895547     
 -0.548008533111931      -0.563432100328313      -0.578855667544695     
 -0.594279234761078      -0.609702801977460      -0.625126369193843     
 -0.640549936410226      -0.655973503626608      -0.503900077035356     
 -0.519323644251738      -0.534747211468123      -0.550170778684503     
 -0.565594345900887      -0.581017913117269      -0.596441480333652     
 -0.611865047550035      -0.627288614766417      -0.642712181982801     
 -0.658135749199183     
 -0.264404387592068      -0.253542207303247      -0.242680027014426     
 -0.231817846725605      -0.220955666436784      -0.210093486147963     
 -0.199231305859142      -0.188369125570321      -0.177506945281500     
 -0.166644764992679      -0.155782584703858      -0.267474631230101     
 -0.256612450941280      -0.245750270652459      -0.234888090363638     
 -0.224025910074817      -0.213163729785996      -0.202301549497175     
 -0.191439369208354      -0.180577188919533      -0.169715008630712     
 -0.158852828341891      -0.276636942567953      -0.265774762279132     
 -0.254912581990311      -0.244050401701490      -0.233188221412669     
 -0.222326041123848      -0.211463860835027      -0.200601680546206     
 -0.189739500257385      -0.178877319968564      -0.168015139679743     
 -0.291746826482527      -0.280884646193705      -0.270022465904885     
 -0.259160285616063      -0.248298105327243      -0.237435925038422     
 -0.226573744749601      -0.215711564460780      -0.204849384171958     
 -0.193987203883138      -0.183125023594317      -0.312565991078283     
 -0.301703810789461      -0.290841630500640      -0.279979450211819     
 -0.269117269922998      -0.258255089634177      -0.247392909345356     
 -0.236530729056535      -0.225668548767714      -0.214806368478893     
 -0.203944188190072      -0.338766105692778      -0.327903925403957     
 -0.317041745115136      -0.306179564826316      -0.295317384537494     
 -0.284455204248673      -0.273593023959852      -0.262730843671031     
 -0.251868663382210      -0.241006483093389      -0.230144302804568     
 -0.369933978867355      -0.359071798578534      -0.348209618289713     
 -0.337347438000892      -0.326485257712071      -0.315623077423250     
 -0.304760897134428      -0.293898716845608      -0.283036536556787     
 -0.272174356267965      -0.261312175979144      -0.405578074623263     
 -0.394715894334442      -0.383853714045621      -0.372991533756800     
 -0.362129353467979      -0.351267173179158      -0.340404992890337     
 -0.329542812601516      -0.318680632312695      -0.307818452023875     
 -0.296956271735053      -0.445136264277682      -0.434274083988862     
 -0.423411903700041      -0.412549723411220      -0.401687543122398     
 -0.390825362833577      -0.379963182544756      -0.369101002255936     
 -0.358238821967114      -0.347376641678294      -0.336514461389472     
 -0.487984691548846      -0.477122511260024      -0.466260330971204     
 -0.455398150682382      -0.444535970393561      -0.433673790104740     
 -0.422811609815919      -0.411949429527098      -0.401087249238277     
 -0.390225068949456      -0.379362888660635      -0.533447611142276     
 -0.522585430853455      -0.511723250564634      -0.500861070275813     
 -0.489998889986992      -0.479136709698171      -0.468274529409350     
 -0.457412349120529      -0.446550168831708      -0.435687988542887     
 -0.424825808254066      -0.580808045657754      -0.569945865368932     
 -0.559083685080111      -0.548221504791290      -0.537359324502469     
 -0.526497144213649      -0.515634963924827      -0.504772783636007     
 -0.493910603347185      -0.483048423058365      -0.472186242769544     
 -0.629319092751218      -0.618456912462397      -0.607594732173575     
 -0.596732551884755      -0.585870371595933      -0.575008191307113     
 -0.564146011018292      -0.553283830729471      -0.542421650440649     
 -0.531559470151829      -0.520697289863008      -0.678215704230909     
 -0.667353523942088      -0.656491343653267      -0.645629163364445     
 -0.634766983075625      -0.623904802786804      -0.613042622497983     
 -0.602180442209161      -0.591318261920340      -0.580456081631519     
 -0.569593901342699      -0.726726751324373      -0.715864571035552     
 -0.705002390746731      -0.694140210457910      -0.683278030169089     
 -0.672415849880268      -0.661553669591446      -0.650691489302625     
 -0.639829309013805      -0.628967128724984      -0.618104948436163     
 -0.774087185839850      -0.763225005551029      -0.752362825262208     
 -0.741500644973387      -0.730638464684567      -0.719776284395745     
 -0.708914104106924      -0.698051923818104      -0.687189743529281     
 -0.676327563240462      -0.665465382951640      -0.819550105433281     
 -0.808687925144460      -0.797825744855639      -0.786963564566818     
 -0.776101384277997      -0.765239203989175      -0.754377023700354     
 -0.743514843411534      -0.732652663122712      -0.721790482833892     
 -0.710928302545071      -0.862398532704443      -0.851536352415622     
 -0.840674172126801      -0.829811991837981      -0.818949811549160     
 -0.808087631260339      -0.797225450971518      -0.786363270682697     
 -0.775501090393875      -0.764638910105054      -0.753776729816233     
 -0.901956722358863      -0.891094542070042      -0.880232361781221     
 -0.869370181492399      -0.858508001203579      -0.847645820914758     
 -0.836783640625937      -0.825921460337116      -0.815059280048296     
 -0.804197099759474      -0.793334919470653      -0.937600818114772     
 -0.926738637825951      -0.915876457537130      -0.905014277248308     
 -0.894152096959487      -0.883289916670666      -0.872427736381846     
 -0.861565556093024      -0.850703375804204      -0.839841195515383     
 -0.828979015226561      -0.968768691289347      -0.957906511000527     
 -0.947044330711705      -0.936182150422885      -0.925319970134063     
 -0.914457789845242      -0.903595609556423      -0.892733429267602     
 -0.881871248978780      -0.871009068689959      -0.860146888401138     
 -0.994968805903843      -0.984106625615024      -0.973244445326202     
 -0.962382265037381      -0.951520084748559      -0.940657904459739     
 -0.929795724170919      -0.918933543882097      -0.908071363593275     
 -0.897209183304455      -0.886347003015634       -1.01578797049960     
  -1.00492579021078      -0.994063609921958      -0.983201429633136     
 -0.972339249344316      -0.961477069055493      -0.950614888766672     
 -0.939752708477853      -0.928890528189031      -0.918028347900211     
 -0.907166167611389       -1.03089785441417       -1.02003567412535     
  -1.00917349383653      -0.998311313547711      -0.987449133258889     
 -0.976586952970067      -0.965724772681248      -0.954862592392427     
 -0.944000412103606      -0.933138231814784      -0.922276051525963     
  -1.04006016575202       -1.02919798546320       -1.01833580517438     
  -1.00747362488556      -0.996611444596742      -0.985749264307920     
 -0.974887084019099      -0.964024903730277      -0.953162723441457     
 -0.942300543152636      -0.931438362863814       -1.04313040939006     
  -1.03226822910124       -1.02140604881242       -1.01054386852360     
 -0.999681688234774      -0.988819507945953      -0.977957327657131     
 -0.967095147368311      -0.956232967079490      -0.945370786790669     
 -0.934508606501849     
  2.651247573289247E-002  2.386122815960322E-002  2.120998058631397E-002
  1.855873301302472E-002  1.590748543973548E-002  1.325623786644623E-002
  1.060499029315698E-002  7.953742719867740E-003  5.302495146578492E-003
  2.651247573289244E-003  0.000000000000000E+000  2.651247573289247E-002
  2.386122815960322E-002  2.120998058631397E-002  1.855873301302472E-002
  1.590748543973548E-002  1.325623786644623E-002  1.060499029315698E-002
  7.953742719867740E-003  5.302495146578492E-003  2.651247573289244E-003
  0.000000000000000E+000  2.651247573289247E-002  2.386122815960322E-002
  2.120998058631397E-002  1.855873301302472E-002  1.590748543973548E-002
  1.325623786644623E-002  1.060499029315698E-002  7.953742719867740E-003
  5.302495146578492E-003  2.651247573289244E-003  0.000000000000000E+000
  2.651247573289247E-002  2.386122815960322E-002  2.120998058631397E-002
  1.855873301302472E-002  1.590748543973548E-002  1.325623786644623E-002
  1.060499029315698E-002  7.953742719867740E-003  5.302495146578492E-003
  2.651247573289244E-003  0.000000000000000E+000  2.651247573289247E-002
  2.386122815960322E-002  2.120998058631397E-002  1.855873301302472E-002
  1.590748543973548E-002  1.325623786644623E-002  1.060499029315698E-002
  7.953742719867740E-003  5.302495146578492E-003  2.651247573289244E-003
  0.000000000000000E+000  2.651247573289247E-002  2.386122815960322E-002
  2.120998058631397E-002  1.855873301302472E-002  1.590748543973548E-002
  1.325623786644623E-002  1.060499029315698E-002  7.953742719867740E-003
  5.302495146578492E-003  2.651247573289244E-003  0.000000000000000E+000
  2.651247573289247E-002  2.386122815960322E-002  2.120998058631397E-002
  1.855873301302472E-002  1.590748543973548E-002  1.325623786644623E-002
  1.060499029315698E-002  7.953742719867740E-003  5.302495146578492E-003
  2.651247573289244E-003  0.000000000000000E+000  2.651247573289247E-002
  2.386122815960322E-002  2.120998058631397E-002  1.855873301302472E-002
  1.590748543973548E-002  1.325623786644623E-002  1.060499029315698E-002
  7.953742719867740E-003  5.302495146578492E-003  2.651247573289244E-003
  0.000000000000000E+000  2.651247573289247E-002  2.386122815960322E-002
  2.120998058631397E-002  1.855873301302472E-002  1.590748543973548E-002
  1.325623786644623E-002  1.060499029315698E-002  7.953742719867740E-003
  5.302495146578492E-003  2.651247573289244E-003  0.000000000000000E+000
  2.651247573289247E-002  2.386122815960322E-002  2.120998058631397E-002
  1.855873301302472E-002  1.590748543973548E-002  1.325623786644623E-002
  1.060499029315698E-002  7.953742719867740E-003  5.302495146578492E-003
  2.651247573289244E-003  0.000000000000000E+000  2.651247573289247E-002
  2.386122815960322E-002  2.120998058631397E-002  1.855873301302472E-002
  1.590748543973548E-002  1.325623786644623E-002  1.060499029315698E-002
  7.953742719867740E-003  5.302495146578492E-003  2.651247573289244E-003
  0.000000000000000E+000  2.651247573289247E-002  2.386122815960322E-002
  2.120998058631397E-002  1.855873301302472E-002  1.590748543973548E-002
  1.325623786644623E-002  1.060499029315698E-002  7.953742719867740E-003
  5.302495146578492E-003  2.651247573289244E-003  0.000000000000000E+000
  2.651247573289247E-002  2.386122815960322E-002  2.120998058631397E-002
  1.855873301302472E-002  1.590748543973548E-002  1.325623786644623E-002
  1.060499029315698E-002  7.953742719867740E-003  5.302495146578492E-003
  2.651247573289244E-003  0.000000000000000E+000  2.651247573289247E-002
  2.386122815960322E-002  2.120998058631397E-002  1.855873301302472E-002
  1.590748543973548E-002  1.325623786644623E-002  1.060499029315698E-002
  7.953742719867740E-003  5.302495146578492E-003  2.651247573289244E-003
  0.000000000000000E+000  2.651247573289247E-002  2.386122815960322E-002
  2.120998058631397E-002  1.855873301302472E-002  1.590748543973548E-002
  1.325623786644623E-002  1.060499029315698E-002  7.953742719867740E-003
  5.302495146578492E-003  2.651247573289244E-003  0.000000000000000E+000
  2.651247573289247E-002  2.386122815960322E-002  2.120998058631397E-002
  1.855873301302472E-002  1.590748543973548E-002  1.325623786644623E-002
  1.060499029315698E-002  7.953742719867740E-003  5.302495146578492E-003
  2.651247573289244E-003  0.000000000000000E+000  2.651247573289247E-002
  2.386122815960322E-002  2.120998058631397E-002  1.855873301302472E-002
  1.590748543973548E-002  1.325623786644623E-002  1.060499029315698E-002
  7.953742719867740E-003  5.302495146578492E-003  2.651247573289244E-003
  0.000000000000000E+000  2.651247573289247E-002  2.386122815960322E-002
  2.120998058631397E-002  1.855873301302472E-002  1.590748543973548E-002
  1.325623786644623E-002  1.060499029315698E-002  7.953742719867740E-003
  5.302495146578492E-003  2.651247573289244E-003  0.000000000000000E+000
  2.651247573289247E-002  2.386122815960322E-002  2.120998058631397E-002
  1.855873301302472E-002  1.590748543973548E-002  1.325623786644623E-002
  1.060499029315698E-002  7.953742719867740E-003  5.302495146578492E-003
  2.651247573289244E-003  0.000000000000000E+000  2.651247573289247E-002
  2.386122815960322E-002  2.120998058631397E-002  1.855873301302472E-002
  1.590748543973548E-002  1.325623786644623E-002  1.060499029315698E-002
  7.953742719867740E-003  5.302495146578492E-003  2.651247573289244E-003
  0.000000000000000E+000  2.651247573289247E-002  2.386122815960322E-002
  2.120998058631397E-002  1.855873301302472E-002  1.590748543973548E-002
  1.325623786644623E-002  1.060499029315698E-002  7.953742719867740E-003
  5.302495146578492E-003  2.651247573289244E-003  0.000000000000000E+000
  2.651247573289247E-002  2.386122815960322E-002  2.120998058631397E-002
  1.855873301302472E-002  1.590748543973548E-002  1.325623786644623E-002
  1.060499029315698E-002  7.953742719867740E-003  5.302495146578492E-003
  2.651247573289244E-003  0.000000000000000E+000  2.651247573289247E-002
  2.386122815960322E-002  2.120998058631397E-002  1.855873301302472E-002
  1.590748543973548E-002  1.325623786644623E-002  1.060499029315698E-002
  7.953742719867740E-003  5.302495146578492E-003  2.651247573289244E-003
  0.000000000000000E+000  2.651247573289247E-002  2.386122815960322E-002
  2.120998058631397E-002  1.855873301302472E-002  1.590748543973548E-002
  1.325623786644623E-002  1.060499029315698E-002  7.953742719867740E-003
  5.302495146578492E-003  2.651247573289244E-003  0.000000000000000E+000
  2.651247573289247E-002  2.386122815960322E-002  2.120998058631397E-002
  1.855873301302472E-002  1.590748543973548E-002  1.325623786644623E-002
  1.060499029315698E-002  7.953742719867740E-003  5.302495146578492E-003
  2.651247573289244E-003  0.000000000000000E+000  2.651247573289247E-002
  2.386122815960322E-002  2.120998058631397E-002  1.855873301302472E-002
  1.590748543973548E-002  1.325623786644623E-002  1.060499029315698E-002
  7.953742719867740E-003  5.302495146578492E-003  2.651247573289244E-003
  0.000000000000000E+000
  6.938179771052159E-002  0.102066413489537       0.128228800718460     
  0.150743523485250       0.170441963237059       0.187787673185219     
  0.202661833528172       0.214990897278217       0.224840734023594     
  0.232188790137862       0.115813734231252       0.172580184479534     
  0.217439793580764       0.255832261441384       0.289275430531161     
  0.318606835996395       0.343750154736862       0.364696598634269     
  0.381683800361044       0.395230103785860       0.156823522167089     
  0.238232356824372       0.301870006429244       0.355820913641311     
  0.402499885341919       0.443187164899094       0.478039852705304     
  0.507187444067640       0.530839320405939       0.548561254872508     
  0.191082046508194       0.293332719069213       0.373282289523684     
  0.440621357277368       0.498554103062266       0.548682626372908     
  0.591470402629301       0.627067519796898       0.655544523075439     
  0.675961936497773       0.221232000831144       0.340211996785841     
  0.433099709339951       0.511209902230646       0.578254252454303     
  0.635929502209900       0.685002954535142       0.725731861878864     
  0.757854664486424       0.779777611483071       0.251263945581546     
  0.384907454851151       0.488480461949484       0.575259635626792     
  0.649623255077116       0.713462349364044       0.767621901223063     
  0.812340806962430       0.847258487865727       0.870555450569193     
  0.286840638857437       0.436262045573737       0.550477732828555     
  0.645369700437914       0.726290476599610       0.795541619204254     
  0.854171540798803       0.902509719621148       0.940111078128258     
  0.964927848496335       0.332828610564421       0.502083711781364     
  0.629178071332353       0.733454232647479       0.821642722488733     
  0.896736102729152       0.960138280957012        1.01229235853599     
   1.05276851346272        1.07943137474791       0.391418975862882     
  0.586229205887736       0.730003504381312       0.846381758848205     
  0.943817173107522        1.02617614587892        1.09534090705944     
   1.15203827903215        1.19596192578031        1.22485611496525     
  0.462715277529177       0.689133554124955       0.853817267548104     
  0.985485092407364        1.09459605847942        1.18605935940589     
   1.26235738868390        1.32458238373929        1.37260868302035     
   1.40408151916861       0.545637498080730       0.809225348413032     
  0.998750891912929        1.14873644699231        1.27190111128025     
   1.37431550638726        1.45915266726467        1.52792406316672     
   1.58069499799683        1.61506316311738       0.638864810110752     
  0.944512228079895        1.16230701174268        1.33323238038244     
   1.47251452294339        1.58751070173486        1.68214243950894     
   1.75837519220216        1.81651614835667        1.85411786211043     
  0.741338755266524        1.09328999078682        1.34224502988631     
   1.53626692371380        1.69332041861147        1.82216586462146     
   1.92755294158140        2.01194923953750        2.07593152816547     
   2.11703218670316       0.852230557317788        1.25416177646228     
   1.53663650442439        1.75538870668499        1.93136733360966     
   2.07487742436995        2.19157842530387        2.28450131336665     
   2.35454271226547        2.39925883293031       0.971171676280700     
   1.42629759043439        1.74410714724094        1.98863684160401     
   2.18408707688364        2.34246844835667        2.47047418314381     
   2.57179262790209        2.64771698818060        2.69590381872992     
   1.09966239617012        1.61120205691755        1.96567419387611     
   2.23629257243538        2.45092136205594        2.62352740413963     
   2.76201624767046        2.87087828458119        2.95192523180767     
   3.00305098628176        1.24374752184896        1.81576255151705     
   2.20766157068701        2.50359813521600        2.73591081410255     
   2.92096645544240        3.06813503575544        3.18287291385117     
   3.26765153989043        3.32076908663999        1.40870260006371     
   2.04471819271223        2.47307089103175        2.79168939477641     
   3.03857953780342        3.23305640787587        3.38619681547418     
   3.50452811366868        3.59124692795727        3.64516738712804     
   1.56313830162478        2.25461742281921        2.71140575060273     
   3.04522183728018        3.29981968204373        3.49756007816017     
   3.65130817879953        3.76870645232627        3.85371383867006     
   3.90585429901618        1.64821069955266        2.36267954959214     
   2.82521582393917        3.15680983658538        3.40527936189418     
   3.59517265742309        3.74060761322183        3.84996173147015     
   3.92772115573266        3.97424926739565        1.63846002142208     
   2.32928998832999        2.76500091701729        3.07043438590386     
   3.29509349904310        3.46410972109158        3.59163631712275     
   3.68585289334107        3.75108877367237        3.78831609917026     
   1.53185758959904        2.14803090736085        2.52268743355751     
   2.77900388402590        2.96459769233496        3.10268129379946     
   3.20580616319585        3.28091263322485        3.33142657273192     
   3.35814015455904        1.32834213126807        1.81959367771381     
   2.10640531323405        2.29955685855717        2.43857598404599     
   2.54174675218255        2.61868472250096        2.67465096441684     
   2.71236007794916        2.73276129552726        1.01840653646245     
   1.35020650255006        1.54108425472097        1.66985319875074     
   1.76284011185269        1.83206576138645        1.88389284720958     
   1.92194398290461        1.94860172515150        1.96737679513168     
  0.619799178936566       0.805547256349789       0.913381932503925     
  0.986526847227863        1.03952668841732        1.07907409989578     
   1.10872979756703        1.13050295236747        1.14551256384863     
   1.15414381406278     
  0.000000000000000E+000  0.000000000000000E+000  0.000000000000000E+000
  0.000000000000000E+000  0.000000000000000E+000  0.000000000000000E+000
  0.000000000000000E+000  0.000000000000000E+000  0.000000000000000E+000
  0.000000000000000E+000  0.000000000000000E+000  0.000000000000000E+000
  0.000000000000000E+000  0.000000000000000E+000  0.000000000000000E+000
  0.000000000000000E+000  0.000000000000000E+000  0.000000000000000E+000
  0.000000000000000E+000  0.000000000000000E+000  0.000000000000000E+000
  0.000000000000000E+000  0.000000000000000E+000  0.000000000000000E+000
  0.000000000000000E+000  0.000000000000000E+000  0.000000000000000E+000
  0.000000000000000E+000  0.000000000000000E+000  0.000000000000000E+000
  0.000000000000000E+000  0.000000000000000E+000  0.000000000000000E+000
  0.000000000000000E+000  0.000000000000000E+000  0.000000000000000E+000
  0.000000000000000E+000  0.000000000000000E+000  0.000000000000000E+000
  0.000000000000000E+000  0.000000000000000E+000  0.000000000000000E+000
  0.000000000000000E+000  0.000000000000000E+000  0.000000000000000E+000
  0.000000000000000E+000  0.000000000000000E+000  0.000000000000000E+000
  0.000000000000000E+000  0.000000000000000E+000  0.000000000000000E+000
  0.000000000000000E+000  0.000000000000000E+000  0.000000000000000E+000
  0.000000000000000E+000  0.000000000000000E+000  0.000000000000000E+000
  0.000000000000000E+000  0.000000000000000E+000  0.000000000000000E+000
  0.000000000000000E+000  0.000000000000000E+000  0.000000000000000E+000
  0.000000000000000E+000  0.000000000000000E+000  0.000000000000000E+000
  0.000000000000000E+000  0.000000000000000E+000  0.000000000000000E+000
  0.000000000000000E+000  0.000000000000000E+000  0.000000000000000E+000
  0.000000000000000E+000  0.000000000000000E+000  0.000000000000000E+000
  0.000000000000000E+000  0.000000000000000E+000  0.000000000000000E+000
  0.000000000000000E+000  0.000000000000000E+000  0.000000000000000E+000
  0.000000000000000E+000  0.000000000000000E+000  0.000000000000000E+000
  0.000000000000000E+000  0.000000000000000E+000  0.000000000000000E+000
  0.000000000000000E+000  0.000000000000000E+000  0.000000000000000E+000
  0.000000000000000E+000  0.000000000000000E+000  0.000000000000000E+000
  0.000000000000000E+000  0.000000000000000E+000  0.000000000000000E+000
  0.000000000000000E+000  0.000000000000000E+000  0.000000000000000E+000
  0.000000000000000E+000  0.000000000000000E+000  0.000000000000000E+000
  0.000000000000000E+000  0.000000000000000E+000  0.000000000000000E+000
  0.000000000000000E+000  0.000000000000000E+000  0.000000000000000E+000
  0.000000000000000E+000  0.000000000000000E+000  0.000000000000000E+000
  0.000000000000000E+000  0.000000000000000E+000  0.000000000000000E+000
  0.000000000000000E+000  0.000000000000000E+000  0.000000000000000E+000