 Title = "Wing and Wake"
 VARIABLES = "X" "Y" "Z" "GAM" "skew"
 Zone I=   11 J=   26 K=1  T="Blade"
 DATAPACKING=BLOCK
 VARLOCATION=([4]=CELLCENTERED,[5]=CELLCENTERED)
 -0.206726639982028      -0.205030625353653      -0.203334610725278     
 -0.201638596096904      -0.199942581468529      -0.198246566840154     
 -0.196550552211780      -0.194854537583405      -0.193158522955030     
 -0.191462508326656      -0.189766493698281      -0.210466656050554     
 -0.208770641422179      -0.207074626793804      -0.205378612165430     
 -0.203682597537055      -0.201986582908681      -0.200290568280306     
 -0.198594553651931      -0.196898539023556      -0.195202524395182     
 -0.193506509766807      -0.221627721968553      -0.219931707340179     
 -0.218235692711804      -0.216539678083430      -0.214843663455055     
 -0.213147648826680      -0.211451634198306      -0.209755619569931     
 -0.208059604941556      -0.206363590313182      -0.204667575684807     
 -0.240033821059203      -0.238337806430828      -0.236641791802454     
 -0.234945777174079      -0.233249762545705      -0.231553747917330     
 -0.229857733288955      -0.228161718660581      -0.226465704032206     
 -0.224769689403831      -0.223073674775457      -0.265394678144572     
 -0.263698663516197      -0.262002648887823      -0.260306634259448     
 -0.258610619631074      -0.256914605002699      -0.255218590374324     
 -0.253522575745950      -0.251826561117575      -0.250130546489200     
 -0.248434531860825      -0.297310337358582      -0.295614322730208     
 -0.293918308101833      -0.292222293473459      -0.290526278845083     
 -0.288830264216709      -0.287134249588334      -0.285438234959960     
 -0.283742220331585      -0.282046205703210      -0.280350191074836     
 -0.335277469689938      -0.333581455061564      -0.331885440433189     
 -0.330189425804815      -0.328493411176440      -0.326797396548065     
 -0.325101381919690      -0.323405367291316      -0.321709352662941     
 -0.320013338034566      -0.318317323406192      -0.378697310781309     
 -0.377001296152935      -0.375305281524560      -0.373609266896185     
 -0.371913252267811      -0.370217237639436      -0.368521223011061     
 -0.366825208382687      -0.365129193754312      -0.363433179125938     
 -0.361737164497563      -0.426885103800928      -0.425189089172554     
 -0.423493074544179      -0.421797059915804      -0.420101045287430     
 -0.418405030659055      -0.416709016030680      -0.415013001402306     
 -0.413316986773931      -0.411620972145557      -0.409924957517182     
 -0.479080898466884      -0.477384883838509      -0.475688869210135     
 -0.473992854581760      -0.472296839953385      -0.470600825325010     
 -0.468904810696636      -0.467208796068261      -0.465512781439886     
 -0.463816766811512      -0.462120752183137      -0.534461535917037     
 -0.532765521288663      -0.531069506660288      -0.529373492031913     
 -0.527677477403539      -0.525981462775164      -0.524285448146789     
 -0.522589433518415      -0.520893418890040      -0.519197404261665     
 -0.517501389633291      -0.592153630416011      -0.590457615787636     
 -0.588761601159261      -0.587065586530886      -0.585369571902512     
 -0.583673557274137      -0.581977542645763      -0.580281528017388     
 -0.578585513389013      -0.576889498760638      -0.575193484132264     
 -0.651247343169968      -0.649551328541593      -0.647855313913218     
 -0.646159299284844      -0.644463284656469      -0.642767270028095     
 -0.641071255399720      -0.639375240771345      -0.637679226142970     
 -0.635983211514596      -0.634287196886222      -0.710810731027907     
 -0.709114716399532      -0.707418701771157      -0.705722687142783     
 -0.704026672514408      -0.702330657886034      -0.700634643257659     
 -0.698938628629284      -0.697242614000910      -0.695546599372535     
 -0.693850584744160      -0.769904443781865      -0.768208429153490     
 -0.766512414525115      -0.764816399896740      -0.763120385268366     
 -0.761424370639990      -0.759728356011616      -0.758032341383241     
 -0.756336326754867      -0.754640312126493      -0.752944297498118     
 -0.827596538280837      -0.825900523652463      -0.824204509024088     
 -0.822508494395713      -0.820812479767339      -0.819116465138964     
 -0.817420450510589      -0.815724435882215      -0.814028421253840     
 -0.812332406625466      -0.810636391997091      -0.882977175730991     
 -0.881281161102617      -0.879585146474241      -0.877889131845867     
 -0.876193117217493      -0.874497102589117      -0.872801087960743     
 -0.871105073332369      -0.869409058703993      -0.867713044075619     
 -0.866017029447245      -0.935172970396946      -0.933476955768571     
 -0.931780941140197      -0.930084926511822      -0.928388911883447     
 -0.926692897255073      -0.924996882626698      -0.923300867998324     
 -0.921604853369949      -0.919908838741574      -0.918212824113199     
 -0.983360763416566      -0.981664748788191      -0.979968734159816     
 -0.978272719531441      -0.976576704903066      -0.974880690274692     
 -0.973184675646317      -0.971488661017943      -0.969792646389568     
 -0.968096631761193      -0.966400617132818       -1.02678060450794     
  -1.02508458987956       -1.02338857525119       -1.02169256062281     
  -1.01999654599444       -1.01830053136606       -1.01660451673769     
  -1.01490850210931       -1.01321248748094       -1.01151647285256     
  -1.00982045822419       -1.06474773683929       -1.06305172221092     
  -1.06135570758254       -1.05965969295417       -1.05796367832579     
  -1.05626766369742       -1.05457164906904       -1.05287563444067     
  -1.05117961981230       -1.04948360518392       -1.04778759055555     
  -1.09666339605330       -1.09496738142493       -1.09327136679655     
  -1.09157535216818       -1.08987933753980       -1.08818332291143     
  -1.08648730828305       -1.08479129365468       -1.08309527902630     
  -1.08139926439793       -1.07970324976956       -1.12202425313867     
  -1.12032823851030       -1.11863222388192       -1.11693620925355     
  -1.11524019462517       -1.11354417999680       -1.11184816536842     
  -1.11015215074005       -1.10845613611167       -1.10676012148330     
  -1.10506410685492       -1.14043035222932       -1.13873433760095     
  -1.13703832297257       -1.13534230834420       -1.13364629371582     
  -1.13195027908745       -1.13025426445907       -1.12855824983070     
  -1.12686223520232       -1.12516622057395       -1.12347020594557     
  -1.15159141814732       -1.14989540351895       -1.14819938889057     
  -1.14650337426220       -1.14480735963382       -1.14311134500545     
  -1.14141533037707       -1.13971931574870       -1.13802330112032     
  -1.13632728649195       -1.13463127186357       -1.15533143421585     
  -1.15363541958747       -1.15193940495910       -1.15024339033072     
  -1.14854737570235       -1.14685136107397       -1.14515534644560     
  -1.14345933181722       -1.14176331718885       -1.14006730256047     
  -1.13837128793210     
 -0.170751874085949      -0.151963661805759      -0.133175449525570     
 -0.114387237245380      -9.559902496519068E-002 -7.681081268500124E-002
 -5.802260040481146E-002 -3.923438812462184E-002 -2.044617584443235E-002
 -1.657963564242752E-003  1.713024871594682E-002 -0.170414262296813     
 -0.151626050016624      -0.132837837736434      -0.114049625456245     
 -9.526141317605495E-002 -7.647320089586546E-002 -5.768498861567585E-002
 -3.889677633548620E-002 -2.010856405529658E-002 -1.320351775107095E-003
  1.746786050508252E-002 -0.169406751269000      -0.150618538988811     
 -0.131830326708621      -0.113042114428432      -9.425390214824199E-002
 -7.546568986805234E-002 -5.667747758786287E-002 -3.788926530767328E-002
 -1.910105302748379E-002 -3.128407472940676E-004  1.847537153289544E-002
 -0.167745230053277      -0.148957017773087      -0.130168805492897     
 -0.111380593212708      -9.259238093251841E-002 -7.380416865232881E-002
 -5.501595637213909E-002 -3.622774409194964E-002 -1.743953181175999E-002
  1.348680468429566E-003  2.013689274861911E-002 -0.165455901831759     
 -0.146667689551569      -0.127879477271380      -0.109091264991190     
 -9.030305271100060E-002 -7.151484043081087E-002 -5.272662815062142E-002
 -3.393841587043182E-002 -1.515020359024232E-002  3.638008689947249E-003
  2.242622097013689E-002 -0.162574870678079      -0.143786658397889     
 -0.124998446117700      -0.106210233837510      -8.742202155732043E-002
 -6.863380927713093E-002 -4.984559699694126E-002 -3.105738471675176E-002
 -1.226917243656219E-002  6.519039843627553E-003  2.530725212381706E-002
 -0.159147572174574      -0.140359359894385      -0.121571147614195     
 -0.102782935334006      -8.399472305381601E-002 -6.520651077362656E-002
 -4.641829849343693E-002 -2.763008621324732E-002 -8.841873933057683E-003
  9.946338347131885E-003  2.873455062732144E-002 -0.155228056866015     
 -0.136439844585825      -0.117651632305636      -9.886342002544608E-002
 -8.007520774525669E-002 -6.128699546506679E-002 -4.249878318487730E-002
 -2.371057090468773E-002 -4.922358624498206E-003  1.386585365569129E-002
  3.265406593588091E-002 -0.150878137850221      -0.132089925570032     
 -0.113301713289842      -9.451350100965265E-002 -7.572528872946271E-002
 -5.693707644927338E-002 -3.814886416908374E-002 -1.936065188889408E-002
 -5.724396087046856E-004  1.821577267148515E-002  3.700398495167437E-002
 -0.146166415948588      -0.127378203668399      -0.108589991388209     
 -8.980177910801986E-002 -7.101356682782983E-002 -5.222535454764016E-002
 -3.343714226745063E-002 -1.464892998726113E-002  4.139282292928549E-003
  2.292749457311791E-002  4.171570685330753E-002 -0.141167197830151     
 -0.122378985549961      -0.103590773269772      -8.480256098958205E-002
 -6.601434870939228E-002 -4.722613642920277E-002 -2.843792414901315E-002
 -9.649711868823583E-003  9.138500411366062E-003  2.792671269155536E-002
  4.671492497174506E-002 -0.135959324151025      -0.117171111870835     
 -9.838289959064539E-002 -7.959468731045609E-002 -6.080647503026641E-002
 -4.201826275007669E-002 -2.323005046988693E-002 -4.441838189697475E-003
  1.434637409049200E-002  3.313458637068158E-002  5.192279865087118E-002
 -0.130624926190163      -0.111836713909973      -9.304850162978352E-002
 -7.426028934959449E-002 -5.547207706940444E-002 -3.668386478921515E-002
 -1.789565250902534E-002  8.925597711643378E-004  1.968077205135349E-002
  3.846898433154317E-002  5.725719661173313E-002 -0.125248130590023     
 -0.106459918309833      -8.767170602964365E-002 -6.888349374945403E-002
 -5.009528146926452E-002 -3.130706918907533E-002 -1.251885690888529E-002
  6.269355371303750E-003  2.505756765149406E-002  4.384577993168342E-002
  6.263399221187307E-002 -0.119913732629161      -0.101125520348971     
 -8.233730806878213E-002 -6.354909578859240E-002 -4.476088350840312E-002
 -2.597267122821316E-002 -7.184458948023396E-003  1.160375333216573E-002
  3.039196561235546E-002  4.918017789254504E-002  6.796839017273482E-002
 -0.114705858950035      -9.591764666984492E-002 -7.712943438965608E-002
 -5.834122210946631E-002 -3.955300982927689E-002 -2.076479754908742E-002
 -1.976585268897114E-003  1.681162701129177E-002  3.559983929148135E-002
  5.438805157167111E-002  7.317626385186077E-002 -0.109706640831597     
 -9.091842855140791E-002 -7.213021627121877E-002 -5.334200399102895E-002
 -3.455379171083894E-002 -1.576557943064981E-002  3.022632849540284E-003
  2.181084512972945E-002  4.059905740991909E-002  5.938726969010858E-002
  7.817548197029822E-002 -0.104994918929965      -8.620670664977464E-002
 -6.741849436958564E-002 -4.863028208939549E-002 -2.984206980920596E-002
 -1.105385752901625E-002  7.734354751173273E-003  2.652256703136231E-002
  4.531077931155262E-002  6.409899159174220E-002  8.288720387193130E-002
 -0.100644999914171      -8.185678763398098E-002 -6.306857535379162E-002
 -4.428036307360201E-002 -2.549215079341281E-002 -6.703938513222904E-003
  1.208427376696678E-002  3.087248604715644E-002  4.966069832734585E-002
  6.844891060753541E-002  8.723712288772505E-002 -9.672548460561155E-002
 -7.793727232542194E-002 -5.914906004523195E-002 -4.036084776504267E-002
 -2.157263548485277E-002 -2.784423204663403E-003  1.600378907552612E-002
  3.479200135571587E-002  5.358021363590566E-002  7.236842591609445E-002
  9.115663819628433E-002 -9.329818610210766E-002 -7.450997382191649E-002
 -5.572176154172816E-002 -3.693354926153836E-002 -1.814533698134821E-002
  6.428752988411858E-004  1.943108757903041E-002  3.821929985922026E-002
  5.700751213940957E-002  7.579572441959948E-002  9.458393669978900E-002
 -9.041715494842630E-002 -7.162894266823742E-002 -5.284073038804749E-002
 -3.405251810785805E-002 -1.526430582766873E-002  3.523906452521510E-003
  2.231211873271090E-002  4.110033101290018E-002  5.988854329308980E-002
  7.867675557327962E-002  9.746496785346900E-002 -8.812782672690918E-002
 -6.933961444671929E-002 -5.055140216652936E-002 -3.176318988634032E-002
 -1.297497760615107E-002  5.813234674038865E-003  2.460144695422857E-002
  4.338965923441791E-002  6.217787151460778E-002  8.096608379479760E-002
  9.975429607498733E-002 -8.646630551118521E-002 -6.767809323099588E-002
 -4.888988095080597E-002 -3.010166867061634E-002 -1.131345639042727E-002
  7.474755889762719E-003  2.626296816995232E-002  4.505118045014166E-002
  6.383939273033121E-002  8.262760501052087E-002  0.101415817290711     
 -8.545879448337222E-002 -6.667058220318277E-002 -4.788236992299344E-002
 -2.909415764280316E-002 -1.030594536261399E-002  8.482266917575679E-003
  2.727047919776528E-002  4.605869147795473E-002  6.484690375814395E-002
  8.363511603833393E-002  0.102423328318524      -8.512118269423634E-002
 -6.633297041404733E-002 -4.754475813385716E-002 -2.875654585366835E-002
 -9.968333573478217E-003  8.819878706711715E-003  2.760809098690100E-002
  4.639630326709023E-002  6.518451554728000E-002  8.397272782746998E-002
  0.102760940107660     
  2.651247573289247E-002  2.386122815960322E-002  2.120998058631397E-002
  1.855873301302472E-002  1.590748543973548E-002  1.325623786644623E-002
  1.060499029315698E-002  7.953742719867740E-003  5.302495146578492E-003
  2.651247573289244E-003  0.000000000000000E+000  2.651247573289247E-002
  2.386122815960322E-002  2.120998058631397E-002  1.855873301302472E-002
  1.590748543973548E-002  1.325623786644623E-002  1.060499029315698E-002
  7.953742719867740E-003  5.302495146578492E-003  2.651247573289244E-003
  0.000000000000000E+000  2.651247573289247E-002  2.386122815960322E-002
  2.120998058631397E-002  1.855873301302472E-002  1.590748543973548E-002
  1.325623786644623E-002  1.060499029315698E-002  7.953742719867740E-003
  5.302495146578492E-003  2.651247573289244E-003  0.000000000000000E+000
  2.651247573289247E-002  2.386122815960322E-002  2.120998058631397E-002
  1.855873301302472E-002  1.590748543973548E-002  1.325623786644623E-002
  1.060499029315698E-002  7.953742719867740E-003  5.302495146578492E-003
  2.651247573289244E-003  0.000000000000000E+000  2.651247573289247E-002
  2.386122815960322E-002  2.120998058631397E-002  1.855873301302472E-002
  1.590748543973548E-002  1.325623786644623E-002  1.060499029315698E-002
  7.953742719867740E-003  5.302495146578492E-003  2.651247573289244E-003
  0.000000000000000E+000  2.651247573289247E-002  2.386122815960322E-002
  2.120998058631397E-002  1.855873301302472E-002  1.590748543973548E-002
  1.325623786644623E-002  1.060499029315698E-002  7.953742719867740E-003
  5.302495146578492E-003  2.651247573289244E-003  0.000000000000000E+000
  2.651247573289247E-002  2.386122815960322E-002  2.120998058631397E-002
  1.855873301302472E-002  1.590748543973548E-002  1.325623786644623E-002
  1.060499029315698E-002  7.953742719867740E-003  5.302495146578492E-003
  2.651247573289244E-003  0.000000000000000E+000  2.651247573289247E-002
  2.386122815960322E-002  2.120998058631397E-002  1.855873301302472E-002
  1.590748543973548E-002  1.325623786644623E-002  1.060499029315698E-002
  7.953742719867740E-003  5.302495146578492E-003  2.651247573289244E-003
  0.000000000000000E+000  2.651247573289247E-002  2.386122815960322E-002
  2.120998058631397E-002  1.855873301302472E-002  1.590748543973548E-002
  1.325623786644623E-002  1.060499029315698E-002  7.953742719867740E-003
  5.302495146578492E-003  2.651247573289244E-003  0.000000000000000E+000
  2.651247573289247E-002  2.386122815960322E-002  2.120998058631397E-002
  1.855873301302472E-002  1.590748543973548E-002  1.325623786644623E-002
  1.060499029315698E-002  7.953742719867740E-003  5.302495146578492E-003
  2.651247573289244E-003  0.000000000000000E+000  2.651247573289247E-002
  2.386122815960322E-002  2.120998058631397E-002  1.855873301302472E-002
  1.590748543973548E-002  1.325623786644623E-002  1.060499029315698E-002
  7.953742719867740E-003  5.302495146578492E-003  2.651247573289244E-003
  0.000000000000000E+000  2.651247573289247E-002  2.386122815960322E-002
  2.120998058631397E-002  1.855873301302472E-002  1.590748543973548E-002
  1.325623786644623E-002  1.060499029315698E-002  7.953742719867740E-003
  5.302495146578492E-003  2.651247573289244E-003  0.000000000000000E+000
  2.651247573289247E-002  2.386122815960322E-002  2.120998058631397E-002
  1.855873301302472E-002  1.590748543973548E-002  1.325623786644623E-002
  1.060499029315698E-002  7.953742719867740E-003  5.302495146578492E-003
  2.651247573289244E-003  0.000000000000000E+000  2.651247573289247E-002
  2.386122815960322E-002  2.120998058631397E-002  1.855873301302472E-002
  1.590748543973548E-002  1.325623786644623E-002  1.060499029315698E-002
  7.953742719867740E-003  5.302495146578492E-003  2.651247573289244E-003
  0.000000000000000E+000  2.651247573289247E-002  2.386122815960322E-002
  2.120998058631397E-002  1.855873301302472E-002  1.590748543973548E-002
  1.325623786644623E-002  1.060499029315698E-002  7.953742719867740E-003
  5.302495146578492E-003  2.651247573289244E-003  0.000000000000000E+000
  2.651247573289247E-002  2.386122815960322E-002  2.120998058631397E-002
  1.855873301302472E-002  1.590748543973548E-002  1.325623786644623E-002
  1.060499029315698E-002  7.953742719867740E-003  5.302495146578492E-003
  2.651247573289244E-003  0.000000000000000E+000  2.651247573289247E-002
  2.386122815960322E-002  2.120998058631397E-002  1.855873301302472E-002
  1.590748543973548E-002  1.325623786644623E-002  1.060499029315698E-002
  7.953742719867740E-003  5.302495146578492E-003  2.651247573289244E-003
  0.000000000000000E+000  2.651247573289247E-002  2.386122815960322E-002
  2.120998058631397E-002  1.855873301302472E-002  1.590748543973548E-002
  1.325623786644623E-002  1.060499029315698E-002  7.953742719867740E-003
  5.302495146578492E-003  2.651247573289244E-003  0.000000000000000E+000
  2.651247573289247E-002  2.386122815960322E-002  2.120998058631397E-002
  1.855873301302472E-002  1.590748543973548E-002  1.325623786644623E-002
  1.060499029315698E-002  7.953742719867740E-003  5.302495146578492E-003
  2.651247573289244E-003  0.000000000000000E+000  2.651247573289247E-002
  2.386122815960322E-002  2.120998058631397E-002  1.855873301302472E-002
  1.590748543973548E-002  1.325623786644623E-002  1.060499029315698E-002
  7.953742719867740E-003  5.302495146578492E-003  2.651247573289244E-003
  0.000000000000000E+000  2.651247573289247E-002  2.386122815960322E-002
  2.120998058631397E-002  1.855873301302472E-002  1.590748543973548E-002
  1.325623786644623E-002  1.060499029315698E-002  7.953742719867740E-003
  5.302495146578492E-003  2.651247573289244E-003  0.000000000000000E+000
  2.651247573289247E-002  2.386122815960322E-002  2.120998058631397E-002
  1.855873301302472E-002  1.590748543973548E-002  1.325623786644623E-002
  1.060499029315698E-002  7.953742719867740E-003  5.302495146578492E-003
  2.651247573289244E-003  0.000000000000000E+000  2.651247573289247E-002
  2.386122815960322E-002  2.120998058631397E-002  1.855873301302472E-002
  1.590748543973548E-002  1.325623786644623E-002  1.060499029315698E-002
  7.953742719867740E-003  5.302495146578492E-003  2.651247573289244E-003
  0.000000000000000E+000  2.651247573289247E-002  2.386122815960322E-002
  2.120998058631397E-002  1.855873301302472E-002  1.590748543973548E-002
  1.325623786644623E-002  1.060499029315698E-002  7.953742719867740E-003
  5.302495146578492E-003  2.651247573289244E-003  0.000000000000000E+000
  2.651247573289247E-002  2.386122815960322E-002  2.120998058631397E-002
  1.855873301302472E-002  1.590748543973548E-002  1.325623786644623E-002
  1.060499029315698E-002  7.953742719867740E-003  5.302495146578492E-003
  2.651247573289244E-003  0.000000000000000E+000  2.651247573289247E-002
  2.386122815960322E-002  2.120998058631397E-002  1.855873301302472E-002
  1.590748543973548E-002  1.325623786644623E-002  1.060499029315698E-002
  7.953742719867740E-003  5.302495146578492E-003  2.651247573289244E-003
  0.000000000000000E+000
  0.242487710780987       0.334016231902157       0.398342139142252     
  0.449085875505420       0.491393628386308       0.527379329164603     
  0.558208362023457       0.584147042735668       0.605562263986772     
  0.622919082137129       0.395369102650289       0.555595669238775     
  0.667251100538022       0.755068104173248       0.828081632778547     
  0.890005398453682       0.942877417956033       0.987516546881026     
   1.02483469723194        1.05723582361287       0.501658245749105     
  0.730279632358829       0.891661358105953        1.01869020283790     
   1.12400754864149        1.21293107017386        1.28821356837452     
   1.35197198663481        1.40448223714038        1.44626852854911     
  0.545284642590106       0.817271471531743        1.01779757395421     
   1.17889370444907        1.31326925171822        1.42634661417146     
   1.52137259729077        1.60042870111443        1.66307572318849     
   1.70850567717497       0.533522885878800       0.815001271050480     
   1.03117917514989        1.21049454506029        1.36248419156753     
   1.49162719589713        1.59996799822444        1.68832016673857     
   1.75709138214769        1.80363485330277       0.488661970261042     
  0.755346031902433       0.965089139499977        1.14277728195779     
   1.29594421731316        1.42720894781005        1.53746418703189     
   1.62691827976023        1.69515422008762        1.73929860092274     
  0.447262102339626       0.691601074794371       0.884656851303476     
   1.04859643416537        1.19026571428048        1.31218171793620     
   1.41507025485418        1.49871940858670        1.56220778479515     
   1.60284905947198       0.443297440068374       0.677163940822914     
  0.858042778052418        1.00970973827711        1.13989194420154     
   1.25173917707036        1.34649741062652        1.42434495630193     
   1.48451088070618        1.52399645505477       0.481123561615206     
  0.724664198769135       0.907323065611746        1.05730630468921     
   1.18436632579720        1.29278021179042        1.38456214101373     
   1.46043748416019        1.51984639631670        1.55968205225414     
  0.544440221159209       0.812557698208815        1.00902616795080     
   1.16737050219555        1.29967030025501        1.41150664502310     
   1.50565675772857        1.58329085951766        1.64415053279419     
   1.68531457157050       0.618403052208390       0.917952581372875     
   1.13413359019271        1.30602442792696        1.44798137526648     
   1.56683041440030        1.66612559579055        1.74754240411649     
   1.81114864506211        1.85416741517238       0.695576768916794     
   1.02895788412598        1.26711155312905        1.45464029150770     
   1.60810172746153        1.73550119531378        1.84112782615740     
   1.92715174097040        1.99396244784697        2.03892146832113     
  0.772093683357052        1.13932396281229        1.39967234968079     
   1.60314336738933        1.76841977137289        1.90462886312550     
   2.01675457144383        2.10742915834515        2.17734815398192     
   2.22402121206212       0.845603213836652        1.24527407402759     
   1.52680658110519        1.74539511595792        1.92177142710522     
   2.06614275833355        2.18414980573015        2.27886258253485     
   2.35128568905116        2.39913252721089       0.915523876442984     
   1.34563701490862        1.64666526968568        1.87879516391683     
   2.06474956510949        2.21580475003976        2.33827358907073     
   2.43570394531776        2.50947385149173        2.55761744835707     
  0.984368837113192        1.44337472841213        1.76197426049131     
   2.00543786532229        2.19857782137900        2.35386424291946     
   2.47844262808781        2.57650821998574        2.64997714145056     
   2.69738298877395        1.05833898992635        1.54629351162686     
   1.88083571504127        2.13310427669773        2.33043541819896     
   2.48682267460148        2.61051155797514        2.70656238633285     
   2.77763745299354        2.82306675717689        1.14704663389081     
   1.66625956145489        2.01544107982198        2.27357640767319     
   2.47149532738483        2.62530053063029        2.74471402234134     
   2.83589823820784        2.90239998292474        2.94450840384927     
   1.24670595126043        1.79666535222639        2.15679893153682     
   2.41602817140074        2.60973375399099        2.75670220063623     
   2.86842630073882        2.95237100321409        3.01317181670125     
   3.05211993592660        1.33119956955346        1.90059509105957     
   2.26147287253729        2.51289701185264        2.69506281085169     
   2.82951923911221        2.92942683790655        3.00333695904125     
   3.05677862455065        3.09209500158316        1.36891422868205     
   1.93157260173479        2.27407330783018        2.50396142200496     
   2.66527373913747        2.78132016071227        2.86595310231048     
   2.92789687422935        2.97275019446931        3.00342928423701     
   1.33290739446764        1.84910556499074        2.14809052648120     
   2.34149140113900        2.47361053678449        2.56688671568487     
   2.63417439924017        2.68326113741658        2.71892849285646     
   2.74372958660530        1.19864447585417        1.61958389456941     
   1.85101521055124        1.99704432072977        2.09545279060991     
   2.16440051228531        2.21411894656391        2.25076643797428     
   2.27817098496372        2.29855130919868       0.941969968078113     
   1.22893998415411        1.38331305856483        1.48046972335139     
   1.54592573476109        1.59183547020739        1.62515363070613     
   1.65020693080278        1.67007288806589        1.68871354354751     
  0.578783291288428       0.739494224212767       0.826622212043126     
  0.881701824893386       0.918900342493313       0.945038043129394     
  0.964057785994146       0.978404019829424       0.989622755716503     
  0.998549142028915     
  0.000000000000000E+000  0.000000000000000E+000  0.000000000000000E+000
  0.000000000000000E+000  0.000000000000000E+000  0.000000000000000E+000
  0.000000000000000E+000  0.000000000000000E+000  0.000000000000000E+000
  0.000000000000000E+000  0.000000000000000E+000  0.000000000000000E+000
  0.000000000000000E+000  0.000000000000000E+000  0.000000000000000E+000
  0.000000000000000E+000  0.000000000000000E+000  0.000000000000000E+000
  0.000000000000000E+000  0.000000000000000E+000  0.000000000000000E+000
  0.000000000000000E+000  0.000000000000000E+000  0.000000000000000E+000
  0.000000000000000E+000  0.000000000000000E+000  0.000000000000000E+000
  0.000000000000000E+000  0.000000000000000E+000  0.000000000000000E+000
  0.000000000000000E+000  0.000000000000000E+000  0.000000000000000E+000
  0.000000000000000E+000  0.000000000000000E+000  0.000000000000000E+000
  0.000000000000000E+000  0.000000000000000E+000  0.000000000000000E+000
  0.000000000000000E+000  0.000000000000000E+000  0.000000000000000E+000
  0.000000000000000E+000  0.000000000000000E+000  0.000000000000000E+000
  0.000000000000000E+000  0.000000000000000E+000  0.000000000000000E+000
  0.000000000000000E+000  0.000000000000000E+000  0.000000000000000E+000
  0.000000000000000E+000  0.000000000000000E+000  0.000000000000000E+000
  0.000000000000000E+000  0.000000000000000E+000  0.000000000000000E+000
  0.000000000000000E+000  0.000000000000000E+000  0.000000000000000E+000
  0.000000000000000E+000  0.000000000000000E+000  0.000000000000000E+000
  0.000000000000000E+000  0.000000000000000E+000  0.000000000000000E+000
  0.000000000000000E+000  0.000000000000000E+000  0.000000000000000E+000
  0.000000000000000E+000  0.000000000000000E+000  0.000000000000000E+000
  0.000000000000000E+000  0.000000000000000E+000  0.000000000000000E+000
  0.000000000000000E+000  0.000000000000000E+000  0.000000000000000E+000
  0.000000000000000E+000  0.000000000000000E+000  0.000000000000000E+000
  0.000000000000000E+000  0.000000000000000E+000  0.000000000000000E+000
  0.000000000000000E+000  0.000000000000000E+000  0.000000000000000E+000
  0.000000000000000E+000  0.000000000000000E+000  0.000000000000000E+000
  0.000000000000000E+000  0.000000000000000E+000  0.000000000000000E+000
  0.000000000000000E+000  0.000000000000000E+000  0.000000000000000E+000
  0.000000000000000E+000  0.000000000000000E+000  0.000000000000000E+000
  0.000000000000000E+000  0.000000000000000E+000  0.000000000000000E+000
  0.000000000000000E+000  0.000000000000000E+000  0.000000000000000E+000
  0.000000000000000E+000  0.000000000000000E+000  0.000000000000000E+000
  0.000000000000000E+000  0.000000000000000E+000  0.000000000000000E+000
  0.000000000000000E+000  0.000000000000000E+000  0.000000000000000E+000
  0.000000000000000E+000  0.000000000000000E+000  0.000000000000000E+000