 Title = "Wing and Tip"
 VARIABLES = "X" "Y" "Z" "GAM"
 Zone I=   11 J=   26 K=1  T="Blade"
 DATAPACKING=BLOCK
 VARLOCATION=([4]=CELLCENTERED)
  0.252252284210109       0.244309780348514       0.236367276486920     
  0.228424772625325       0.220482268763731       0.212539764902136     
  0.204597261040541       0.196654757178947       0.188712253317352     
  0.180769749455758       0.172827245594163       0.255658452828206     
  0.247715948966611       0.239773445105016       0.231830941243422     
  0.223888437381827       0.215945933520233       0.208003429658638     
  0.200060925797044       0.192118421935449       0.184175918073854     
  0.176233414212260       0.265823241368640       0.257880737507046     
  0.249938233645451       0.241995729783857       0.234053225922262     
  0.226110722060667       0.218168218199073       0.210225714337478     
  0.202283210475884       0.194340706614289       0.186398202752695     
  0.282586345043981       0.274643841182387       0.266701337320792     
  0.258758833459198       0.250816329597603       0.242873825736008     
  0.234931321874414       0.226988818012819       0.219046314151225     
  0.211103810289630       0.203161306428036       0.305683399695475     
  0.297740895833880       0.289798391972286       0.281855888110691     
  0.273913384249097       0.265970880387502       0.258028376525908     
  0.250085872664313       0.242143368802718       0.234200864941124     
  0.226258361079529       0.334750150973756       0.326807647112161     
  0.318865143250566       0.310922639388972       0.302980135527377     
  0.295037631665783       0.287095127804188       0.279152623942594     
  0.271210120080999       0.263267616219404       0.255325112357810     
  0.369328198847530       0.361385694985935       0.353443191124340     
  0.345500687262746       0.337558183401151       0.329615679539557     
  0.321673175677962       0.313730671816367       0.305788167954773     
  0.297845664093178       0.289903160231584       0.408872226845902     
  0.400929722984308       0.392987219122714       0.385044715261119     
  0.377102211399524       0.369159707537930       0.361217203676335     
  0.353274699814741       0.345332195953146       0.337389692091551     
  0.329447188229957       0.452758602024883       0.444816098163288     
  0.436873594301694       0.428931090440099       0.420988586578505     
  0.413046082716910       0.405103578855316       0.397161074993721     
  0.389218571132127       0.381276067270532       0.373333563408937     
  0.500295210031449       0.492352706169854       0.484410202308260     
  0.476467698446665       0.468525194585071       0.460582690723476     
  0.452640186861881       0.444697683000287       0.436755179138692     
  0.428812675277098       0.420870171415503       0.550732370160343     
  0.542789866298748       0.534847362437154       0.526904858575559     
  0.518962354713965       0.511019850852370       0.503077346990775     
  0.495134843129181       0.487192339267587       0.479249835405992     
  0.471307331544397       0.603274658266634       0.595332154405039     
  0.587389650543445       0.579447146681850       0.571504642820256     
  0.563562138958661       0.555619635097066       0.547677131235472     
  0.539734627373877       0.531792123512282       0.523849619650688     
  0.657093451079644       0.649150947218049       0.641208443356455     
  0.633265939494860       0.625323435633266       0.617380931771671     
  0.609438427910076       0.601495924048482       0.593553420186887     
  0.585610916325293       0.577668412463698       0.711339994086923     
  0.703397490225329       0.695454986363734       0.687512482502140     
  0.679569978640545       0.671627474778950       0.663684970917356     
  0.655742467055761       0.647799963194167       0.639857459332572     
  0.631914955470977       0.765158786899933       0.757216283038339     
  0.749273779176744       0.741331275315149       0.733388771453555     
  0.725446267591960       0.717503763730366       0.709561259868771     
  0.701618756007176       0.693676252145582       0.685733748283987     
  0.817701075006224       0.809758571144629       0.801816067283035     
  0.793873563421440       0.785931059559846       0.777988555698251     
  0.770046051836656       0.762103547975062       0.754161044113467     
  0.746218540251873       0.738276036390279       0.868138235135119     
  0.860195731273523       0.852253227411929       0.844310723550335     
  0.836368219688740       0.828425715827145       0.820483211965550     
  0.812540708103956       0.804598204242361       0.796655700380767     
  0.788713196519172       0.915674843141684       0.907732339280089     
  0.899789835418495       0.891847331556900       0.883904827695305     
  0.875962323833711       0.868019819972116       0.860077316110522     
  0.852134812248927       0.844192308387332       0.836249804525737     
  0.959561218320664       0.951618714459070       0.943676210597475     
  0.935733706735880       0.927791202874286       0.919848699012691     
  0.911906195151097       0.903963691289502       0.896021187427908     
  0.888078683566313       0.880136179704718       0.999105246319037     
  0.991162742457443       0.983220238595848       0.975277734734253     
  0.967335230872659       0.959392727011064       0.951450223149470     
  0.943507719287875       0.935565215426281       0.927622711564686     
  0.919680207703092        1.03368329419281        1.02574079033122     
   1.01779828646962        1.00985578260803        1.00191327874643     
  0.993970774884838       0.986028271023244       0.978085767161649     
  0.970143263300055       0.962200759438459       0.954258255576865     
   1.06275004547109        1.05480754160950        1.04686503774790     
   1.03892253388631        1.03098003002471        1.02303752616312     
   1.01509502230152        1.00715251843993       0.999210014578334     
  0.991267510716740       0.983325006855147        1.08584710012259     
   1.07790459626099        1.06996209239940        1.06201958853780     
   1.05407708467621        1.04613458081461        1.03819207695302     
   1.03024957309142        1.02230706922983        1.01436456536823     
   1.00642206150664        1.10261020379793        1.09466769993633     
   1.08672519607474        1.07878269221314        1.07084018835155     
   1.06289768448995        1.05495518062836        1.04701267676676     
   1.03907017290517        1.03112766904358        1.02318516518198     
   1.11277499233836        1.10483248847677        1.09688998461517     
   1.08894748075358        1.08100497689198        1.07306247303039     
   1.06511996916879        1.05717746530720        1.04923496144561     
   1.04129245758401        1.03334995372242        1.11618116095646     
   1.10823865709486        1.10029615323327        1.09235364937167     
   1.08441114551008        1.07646864164848        1.06852613778689     
   1.06058363392530        1.05264113006370        1.04469862620211     
   1.03675612234051     
  9.088944544282991E-002  7.377833739239410E-002  5.666722934195857E-002
  3.955612129152299E-002  2.244501324108722E-002  5.333905190651682E-003
 -1.177720285978404E-002 -2.888831091021968E-002 -4.599941896065534E-002
 -6.311052701109093E-002 -8.022163506152655E-002  8.930839602611566E-002
  7.219728797568012E-002  5.508617992524441E-002  3.797507187480887E-002
  2.086396382437313E-002  3.752855773937560E-003 -1.335825227649808E-002
 -3.046936032693374E-002 -4.758046837736938E-002 -6.469157642780503E-002
 -8.180268447824064E-002  8.459018186974841E-002  6.747907381931274E-002
  5.036796576887706E-002  3.325685771844157E-002  1.614574966800582E-002
 -9.653583824298236E-004 -1.807646643286548E-002 -3.518757448330111E-002
 -5.229868253373664E-002 -6.940979058417235E-002 -8.652089863460802E-002
  7.680921202949800E-002  5.969810397906232E-002  4.258699592862668E-002
  2.547588787819105E-002  8.364779827755431E-003 -8.746328222680202E-003
 -2.585743627311588E-002 -4.296854432355143E-002 -6.007965237398710E-002
 -7.719076042442269E-002 -9.430186847485837E-002  6.608819704787156E-002
  4.897708899743584E-002  3.186598094700036E-002  1.475487289656459E-002
 -2.356235153870984E-003 -1.946734320430667E-002 -3.657845125474226E-002
 -5.368955930517791E-002 -7.080066735561351E-002 -8.791177540604914E-002
 -0.105022883456485       5.259621373555325E-002  3.548510568511757E-002
  1.837399763468201E-002  1.262889584246255E-003 -1.584821846618930E-002
 -3.295932651662497E-002 -5.007043456706051E-002 -6.718154261749619E-002
 -8.429265066793190E-002 -0.101403758718368      -0.118514866768803     
  3.654603872909830E-002  1.943493067866263E-002  2.323822628227056E-003
 -1.478728542220848E-002 -3.189839347264418E-002 -4.900950152307985E-002
 -6.612060957351543E-002 -8.323171762395108E-002 -0.100342825674387     
 -0.117453933724822      -0.134565041775258       1.819079287626840E-002
  1.079684825832822E-003 -1.603142322460285E-002 -3.314253127503843E-002
 -5.025363932547403E-002 -6.736474737590982E-002 -8.447585542634534E-002
 -0.101586963476781      -0.118698071527217      -0.135809179577652     
 -0.152920287628088      -2.180050630944826E-003 -1.929115868138058E-002
 -3.640226673181606E-002 -5.351337478225159E-002 -7.062448283268750E-002
 -8.773559088312291E-002 -0.104846698933559      -0.121957806983994     
 -0.139068915034430      -0.156180023084866      -0.173291131135301     
 -2.424523142148071E-002 -4.135633947191623E-002 -5.846744752235184E-002
 -7.557855557278725E-002 -9.268966362322320E-002 -0.109800771673659     
 -0.126911879724094      -0.144022987774530      -0.161134095824966     
 -0.178245203875401      -0.195356311925837      -4.765676841317208E-002
 -6.476787646360799E-002 -8.187898451404332E-002 -9.899009256447894E-002
 -0.116101200614915      -0.133212308665350      -0.150323416715786     
 -0.167434524766222      -0.184545632816657      -0.201656740867093     
 -0.218767848917529      -7.204544768228623E-002 -8.915655573272194E-002
 -0.106267663783158      -0.123378771833593      -0.140489879884029     
 -0.157600987934464      -0.174712095984900      -0.191823204035336     
 -0.208934312085771      -0.226045420136207      -0.243156528186643     
 -9.702664518765820E-002 -0.114137753238094      -0.131248861288529     
 -0.148359969338965      -0.165471077389401      -0.182582185439836     
 -0.199693293490272      -0.216804401540707      -0.233915509591143     
 -0.251026617641579      -0.268137725692015      -0.122206392521584     
 -0.139317500572020      -0.156428608622455      -0.173539716672891     
 -0.190650824723326      -0.207761932773762      -0.224873040824198     
 -0.241984148874633      -0.259095256925069      -0.276206364975504     
 -0.293317473025940      -0.147187590026956      -0.164298698077391     
 -0.181409806127827      -0.198520914178263      -0.215632022228698     
 -0.232743130279134      -0.249854238329570      -0.266965346380005     
 -0.284076454430441      -0.301187562480877      -0.318298670531312     
 -0.171576269296070      -0.188687377346506      -0.205798485396941     
 -0.222909593447377      -0.240020701497812      -0.257131809548248     
 -0.274242917598684      -0.291354025649119      -0.308465133699555     
 -0.325576241749990      -0.342687349800426      -0.194987806287762     
 -0.212098914338197      -0.229210022388632      -0.246321130439068     
 -0.263432238489504      -0.280543346539939      -0.297654454590375     
 -0.314765562640811      -0.331876670691246      -0.348987778741682     
 -0.366098886792118      -0.217052987078297      -0.234164095128733     
 -0.251275203179168      -0.268386311229604      -0.285497419280040     
 -0.302608527330475      -0.319719635380911      -0.336830743431347     
 -0.353941851481782      -0.371052959532218      -0.388164067582653     
 -0.237423830585510      -0.254534938635946      -0.271646046686381     
 -0.288757154736817      -0.305868262787253      -0.322979370837689     
 -0.340090478888124      -0.357201586938560      -0.374312694988995     
 -0.391423803039431      -0.408534911089867      -0.255779076438340     
 -0.272890184488776      -0.290001292539212      -0.307112400589647     
 -0.324223508640083      -0.341334616690518      -0.358445724740954     
 -0.375556832791390      -0.392667940841825      -0.409779048892261     
 -0.426890156942696      -0.271829251444795      -0.288940359495231     
 -0.306051467545666      -0.323162575596102      -0.340273683646538     
 -0.357384791696973      -0.374495899747409      -0.391607007797845     
 -0.408718115848280      -0.425829223898716      -0.442940331949151     
 -0.285321234757114      -0.302432342807549      -0.319543450857985     
 -0.336654558908420      -0.353765666958856      -0.370876775009291     
 -0.387987883059727      -0.405098991110163      -0.422210099160598     
 -0.439321207211034      -0.456432315261470      -0.296042249738740     
 -0.313153357789175      -0.330264465839611      -0.347375573890046     
 -0.364486681940482      -0.381597789990918      -0.398708898041353     
 -0.415820006091789      -0.432931114142225      -0.450042222192661     
 -0.467153330243097      -0.303823219578990      -0.320934327629426     
 -0.338045435679862      -0.355156543730297      -0.372267651780732     
 -0.389378759831168      -0.406489867881604      -0.423600975932039     
 -0.440712083982476      -0.457823192032911      -0.474934300083347     
 -0.308541433735358      -0.325652541785793      -0.342763649836229     
 -0.359874757886665      -0.376985865937100      -0.394096973987536     
 -0.411208082037971      -0.428319190088407      -0.445430298138843     
 -0.462541406189279      -0.479652514239714      -0.310122483152072     
 -0.327233591202507      -0.344344699252943      -0.361455807303378     
 -0.378566915353814      -0.395678023404250      -0.412789131454685     
 -0.429900239505121      -0.447011347555557      -0.464122455605992     
 -0.481233563656428     
  2.651247573289247E-002  2.386122815960322E-002  2.120998058631397E-002
  1.855873301302472E-002  1.590748543973548E-002  1.325623786644623E-002
  1.060499029315698E-002  7.953742719867740E-003  5.302495146578492E-003
  2.651247573289244E-003  0.000000000000000E+000  2.651247573289247E-002
  2.386122815960322E-002  2.120998058631397E-002  1.855873301302472E-002
  1.590748543973548E-002  1.325623786644623E-002  1.060499029315698E-002
  7.953742719867740E-003  5.302495146578492E-003  2.651247573289244E-003
  0.000000000000000E+000  2.651247573289247E-002  2.386122815960322E-002
  2.120998058631397E-002  1.855873301302472E-002  1.590748543973548E-002
  1.325623786644623E-002  1.060499029315698E-002  7.953742719867740E-003
  5.302495146578492E-003  2.651247573289244E-003  0.000000000000000E+000
  2.651247573289247E-002  2.386122815960322E-002  2.120998058631397E-002
  1.855873301302472E-002  1.590748543973548E-002  1.325623786644623E-002
  1.060499029315698E-002  7.953742719867740E-003  5.302495146578492E-003
  2.651247573289244E-003  0.000000000000000E+000  2.651247573289247E-002
  2.386122815960322E-002  2.120998058631397E-002  1.855873301302472E-002
  1.590748543973548E-002  1.325623786644623E-002  1.060499029315698E-002
  7.953742719867740E-003  5.302495146578492E-003  2.651247573289244E-003
  0.000000000000000E+000  2.651247573289247E-002  2.386122815960322E-002
  2.120998058631397E-002  1.855873301302472E-002  1.590748543973548E-002
  1.325623786644623E-002  1.060499029315698E-002  7.953742719867740E-003
  5.302495146578492E-003  2.651247573289244E-003  0.000000000000000E+000
  2.651247573289247E-002  2.386122815960322E-002  2.120998058631397E-002
  1.855873301302472E-002  1.590748543973548E-002  1.325623786644623E-002
  1.060499029315698E-002  7.953742719867740E-003  5.302495146578492E-003
  2.651247573289244E-003  0.000000000000000E+000  2.651247573289247E-002
  2.386122815960322E-002  2.120998058631397E-002  1.855873301302472E-002
  1.590748543973548E-002  1.325623786644623E-002  1.060499029315698E-002
  7.953742719867740E-003  5.302495146578492E-003  2.651247573289244E-003
  0.000000000000000E+000  2.651247573289247E-002  2.386122815960322E-002
  2.120998058631397E-002  1.855873301302472E-002  1.590748543973548E-002
  1.325623786644623E-002  1.060499029315698E-002  7.953742719867740E-003
  5.302495146578492E-003  2.651247573289244E-003  0.000000000000000E+000
  2.651247573289247E-002  2.386122815960322E-002  2.120998058631397E-002
  1.855873301302472E-002  1.590748543973548E-002  1.325623786644623E-002
  1.060499029315698E-002  7.953742719867740E-003  5.302495146578492E-003
  2.651247573289244E-003  0.000000000000000E+000  2.651247573289247E-002
  2.386122815960322E-002  2.120998058631397E-002  1.855873301302472E-002
  1.590748543973548E-002  1.325623786644623E-002  1.060499029315698E-002
  7.953742719867740E-003  5.302495146578492E-003  2.651247573289244E-003
  0.000000000000000E+000  2.651247573289247E-002  2.386122815960322E-002
  2.120998058631397E-002  1.855873301302472E-002  1.590748543973548E-002
  1.325623786644623E-002  1.060499029315698E-002  7.953742719867740E-003
  5.302495146578492E-003  2.651247573289244E-003  0.000000000000000E+000
  2.651247573289247E-002  2.386122815960322E-002  2.120998058631397E-002
  1.855873301302472E-002  1.590748543973548E-002  1.325623786644623E-002
  1.060499029315698E-002  7.953742719867740E-003  5.302495146578492E-003
  2.651247573289244E-003  0.000000000000000E+000  2.651247573289247E-002
  2.386122815960322E-002  2.120998058631397E-002  1.855873301302472E-002
  1.590748543973548E-002  1.325623786644623E-002  1.060499029315698E-002
  7.953742719867740E-003  5.302495146578492E-003  2.651247573289244E-003
  0.000000000000000E+000  2.651247573289247E-002  2.386122815960322E-002
  2.120998058631397E-002  1.855873301302472E-002  1.590748543973548E-002
  1.325623786644623E-002  1.060499029315698E-002  7.953742719867740E-003
  5.302495146578492E-003  2.651247573289244E-003  0.000000000000000E+000
  2.651247573289247E-002  2.386122815960322E-002  2.120998058631397E-002
  1.855873301302472E-002  1.590748543973548E-002  1.325623786644623E-002
  1.060499029315698E-002  7.953742719867740E-003  5.302495146578492E-003
  2.651247573289244E-003  0.000000000000000E+000  2.651247573289247E-002
  2.386122815960322E-002  2.120998058631397E-002  1.855873301302472E-002
  1.590748543973548E-002  1.325623786644623E-002  1.060499029315698E-002
  7.953742719867740E-003  5.302495146578492E-003  2.651247573289244E-003
  0.000000000000000E+000  2.651247573289247E-002  2.386122815960322E-002
  2.120998058631397E-002  1.855873301302472E-002  1.590748543973548E-002
  1.325623786644623E-002  1.060499029315698E-002  7.953742719867740E-003
  5.302495146578492E-003  2.651247573289244E-003  0.000000000000000E+000
  2.651247573289247E-002  2.386122815960322E-002  2.120998058631397E-002
  1.855873301302472E-002  1.590748543973548E-002  1.325623786644623E-002
  1.060499029315698E-002  7.953742719867740E-003  5.302495146578492E-003
  2.651247573289244E-003  0.000000000000000E+000  2.651247573289247E-002
  2.386122815960322E-002  2.120998058631397E-002  1.855873301302472E-002
  1.590748543973548E-002  1.325623786644623E-002  1.060499029315698E-002
  7.953742719867740E-003  5.302495146578492E-003  2.651247573289244E-003
  0.000000000000000E+000  2.651247573289247E-002  2.386122815960322E-002
  2.120998058631397E-002  1.855873301302472E-002  1.590748543973548E-002
  1.325623786644623E-002  1.060499029315698E-002  7.953742719867740E-003
  5.302495146578492E-003  2.651247573289244E-003  0.000000000000000E+000
  2.651247573289247E-002  2.386122815960322E-002  2.120998058631397E-002
  1.855873301302472E-002  1.590748543973548E-002  1.325623786644623E-002
  1.060499029315698E-002  7.953742719867740E-003  5.302495146578492E-003
  2.651247573289244E-003  0.000000000000000E+000  2.651247573289247E-002
  2.386122815960322E-002  2.120998058631397E-002  1.855873301302472E-002
  1.590748543973548E-002  1.325623786644623E-002  1.060499029315698E-002
  7.953742719867740E-003  5.302495146578492E-003  2.651247573289244E-003
  0.000000000000000E+000  2.651247573289247E-002  2.386122815960322E-002
  2.120998058631397E-002  1.855873301302472E-002  1.590748543973548E-002
  1.325623786644623E-002  1.060499029315698E-002  7.953742719867740E-003
  5.302495146578492E-003  2.651247573289244E-003  0.000000000000000E+000
  2.651247573289247E-002  2.386122815960322E-002  2.120998058631397E-002
  1.855873301302472E-002  1.590748543973548E-002  1.325623786644623E-002
  1.060499029315698E-002  7.953742719867740E-003  5.302495146578492E-003
  2.651247573289244E-003  0.000000000000000E+000  2.651247573289247E-002
  2.386122815960322E-002  2.120998058631397E-002  1.855873301302472E-002
  1.590748543973548E-002  1.325623786644623E-002  1.060499029315698E-002
  7.953742719867740E-003  5.302495146578492E-003  2.651247573289244E-003
  0.000000000000000E+000
  0.192532283562553       0.270175449234971       0.327329316526569     
  0.373805066713021       0.412944894257228       0.445149917393626     
  0.470468022033106       0.489980038636485       0.504959775503243     
  0.515604845485762       0.321670321601242       0.457842822628912     
  0.556522497530255       0.636444862055660       0.703865202803782     
  0.759681049418743       0.803939629920944       0.838386939687467     
  0.865200314932855       0.885862797529816       0.438627488947236     
  0.637341467977927       0.779243448806594       0.893449116605850     
  0.989827352637866        1.07049609617153        1.13558911848684     
   1.18733768771922        1.22754073841241        1.25570776220971     
  0.543114660934375       0.798702686715180       0.980949598733142     
   1.12635771621327        1.24814196930042        1.35010513498908     
   1.43340228990026        1.50142434456654        1.55389225666829     
   1.58830038577683       0.641239546593241       0.948299382775858     
   1.16862202783938        1.34378484057819        1.48840259224820     
   1.60766776705222        1.70590122900886        1.78586410593973     
   1.84726598068185        1.88628834422723       0.736245990931094     
   1.09149093465082        1.34682123416191        1.54854218748647     
   1.71413776044855        1.85157411320337        1.96448594334976     
   2.05501642149800        2.12364116589670        2.16641777956974     
  0.828004333088487        1.22778916619754        1.51519089202259     
   1.74273539818536        1.92932021679327        2.08372151519494     
   2.21029590099023        2.31136059062098        2.38707888382411     
   2.43367015381606       0.917559017000900        1.35968260544301     
   1.67739245969211        1.92861297834226        2.13445044559899     
   2.30463230473613        2.44418690877722        2.55563521432174     
   2.63911147591056        2.69062911824816        1.00621989936747     
   1.48961133650386        1.83592326981474        2.10927779476552     
   2.33299904827748        2.51790910784880        2.66969368103575     
   2.79093576067921        2.88193595014712        2.93848022837209     
   1.09444368039086        1.61820667881735        1.99220824327581     
   2.28658592212981        2.52682375834538        2.72521080975328     
   2.88810551762694        3.01845170540412        3.11647865683008     
   3.17762437817108        1.18133896105839        1.74457910210602     
   2.14519232758755        2.45931234423368        2.71508480425128     
   2.92602078586753        3.09897445761820        3.23738098732825     
   3.34159925064642        3.40689355797265        1.26541621527719     
   1.86651126574100        2.29237851335650        2.62511366321916     
   2.89524599137143        3.11740416641226        3.29920934153688     
   3.44453464551403        3.55393908053700        3.62273167479935     
   1.34443054029219        1.98079514359978        2.43000038445227     
   2.77965444407582        3.06246368490785        3.29429297985825     
   3.48359105930544        3.63460121600989        3.74811083392571     
   3.81958006720897        1.41552125124065        2.08314055475239     
   2.55263667193462        2.91666079554347        3.20996941234559     
   3.44956569700695        3.64460785161168        3.79976022043126     
   3.91611125246785        3.98933305271765        1.47493182729560     
   2.16784783201315        2.65316245322205        3.02792717384373     
   3.32869907851146        3.57344479418554        3.77193455917216     
   3.92928898038252        4.04695009643129        4.12087261363203     
   1.51780649716444        2.22767993358050        2.72262592584538     
   3.10311963175019        3.40714597820418        3.65346816261322     
   3.85239660805244        4.00948073627017        4.12654273739167     
   4.19993878490874        1.53834269799499        2.25407025513809     
   2.75047753217304        3.13010344237445        3.43186338740087     
   3.67510352746430        3.87058883499617        4.02425641617594     
   4.13831573214302        4.20967974568431        1.53105647446520     
   2.23892211291727        2.72666473935739        3.09717004735391     
   3.38970488084607        3.62395603881084        3.81104032808599     
   3.95727093733638        4.06529256271694        4.13273917543742     
   1.49506044332305        2.18029625711852        2.64783793085120     
   2.99935282217151        3.27405970720027        3.49187253850862     
   3.66421281427705        3.79775353796908        3.89564208688095     
   3.95648603781088        1.44704670419171        2.09731568009176     
   2.53184731383584        2.85210172054518        3.09798558281701     
   3.28990518058661        3.43954132298248        3.55379209155293     
   3.63619678026193        3.68642210248053        1.41071207350228     
   2.01703057333499        2.40584727085222        2.68252080669158     
   2.88926744676854        3.04734991856017        3.16814567399257     
   3.25818319007607        3.32108329466754        3.35753392530984     
   1.35072846493510        1.89235562463137        2.22084007041413     
   2.44507596592721        2.60797272449274        2.73055145236567     
   2.82297463879326        2.89057983256128        2.93625943017252     
   2.96085100301546        1.20246146728736        1.63981283986308     
   1.89157466904948        2.05893499762798        2.17868031605432     
   2.26838061637810        2.33590240238141        2.38509944241345     
   2.41785001339588        2.43536782363317       0.936312396713057     
   1.23403907485916        1.40219114986181        1.51367753766235     
   1.59358786516136        1.65371584912191        1.69928947281441     
   1.73277573671613        1.75563884282436        1.77126870844263     
  0.572835561653517       0.739829995780759       0.834959243000985     
  0.898316563459000       0.943885359570725       0.978292250347657     
   1.00446140485716        1.02367467604201        1.03647064196377     
   1.04335777021060     
 Zone I=   41 J=1    K=1  T="NearWake"
 DATAPACKING=BLOCK
 VARLOCATION=([4]=CELLCENTERED)
  0.974860173574195       0.859625412603130       0.712316934765825     
  0.545813262440379       0.362881119633018       0.171725679638094     
 -2.762692644015462E-002 -0.218516867114958      -0.397861182227483     
 -0.561604908587764      -0.706349213653311      -0.829776325939197     
 -0.930601337066161       -1.00846833607616       -1.06381459013394     
  -1.09772338947552       -1.11177849547005       -1.10793449978984     
  -1.08842748292379       -1.05583146977362       -1.01425486462841     
 -0.962985693787885      -0.903853193297045      -0.846139298770796     
 -0.771856696360552      -0.716041444600102      -0.623597023161904     
 -0.568193927095820      -0.499319832687207      -0.431686045952846     
 -0.371337271067143      -0.306062209578471      -0.250156022038449     
 -0.203705455078797      -0.157382254886573      -0.114091015964623     
 -7.934420657802810E-002 -5.035561702055291E-002 -2.912807141266375E-002
 -8.086026173257283E-003  2.406892028082879E-003
 -0.467970052877463      -0.655523806610054      -0.809925187853765     
 -0.934681255405907       -1.02525086428644       -1.07928427709613     
  -1.09621665726939       -1.07793629889000       -1.02824562925276     
 -0.951448278769626      -0.852016020236285      -0.734679698015581     
 -0.604150166629207      -0.464927401414905      -0.321154777778680     
 -0.176517918834332      -3.418721249074441E-002  0.103200945082643     
  0.233520746437245       0.355052348807290       0.465774868928108     
  0.568380867167380       0.661557760432421       0.747654481004888     
  0.817258340178952       0.896110096466209       0.919032594126796     
  0.980826009247562        1.03322274326034        1.06326749761693     
   1.08151503536169        1.09907828309610        1.11387755501539     
   1.11853100230034        1.11803198115663        1.12838358819232     
   1.13934903732010        1.11907830357249        1.06212450329800     
   1.06223256206496        1.06334547622387     
 -1.971676264754571E-003 -1.971676264754571E-003 -1.994871248814220E-002
 -3.236699226915313E-002 -4.237854142085942E-002 -4.497276161148531E-002
 -4.085986113287127E-002 -4.482134555395082E-002 -4.695331892008058E-002
 -4.853493728202559E-002 -4.969719595587069E-002 -5.056347561617700E-002
 -5.122056700249223E-002 -5.172307647740807E-002 -5.209904930415387E-002
 -5.235126312731370E-002 -5.245441791852146E-002 -5.234539721859289E-002
 -5.189632572806590E-002 -5.083378245291331E-002 -4.819155205187282E-002
 -5.907866146530336E-002 -5.282327007005230E-002 -6.783678938027483E-002
 -5.901973150228361E-002 -5.253258790397890E-002 -6.989490317093665E-002
 -5.484819605789135E-002 -3.862601914396841E-002 -4.356950271929449E-002
 -4.244164249210479E-002 -2.968731936543848E-002 -3.286171425756537E-002