 Title = "Wing and Tip"
 VARIABLES = "X" "Y" "Z" "GAM"
 Zone I=   11 J=   26 K=1  T="Blade"
 DATAPACKING=BLOCK
 VARLOCATION=([4]=CELLCENTERED)
  0.267954369281531       0.255171372140324       0.242388374999117     
  0.229605377857910       0.216822380716702       0.204039383575495     
  0.191256386434288       0.178473389293081       0.165690392151874     
  0.152907395010667       0.140124397869460       0.270716013286281     
  0.257933016145074       0.245150019003867       0.232367021862660     
  0.219584024721453       0.206801027580245       0.194018030439038     
  0.181235033297831       0.168452036156624       0.155669039015417     
  0.142886041874210       0.278957392524850       0.266174395383643     
  0.253391398242436       0.240608401101229       0.227825403960022     
  0.215042406818814       0.202259409677607       0.189476412536400     
  0.176693415395193       0.163910418253986       0.151127421112779     
  0.292548535523485       0.279765538382278       0.266982541241071     
  0.254199544099864       0.241416546958657       0.228633549817449     
  0.215850552676242       0.203067555535035       0.190284558393828     
  0.177501561252621       0.164718564111414       0.311275101838142     
  0.298492104696934       0.285709107555728       0.272926110414520     
  0.260143113273313       0.247360116132106       0.234577118990899     
  0.221794121849692       0.209011124708484       0.196228127567278     
  0.183445130426070       0.334841762331330       0.322058765190122     
  0.309275768048915       0.296492770907708       0.283709773766501     
  0.270926776625294       0.258143779484087       0.245360782342880     
  0.232577785201672       0.219794788060465       0.207011790919258     
  0.362876856689030       0.350093859547823       0.337310862406616     
  0.324527865265409       0.311744868124202       0.298961870982995     
  0.286178873841787       0.273395876700580       0.260612879559373     
  0.247829882418166       0.235046885276959       0.394938254725870     
  0.382155257584663       0.369372260443455       0.356589263302248     
  0.343806266161041       0.331023269019834       0.318240271878627     
  0.305457274737420       0.292674277596212       0.279891280455006     
  0.267108283313798       0.430520329042256       0.417737331901049     
  0.404954334759842       0.392171337618635       0.379388340477427     
  0.366605343336220       0.353822346195013       0.341039349053806     
  0.328256351912599       0.315473354771392       0.302690357630184     
  0.469061929070519       0.456278931929311       0.443495934788104     
  0.430712937646897       0.417929940505690       0.405146943364483     
  0.392363946223275       0.379580949082068       0.366797951940861     
  0.354014954799654       0.341231957658447       0.509955230754576     
  0.497172233613369       0.484389236472161       0.471606239330954     
  0.458823242189747       0.446040245048540       0.433257247907333     
  0.420474250766126       0.407691253624919       0.394908256483712     
  0.382125259342504       0.552555322298397       0.539772325157189     
  0.526989328015982       0.514206330874775       0.501423333733568     
  0.488640336592360       0.475857339451153       0.463074342309946     
  0.450291345168739       0.437508348027531       0.424725350886325     
  0.596190374810272       0.583407377669065       0.570624380527858     
  0.557841383386651       0.545058386245443       0.532275389104237     
  0.519492391963029       0.506709394821822       0.493926397680615     
  0.481143400539408       0.468360403398201       0.640172237445775     
  0.627389240304568       0.614606243163360       0.601823246022153     
  0.589040248880947       0.576257251739740       0.563474254598532     
  0.550691257457325       0.537908260316117       0.525125263174910     
  0.512342266033703       0.683807289957651       0.671024292816444     
  0.658241295675236       0.645458298534029       0.632675301392822     
  0.619892304251615       0.607109307110408       0.594326309969200     
  0.581543312827994       0.568760315686787       0.555977318545579     
  0.726407381501471       0.713624384360264       0.700841387219057     
  0.688058390077850       0.675275392936643       0.662492395795436     
  0.649709398654228       0.636926401513021       0.624143404371814     
  0.611360407230607       0.598577410089400       0.767300683185529     
  0.754517686044322       0.741734688903114       0.728951691761907     
  0.716168694620700       0.703385697479493       0.690602700338285     
  0.677819703197079       0.665036706055871       0.652253708914665     
  0.639470711773457       0.805842283213791       0.793059286072583     
  0.780276288931377       0.767493291790169       0.754710294648962     
  0.741927297507755       0.729144300366548       0.716361303225341     
  0.703578306084134       0.690795308942926       0.678012311801719     
  0.841424357530177       0.828641360388970       0.815858363247763     
  0.803075366106555       0.790292368965349       0.777509371824141     
  0.764726374682934       0.751943377541727       0.739160380400520     
  0.726377383259313       0.713594386118106       0.873485755567017     
  0.860702758425809       0.847919761284602       0.835136764143395     
  0.822353767002188       0.809570769860981       0.796787772719774     
  0.784004775578566       0.771221778437359       0.758438781296152     
  0.745655784154945       0.901520849924718       0.888737852783510     
  0.875954855642302       0.863171858501096       0.850388861359889     
  0.837605864218681       0.824822867077475       0.812039869936268     
  0.799256872795061       0.786473875653853       0.773690878512646     
  0.925087510417904       0.912304513276699       0.899521516135490     
  0.886738518994284       0.873955521853076       0.861172524711869     
  0.848389527570662       0.835606530429455       0.822823533288247     
  0.810040536147040       0.797257539005834       0.943814076732562     
  0.931031079591354       0.918248082450147       0.905465085308940     
  0.892682088167734       0.879899091026526       0.867116093885318     
  0.854333096744112       0.841550099602904       0.828767102461698     
  0.815984105320490       0.957405219731197       0.944622222589988     
  0.931839225448783       0.919056228307575       0.906273231166368     
  0.893490234025161       0.880707236883953       0.867924239742747     
  0.855141242601540       0.842358245460332       0.829575248319125     
  0.965646598969765       0.952863601828558       0.940080604687351     
  0.927297607546144       0.914514610404938       0.901731613263730     
  0.888948616122522       0.876165618981315       0.863382621840109     
  0.850599624698902       0.837816627557694       0.968408242974516     
  0.955625245833309       0.942842248692102       0.930059251550894     
  0.917276254409688       0.904493257268480       0.891710260127272     
  0.878927262986065       0.866144265844859       0.853361268703651     
  0.840578271562445     
  9.620923295589865E-003 -4.252373731181348E-003 -1.812567075795250E-002
 -3.199896778472367E-002 -4.587226481149478E-002 -5.974556183826588E-002
 -7.361885886503702E-002 -8.749215589180837E-002 -0.101365452918579     
 -0.115238749945351      -0.129112046972122       7.076316389990264E-003
 -6.796980636780719E-003 -2.067027766355188E-002 -3.454357469032308E-002
 -4.841687171709430E-002 -6.229016874386533E-002 -7.616346577063648E-002
 -9.003676279740774E-002 -0.103910059824179      -0.117783356850950     
 -0.131656653877721      -5.173743558314979E-004 -1.439067138260279E-002
 -2.826396840937397E-002 -4.213726543614502E-002 -5.601056246291625E-002
 -6.988385948968741E-002 -8.375715651645861E-002 -9.763045354322977E-002
 -0.111503750570001      -0.125377047596772      -0.139250344623543     
 -1.304039190256412E-002 -2.691368892933527E-002 -4.078698595610666E-002
 -5.466028298287768E-002 -6.853358000964882E-002 -8.240687703641995E-002
 -9.628017406319118E-002 -0.110153471089962      -0.124026768116733     
 -0.137900065143505      -0.151773362170276      -3.029524078260686E-002
 -4.416853780937819E-002 -5.804183483614921E-002 -7.191513186292027E-002
 -8.578842888969156E-002 -9.966172591646277E-002 -0.113535022943234     
 -0.127408319970005      -0.141281616996776      -0.155154914023547     
 -0.169028211050318      -5.200980172157434E-002 -6.588309874834553E-002
 -7.975639577511662E-002 -9.362969280188796E-002 -0.107502989828659     
 -0.121376286855430      -0.135249583882201      -0.149122880908973     
 -0.162996177935743      -0.176869474962515      -0.190742771989286     
 -7.784162312180930E-002 -9.171492014858043E-002 -0.105588217175352     
 -0.119461514202123      -0.133334811228894      -0.147208108255665     
 -0.161081405282436      -0.174954702309207      -0.188827999335979     
 -0.202701296362750      -0.216574593389521      -0.107383321728648     
 -0.121256618755419      -0.135129915782190      -0.149003212808961     
 -0.162876509835732      -0.176749806862504      -0.190623103889275     
 -0.204496400916046      -0.218369697942817      -0.232242994969588     
 -0.246116291996360      -0.140169007307705      -0.154042304334476     
 -0.167915601361247      -0.181788898388018      -0.195662195414790     
 -0.209535492441560      -0.223408789468332      -0.237282086495103     
 -0.251155383521874      -0.265028680548645      -0.278901977575416     
 -0.175681630012179      -0.189554927038950      -0.203428224065721     
 -0.217301521092492      -0.231174818119264      -0.245048115146035     
 -0.258921412172806      -0.272794709199577      -0.286668006226348     
 -0.300541303253119      -0.314414600279890      -0.213361134567809     
 -0.227234431594580      -0.241107728621351      -0.254981025648122     
 -0.268854322674893      -0.282727619701664      -0.296600916728436     
 -0.310474213755207      -0.324347510781978      -0.338220807808749     
 -0.352094104835520      -0.252613292679107      -0.266486589705878     
 -0.280359886732649      -0.294233183759419      -0.308106480786191     
 -0.321979777812962      -0.335853074839733      -0.349726371866505     
 -0.363599668893275      -0.377472965920046      -0.391346262946818     
 -0.292819074364555      -0.306692371391325      -0.320565668418097     
 -0.334438965444868      -0.348312262471639      -0.362185559498410     
 -0.376058856525181      -0.389932153551953      -0.403805450578723     
 -0.417678747605495      -0.431552044632266      -0.333344410429203     
 -0.347217707455975      -0.361091004482745      -0.374964301509517     
 -0.388837598536288      -0.402710895563059      -0.416584192589830     
 -0.430457489616601      -0.444330786643373      -0.458204083670143     
 -0.472077380696915      -0.373550192114651      -0.387423489141423     
 -0.401296786168193      -0.415170083194965      -0.429043380221736     
 -0.442916677248507      -0.456789974275278      -0.470663271302049     
 -0.484536568328820      -0.498409865355592      -0.512283162382363     
 -0.412802350225949      -0.426675647252720      -0.440548944279491     
 -0.454422241306262      -0.468295538333033      -0.482168835359805     
 -0.496042132386576      -0.509915429413347      -0.523788726440117     
 -0.537662023466889      -0.551535320493661      -0.450481854781579     
 -0.464355151808350      -0.478228448835121      -0.492101745861892     
 -0.505975042888664      -0.519848339915434      -0.533721636942205     
 -0.547594933968977      -0.561468230995747      -0.575341528022519     
 -0.589214825049290      -0.485994477486053      -0.499867774512824     
 -0.513741071539595      -0.527614368566366      -0.541487665593137     
 -0.555360962619909      -0.569234259646680      -0.583107556673451     
 -0.596980853700223      -0.610854150726993      -0.624727447753764     
 -0.518780163065110      -0.532653460091881      -0.546526757118652     
 -0.560400054145423      -0.574273351172194      -0.588146648198965     
 -0.602019945225737      -0.615893242252508      -0.629766539279279     
 -0.643639836306050      -0.657513133332821      -0.548321861671948     
 -0.562195158698719      -0.576068455725490      -0.589941752752261     
 -0.603815049779033      -0.617688346805804      -0.631561643832575     
 -0.645434940859346      -0.659308237886118      -0.673181534912888     
 -0.687054831939660      -0.574153683072183      -0.588026980098956     
 -0.601900277125725      -0.615773574152496      -0.629646871179268     
 -0.643520168206039      -0.657393465232810      -0.671266762259582     
 -0.685140059286352      -0.699013356313123      -0.712886653339895     
 -0.595868244011151      -0.609741541037922      -0.623614838064693     
 -0.637488135091464      -0.651361432118234      -0.665234729145007     
 -0.679108026171778      -0.692981323198549      -0.706854620225319     
 -0.720727917252091      -0.734601214278862      -0.613123092891194     
 -0.626996389917964      -0.640869686944736      -0.654742983971507     
 -0.668616280998278      -0.682489578025049      -0.696362875051820     
 -0.710236172078591      -0.724109469105363      -0.737982766132135     
 -0.751856063158905      -0.625646110437926      -0.639519407464696     
 -0.653392704491469      -0.667266001518239      -0.681139298545011     
 -0.695012595571782      -0.708885892598553      -0.722759189625324     
 -0.736632486652095      -0.750505783678866      -0.764379080705637     
 -0.633239801183748      -0.647113098210519      -0.660986395237290     
 -0.674859692264062      -0.688732989290833      -0.702606286317603     
 -0.716479583344375      -0.730352880371146      -0.744226177397917     
 -0.758099474424688      -0.771972771451459      -0.635784408089348     
 -0.649657705116118      -0.663531002142890      -0.677404299169660     
 -0.691277596196432      -0.705150893223203      -0.719024190249974     
 -0.732897487276745      -0.746770784303517      -0.760644081330288     
 -0.774517378357060     
  2.651247573289247E-002  2.386122815960322E-002  2.120998058631397E-002
  1.855873301302472E-002  1.590748543973548E-002  1.325623786644623E-002
  1.060499029315698E-002  7.953742719867740E-003  5.302495146578492E-003
  2.651247573289244E-003  0.000000000000000E+000  2.651247573289247E-002
  2.386122815960322E-002  2.120998058631397E-002  1.855873301302472E-002
  1.590748543973548E-002  1.325623786644623E-002  1.060499029315698E-002
  7.953742719867740E-003  5.302495146578492E-003  2.651247573289244E-003
  0.000000000000000E+000  2.651247573289247E-002  2.386122815960322E-002
  2.120998058631397E-002  1.855873301302472E-002  1.590748543973548E-002
  1.325623786644623E-002  1.060499029315698E-002  7.953742719867740E-003
  5.302495146578492E-003  2.651247573289244E-003  0.000000000000000E+000
  2.651247573289247E-002  2.386122815960322E-002  2.120998058631397E-002
  1.855873301302472E-002  1.590748543973548E-002  1.325623786644623E-002
  1.060499029315698E-002  7.953742719867740E-003  5.302495146578492E-003
  2.651247573289244E-003  0.000000000000000E+000  2.651247573289247E-002
  2.386122815960322E-002  2.120998058631397E-002  1.855873301302472E-002
  1.590748543973548E-002  1.325623786644623E-002  1.060499029315698E-002
  7.953742719867740E-003  5.302495146578492E-003  2.651247573289244E-003
  0.000000000000000E+000  2.651247573289247E-002  2.386122815960322E-002
  2.120998058631397E-002  1.855873301302472E-002  1.590748543973548E-002
  1.325623786644623E-002  1.060499029315698E-002  7.953742719867740E-003
  5.302495146578492E-003  2.651247573289244E-003  0.000000000000000E+000
  2.651247573289247E-002  2.386122815960322E-002  2.120998058631397E-002
  1.855873301302472E-002  1.590748543973548E-002  1.325623786644623E-002
  1.060499029315698E-002  7.953742719867740E-003  5.302495146578492E-003
  2.651247573289244E-003  0.000000000000000E+000  2.651247573289247E-002
  2.386122815960322E-002  2.120998058631397E-002  1.855873301302472E-002
  1.590748543973548E-002  1.325623786644623E-002  1.060499029315698E-002
  7.953742719867740E-003  5.302495146578492E-003  2.651247573289244E-003
  0.000000000000000E+000  2.651247573289247E-002  2.386122815960322E-002
  2.120998058631397E-002  1.855873301302472E-002  1.590748543973548E-002
  1.325623786644623E-002  1.060499029315698E-002  7.953742719867740E-003
  5.302495146578492E-003  2.651247573289244E-003  0.000000000000000E+000
  2.651247573289247E-002  2.386122815960322E-002  2.120998058631397E-002
  1.855873301302472E-002  1.590748543973548E-002  1.325623786644623E-002
  1.060499029315698E-002  7.953742719867740E-003  5.302495146578492E-003
  2.651247573289244E-003  0.000000000000000E+000  2.651247573289247E-002
  2.386122815960322E-002  2.120998058631397E-002  1.855873301302472E-002
  1.590748543973548E-002  1.325623786644623E-002  1.060499029315698E-002
  7.953742719867740E-003  5.302495146578492E-003  2.651247573289244E-003
  0.000000000000000E+000  2.651247573289247E-002  2.386122815960322E-002
  2.120998058631397E-002  1.855873301302472E-002  1.590748543973548E-002
  1.325623786644623E-002  1.060499029315698E-002  7.953742719867740E-003
  5.302495146578492E-003  2.651247573289244E-003  0.000000000000000E+000
  2.651247573289247E-002  2.386122815960322E-002  2.120998058631397E-002
  1.855873301302472E-002  1.590748543973548E-002  1.325623786644623E-002
  1.060499029315698E-002  7.953742719867740E-003  5.302495146578492E-003
  2.651247573289244E-003  0.000000000000000E+000  2.651247573289247E-002
  2.386122815960322E-002  2.120998058631397E-002  1.855873301302472E-002
  1.590748543973548E-002  1.325623786644623E-002  1.060499029315698E-002
  7.953742719867740E-003  5.302495146578492E-003  2.651247573289244E-003
  0.000000000000000E+000  2.651247573289247E-002  2.386122815960322E-002
  2.120998058631397E-002  1.855873301302472E-002  1.590748543973548E-002
  1.325623786644623E-002  1.060499029315698E-002  7.953742719867740E-003
  5.302495146578492E-003  2.651247573289244E-003  0.000000000000000E+000
  2.651247573289247E-002  2.386122815960322E-002  2.120998058631397E-002
  1.855873301302472E-002  1.590748543973548E-002  1.325623786644623E-002
  1.060499029315698E-002  7.953742719867740E-003  5.302495146578492E-003
  2.651247573289244E-003  0.000000000000000E+000  2.651247573289247E-002
  2.386122815960322E-002  2.120998058631397E-002  1.855873301302472E-002
  1.590748543973548E-002  1.325623786644623E-002  1.060499029315698E-002
  7.953742719867740E-003  5.302495146578492E-003  2.651247573289244E-003
  0.000000000000000E+000  2.651247573289247E-002  2.386122815960322E-002
  2.120998058631397E-002  1.855873301302472E-002  1.590748543973548E-002
  1.325623786644623E-002  1.060499029315698E-002  7.953742719867740E-003
  5.302495146578492E-003  2.651247573289244E-003  0.000000000000000E+000
  2.651247573289247E-002  2.386122815960322E-002  2.120998058631397E-002
  1.855873301302472E-002  1.590748543973548E-002  1.325623786644623E-002
  1.060499029315698E-002  7.953742719867740E-003  5.302495146578492E-003
  2.651247573289244E-003  0.000000000000000E+000  2.651247573289247E-002
  2.386122815960322E-002  2.120998058631397E-002  1.855873301302472E-002
  1.590748543973548E-002  1.325623786644623E-002  1.060499029315698E-002
  7.953742719867740E-003  5.302495146578492E-003  2.651247573289244E-003
  0.000000000000000E+000  2.651247573289247E-002  2.386122815960322E-002
  2.120998058631397E-002  1.855873301302472E-002  1.590748543973548E-002
  1.325623786644623E-002  1.060499029315698E-002  7.953742719867740E-003
  5.302495146578492E-003  2.651247573289244E-003  0.000000000000000E+000
  2.651247573289247E-002  2.386122815960322E-002  2.120998058631397E-002
  1.855873301302472E-002  1.590748543973548E-002  1.325623786644623E-002
  1.060499029315698E-002  7.953742719867740E-003  5.302495146578492E-003
  2.651247573289244E-003  0.000000000000000E+000  2.651247573289247E-002
  2.386122815960322E-002  2.120998058631397E-002  1.855873301302472E-002
  1.590748543973548E-002  1.325623786644623E-002  1.060499029315698E-002
  7.953742719867740E-003  5.302495146578492E-003  2.651247573289244E-003
  0.000000000000000E+000  2.651247573289247E-002  2.386122815960322E-002
  2.120998058631397E-002  1.855873301302472E-002  1.590748543973548E-002
  1.325623786644623E-002  1.060499029315698E-002  7.953742719867740E-003
  5.302495146578492E-003  2.651247573289244E-003  0.000000000000000E+000
  2.651247573289247E-002  2.386122815960322E-002  2.120998058631397E-002
  1.855873301302472E-002  1.590748543973548E-002  1.325623786644623E-002
  1.060499029315698E-002  7.953742719867740E-003  5.302495146578492E-003
  2.651247573289244E-003  0.000000000000000E+000  2.651247573289247E-002
  2.386122815960322E-002  2.120998058631397E-002  1.855873301302472E-002
  1.590748543973548E-002  1.325623786644623E-002  1.060499029315698E-002
  7.953742719867740E-003  5.302495146578492E-003  2.651247573289244E-003
  0.000000000000000E+000
  0.204344403888605       0.282725495558459       0.339093855333234     
  0.384644356280156       0.422425998844261       0.453758335157397     
  0.479161994391984       0.500310979857783       0.519656075813936     
  0.537158675707014       0.331831768130379       0.468098135981877     
  0.565283831404733       0.643638402719241       0.708701354452744     
  0.762917905121481       0.807182660715398       0.844213712269507     
  0.878303506617781       0.910724382741556       0.416706854585474     
  0.608323619131138       0.746488163914519       0.858179740498380     
  0.951448116263166        1.03006266331962        1.09558295990552     
   1.15048652662694        1.19956197088887        1.24221462090648     
  0.446476988544085       0.671397695066020       0.840145730289328     
  0.979013321279486        1.09661270036166        1.19708287808329     
   1.28206479564578        1.35302773350960        1.41306980296528     
   1.46058028885448       0.429730578671679       0.660504812092266     
  0.841025015826385       0.993615848735187        1.12531580593991     
   1.23906866549736        1.33621919122743        1.41771059675064     
   1.48420463747109        1.53283246717076       0.391115151761565     
  0.608585650834174       0.782986023415345       0.933102482372452     
   1.06447824881833        1.17923483776501        1.27817871758463     
   1.36115628304937        1.42734524570717        1.47354324216425     
  0.363419186825483       0.564436801731567       0.725431439345610     
  0.864190996601865       0.986042388596161        1.09290071456254     
   1.18538451086057        1.26323597196600        1.32513931847345     
   1.36771040429502       0.366779677861841       0.562305746005720     
  0.715045405479359       0.844543264256026       0.957144737319344     
   1.05541092993027        1.14033251428665        1.21192606333366     
   1.26910451002075        1.30841589044191       0.404702678075731     
  0.611408318686823       0.767691624101693       0.897041565331030     
   1.00761916472065        1.10301740742745        1.18484663582654     
   1.25348783899667        1.30810926918745        1.34550781358471     
  0.468091190250931       0.699949333450315       0.870801006317452     
   1.00924711254217        1.12553454618368        1.22437098624674     
   1.30807576746949        1.37756128078142        1.43243377537583     
   1.46983957460119       0.545588047573814       0.810707059591483     
   1.00266226496172        1.15578354169341        1.28262645165552     
   1.38910257797071        1.47824852043099        1.55146145551910     
   1.60870860978480        1.64737393530329       0.629750759874717     
  0.932075676166217        1.14837682738722        1.31894459751594     
   1.45870473904906        1.57483187488871        1.67112878581220     
   1.74948392277457        1.81017093169284        1.85069179133926     
  0.716922372122738        1.05819462210904        1.30028370041494     
   1.48954959537249        1.64329754709782        1.76995500386854     
   1.87408818846374        1.95806747356530        2.02245242838211     
   2.06484356910996       0.806214916490310        1.18733987777141     
   1.45578990408460        1.66413625596082        1.83211720586567     
   1.96943290811100        2.08141073685607        2.17090330949268     
   2.23875655640150        2.28267025093927       0.899576370239386     
   1.32175632427921        1.61687399381738        1.84412209742293     
   2.02587302959390        2.17322831712302        2.29235504073590     
   2.38662534125076        2.45719915250422        2.50193205514753     
   1.00138914624312        1.46698222582644        1.78930173157938     
   2.03505712146550        2.22965179704292        2.38579821932917     
   2.51064899731232        2.60822174978014        2.68010952435204     
   2.72447923573429        1.11687968277683        1.62926992789968     
   1.97917928573277        2.24230599414585        2.44776231790395     
   2.61031448561851        2.73843125792636        2.83701553947874     
   2.90825237472100        2.95078290852200        1.24354856351815     
   1.80385892247585        2.17949867316498        2.45674674401626     
   2.66925858377023        2.83438514195579        2.96220955101598     
   3.05867952236058        3.12670856375871        3.16560584122186     
   1.36005469452543        1.96063063756748        2.35494517661013     
   2.63988510957600        2.85369582856677        3.01629211327556     
   3.13935628852106        3.22990124430883        3.29162952382301     
   3.32473606082234        1.43840175513480        2.05850157649150     
   2.45580107675476        2.73609022160710        2.94152443681934     
   3.09409385368500        3.20668271537095        3.28706453360599     
   3.33954632098816        3.36528162693990        1.45320627079486     
   2.05896998094024        2.43496245282039        2.69290739121605     
   2.87737948009936        3.01129242353618        3.10781371669884     
   3.17473739617080        3.21633654699204        3.23436053754472     
   1.38653471391281        1.93426270200355        2.26008798289531     
   2.47711651971131        2.62912754394015        2.73765367870838     
   2.81460877027631        2.86689999019176        2.89801943656378     
   2.90951062735531        1.22423630256448        1.66557147799008     
   1.91628194694377        2.08003411151837        2.19362364521319     
   2.27425567253491        2.33117315539035        2.36961020406515     
   2.39258614660596        2.40176936703782       0.950332290198566     
   1.24962284433659        1.41660065729830        1.52566271176525     
   1.60140916627158        1.65528082985731        1.69342571560754     
   1.71943197425749        1.73592821721542        1.74665336615622     
  0.581212115748222       0.748743705477670       0.843015385967137     
  0.904902870954882       0.948006286314258       0.978723641977300     
   1.00050321995628        1.01534705729384        1.02455910566350     
   1.02886003096964     
 Zone I=   91 J=1    K=1  T="NearWake"
 DATAPACKING=BLOCK
 VARLOCATION=([4]=CELLCENTERED)
  0.787564979006092       0.580027290320447       0.332152455302142     
  7.201458060471165E-002 -0.187673355034680      -0.431638862628977     
 -0.645505075535275      -0.820236517269302      -0.941878294473397     
  -1.01523504260694       -1.01737911659984      -0.976933079763749     
 -0.856581401237588      -0.700866099606140      -0.498477968733268     
 -0.253067771948532       7.209711875346533E-003  0.299664598044984     
  0.552152596936492       0.812178884554938       0.984725718191359     
   1.12706460486058        1.22296664488764        1.19501750134734     
   1.12796335921734       0.944375708354399       0.745342699068043     
  0.497529712065495       0.205935455490797      -0.103520378203573     
 -0.422769790722900      -0.680585254377337      -0.897988430993613     
  -1.05513695212923       -1.13065803538626       -1.16246188312539     
  -1.10690223961161      -0.976825088257713      -0.816476236511347     
 -0.608533795184520      -0.373710367647910      -0.105000668647690     
  0.183461636369082       0.455682824317204       0.685796375543815     
  0.853496385997126        1.01434829941745        1.08638042015971     
   1.09688044583045        1.11403716027765        1.03195699944631     
  0.954934140259879       0.778516472565359       0.619055793586065     
  0.439825673417822       0.263733064615442       4.280893305690470E-002
 -0.176615162389298      -0.379324464426128      -0.541239484616818     
 -0.675060291045562      -0.826819217260588      -0.930612894999245     
  -1.00745974069268       -1.07888147364575       -1.10122492271821     
  -1.12674298720151       -1.12036856030617       -1.09162511017759     
  -1.03887378364902       -1.04225037522204      -0.957184417234780     
 -0.926587713449895      -0.839913127870034      -0.779200251714213     
 -0.723553307442755      -0.679293149844973      -0.593614316560477     
 -0.531855547727766      -0.469258373271969      -0.415504056211981     
 -0.367967738154379      -0.327290057929558      -0.283178388175886     
 -0.239420753472579      -0.187007587704609      -0.136175174199921     
 -0.107078345163495      -0.107689759743378      -8.971038931944872E-002
 -7.302858094230118E-002
 -0.744746998585740      -0.915720603798841       -1.01485240295656     
  -1.05261578333330       -1.02749305108984      -0.942998533628796     
 -0.800343601138973      -0.618751011300296      -0.397530908545916     
 -0.152249440206520       0.102908964312164       0.354938379406877     
  0.570388659015446       0.776811832664992       0.927708073639681     
   1.04636217665628        1.11151127977196        1.09373489583714     
  0.994442945346719       0.851146131501915       0.636073037516218     
  0.357965175313252       8.947327468876307E-002 -0.210483202807813     