 Title = "Wing and Tip"
 VARIABLES = "X" "Y" "Z" "GAM"
 Zone I=   11 J=   26 K=1  T="Blade"
 DATAPACKING=BLOCK
 VARLOCATION=([4]=CELLCENTERED)
 -0.239408946299022      -0.221521811554691      -0.203634676810360     
 -0.185747542066029      -0.167860407321698      -0.149973272577367     
 -0.132086137833036      -0.114199003088705      -9.631186834437398E-002
 -7.842473360004297E-002 -6.053759885571195E-002 -0.240602052563768     
 -0.222714917819437      -0.204827783075106      -0.186940648330775     
 -0.169053513586444      -0.151166378842113      -0.133279244097782     
 -0.115392109353451      -9.750497460912025E-002 -7.961783986478921E-002
 -6.173070512045820E-002 -0.244162555359485      -0.226275420615154     
 -0.208388285870823      -0.190501151126492      -0.172614016382161     
 -0.154726881637830      -0.136839746893499      -0.118952612149168     
 -0.101065477404837      -8.317834266050561E-002 -6.529120791617460E-002
 -0.250034303430142      -0.232147168685811      -0.214260033941480     
 -0.196372899197149      -0.178485764452818      -0.160598629708487     
 -0.142711494964156      -0.124824360219825      -0.106937225475494     
 -8.905009073116267E-002 -7.116295598683167E-002 -0.258124695801053     
 -0.240237561056722      -0.222350426312391      -0.204463291568060     
 -0.186576156823729      -0.168689022079398      -0.150801887335067     
 -0.132914752590736      -0.115027617846405      -9.714048310207365E-002
 -7.925334835774263E-002 -0.268306142151562      -0.250419007407231     
 -0.232531872662900      -0.214644737918569      -0.196757603174238     
 -0.178870468429907      -0.160983333685576      -0.143096198941245     
 -0.125209064196914      -0.107321929452583      -8.943479470825216E-002
 -0.280418074990622      -0.262530940246291      -0.244643805501960     
 -0.226756670757629      -0.208869536013298      -0.190982401268967     
 -0.173095266524636      -0.155208131780305      -0.137320997035974     
 -0.119433862291643      -0.101546727547312      -0.294269481902041     
 -0.276382347157710      -0.258495212413379      -0.240608077669048     
 -0.222720942924717      -0.204833808180386      -0.186946673436055     
 -0.169059538691724      -0.151172403947393      -0.133285269203062     
 -0.115398134458731      -0.309641917924398      -0.291754783180067     
 -0.273867648435736      -0.255980513691405      -0.238093378947074     
 -0.220206244202743      -0.202319109458412      -0.184431974714081     
 -0.166544839969750      -0.148657705225419      -0.130770570481087     
 -0.326292950558571      -0.308405815814240      -0.290518681069909     
 -0.272631546325578      -0.254744411581247      -0.236857276836916     
 -0.218970142092585      -0.201083007348254      -0.183195872603923     
 -0.165308737859592      -0.147421603115261      -0.343959983073075     
 -0.326072848328744      -0.308185713584413      -0.290298578840082     
 -0.272411444095751      -0.254524309351420      -0.236637174607089     
 -0.218750039862758      -0.200862905118427      -0.182975770374096     
 -0.165088635629765      -0.362364395811383      -0.344477261067052     
 -0.326590126322721      -0.308702991578390      -0.290815856834059     
 -0.272928722089728      -0.255041587345397      -0.237154452601066     
 -0.219267317856735      -0.201380183112404      -0.183493048368073     
 -0.381215940190348      -0.363328805446017      -0.345441670701686     
 -0.327554535957355      -0.309667401213024      -0.291780266468693     
 -0.273893131724362      -0.256005996980031      -0.238118862235700     
 -0.220231727491369      -0.202344592747038      -0.400217316093748     
 -0.382330181349417      -0.364443046605085      -0.346555911860754     
 -0.328668777116423      -0.310781642372092      -0.292894507627761     
 -0.275007372883430      -0.257120238139099      -0.239233103394768     
 -0.221345968650437      -0.419068860472713      -0.401181725728382     
 -0.383294590984051      -0.365407456239720      -0.347520321495389     
 -0.329633186751057      -0.311746052006727      -0.293858917262395     
 -0.275971782518064      -0.258084647773733      -0.240197513029402     
 -0.437473273211020      -0.419586138466690      -0.401699003722358     
 -0.383811868978027      -0.365924734233696      -0.348037599489365     
 -0.330150464745034      -0.312263330000703      -0.294376195256372     
 -0.276489060512041      -0.258601925767710      -0.455140305725525     
 -0.437253170981194      -0.419366036236863      -0.401478901492532     
 -0.383591766748201      -0.365704632003870      -0.347817497259539     
 -0.329930362515208      -0.312043227770877      -0.294156093026546     
 -0.276268958282215      -0.471791338359698      -0.453904203615367     
 -0.436017068871036      -0.418129934126705      -0.400242799382374     
 -0.382355664638043      -0.364468529893712      -0.346581395149381     
 -0.328694260405050      -0.310807125660719      -0.292919990916388     
 -0.487163774382055      -0.469276639637724      -0.451389504893393     
 -0.433502370149062      -0.415615235404731      -0.397728100660400     
 -0.379840965916069      -0.361953831171738      -0.344066696427407     
 -0.326179561683075      -0.308292426938744      -0.501015181293474     
 -0.483128046549143      -0.465240911804812      -0.447353777060481     
 -0.429466642316150      -0.411579507571819      -0.393692372827488     
 -0.375805238083157      -0.357918103338826      -0.340030968594495     
 -0.322143833850164      -0.513127114132533      -0.495239979388202     
 -0.477352844643871      -0.459465709899540      -0.441578575155209     
 -0.423691440410878      -0.405804305666547      -0.387917170922216     
 -0.370030036177885      -0.352142901433554      -0.334255766689223     
 -0.523308560483043      -0.505421425738712      -0.487534290994381     
 -0.469647156250050      -0.451760021505719      -0.433872886761388     
 -0.415985752017057      -0.398098617272726      -0.380211482528395     
 -0.362324347784064      -0.344437213039733      -0.531398952853954     
 -0.513511818109623      -0.495624683365292      -0.477737548620961     
 -0.459850413876630      -0.441963279132299      -0.424076144387968     
 -0.406189009643637      -0.388301874899306      -0.370414740154975     
 -0.352527605410644      -0.537270700924611      -0.519383566180280     
 -0.501496431435949      -0.483609296691618      -0.465722161947287     
 -0.447835027202956      -0.429947892458625      -0.412060757714294     
 -0.394173622969963      -0.376286488225632      -0.358399353481301     
 -0.540831203720327      -0.522944068975996      -0.505056934231665     
 -0.487169799487334      -0.469282664743003      -0.451395529998672     
 -0.433508395254341      -0.415621260510010      -0.397734125765679     
 -0.379846991021348      -0.361959856277017      -0.542024309985074     
 -0.524137175240743      -0.506250040496412      -0.488362905752081     
 -0.470475771007750      -0.452588636263418      -0.434701501519087     
 -0.416814366774756      -0.398927232030425      -0.381040097286094     
 -0.363152962541764     
  0.120728880613193       0.126722526994427       0.132716173375660     
  0.138709819756894       0.144703466138128       0.150697112519361     
  0.156690758900595       0.162684405281828       0.168678051663062     
  0.174671698044295       0.180665344425529       0.124289526531285     
  0.130283172912518       0.136276819293752       0.142270465674985     
  0.148264112056219       0.154257758437452       0.160251404818686     
  0.166245051199919       0.172238697581153       0.178232343962386     
  0.184225990343620       0.134915310772403       0.140908957153636     
  0.146902603534870       0.152896249916103       0.158889896297337     
  0.164883542678570       0.170877189059804       0.176870835441038     
  0.182864481822271       0.188858128203505       0.194851774584738     
  0.152438658371530       0.158432304752764       0.164425951133998     
  0.170419597515231       0.176413243896465       0.182406890277698     
  0.188400536658932       0.194394183040165       0.200387829421399     
  0.206381475802632       0.212375122183866       0.176583215669088     
  0.182576862050322       0.188570508431555       0.194564154812789     
  0.200557801194022       0.206551447575256       0.212545093956489     
  0.218538740337723       0.224532386718956       0.230526033100190     
  0.236519679481424       0.206968208573234       0.212961854954468     
  0.218955501335701       0.224949147716935       0.230942794098168     
  0.236936440479402       0.242930086860635       0.248923733241869     
  0.254917379623103       0.260911026004336       0.266904672385570     
  0.243114447594756       0.249108093975989       0.255101740357222     
  0.261095386738456       0.267089033119690       0.273082679500923     
  0.279076325882157       0.285069972263390       0.291063618644624     
  0.297057265025857       0.303050911407091       0.284451884951566     
  0.290445531332799       0.296439177714033       0.302432824095267     
  0.308426470476500       0.314420116857734       0.320413763238967     
  0.326407409620201       0.332401056001434       0.338394702382668     
  0.344388348763901       0.330328604562760       0.336322250943994     
  0.342315897325228       0.348309543706461       0.354303190087695     
  0.360296836468928       0.366290482850162       0.372284129231395     
  0.378277775612629       0.384271421993862       0.390265068375096     
  0.380021103154647       0.386014749535880       0.392008395917114     
  0.398002042298347       0.403995688679581       0.409989335060814     
  0.415982981442048       0.421976627823281       0.427970274204515     
  0.433963920585748       0.439957566966982       0.432745700339571     
  0.438739346720804       0.444732993102038       0.450726639483271     
  0.456720285864505       0.462713932245738       0.468707578626972     
  0.474701225008205       0.480694871389439       0.486688517770672     
  0.492682164151906       0.487670897723779       0.493664544105012     
  0.499658190486246       0.505651836867479       0.511645483248713     
  0.517639129629946       0.523632776011180       0.529626422392413     
  0.535620068773647       0.541613715154880       0.547607361536114     
  0.543930492133799       0.549924138515033       0.555917784896266     
  0.561911431277499       0.567905077658733       0.573898724039967     
  0.579892370421200       0.585886016802434       0.591879663183667     
  0.597873309564901       0.603866955946134       0.600637236157933     
  0.606630882539167       0.612624528920400       0.618618175301634     
  0.624611821682867       0.630605468064101       0.636599114445334     
  0.642592760826568       0.648586407207801       0.654580053589035     
  0.660573699970268       0.656896830567954       0.662890476949187     
  0.668884123330421       0.674877769711654       0.680871416092888     
  0.686865062474121       0.692858708855355       0.698852355236588     
  0.704846001617822       0.710839647999055       0.716833294380289     
  0.711822027952161       0.717815674333395       0.723809320714629     
  0.729802967095862       0.735796613477095       0.741790259858329     
  0.747783906239563       0.753777552620796       0.759771199002030     
  0.765764845383263       0.771758491764497       0.764546625137086     
  0.770540271518319       0.776533917899553       0.782527564280786     
  0.788521210662020       0.794514857043253       0.800508503424487     
  0.806502149805720       0.812495796186954       0.818489442568187     
  0.824483088949421       0.814239123728972       0.820232770110205     
  0.826226416491439       0.832220062872672       0.838213709253906     
  0.844207355635139       0.850201002016373       0.856194648397606     
  0.862188294778840       0.868181941160073       0.874175587541307     
  0.860115843340166       0.866109489721400       0.872103136102633     
  0.878096782483867       0.884090428865100       0.890084075246334     
  0.896077721627567       0.902071368008801       0.908065014390034     
  0.914058660771268       0.920052307152502       0.901453280696977     
  0.907446927078210       0.913440573459444       0.919434219840677     
  0.925427866221911       0.931421512603145       0.937415158984378     
  0.943408805365612       0.949402451746845       0.955396098128078     
  0.961389744509312       0.937599519718497       0.943593166099731     
  0.949586812480965       0.955580458862198       0.961574105243432     
  0.967567751624665       0.973561398005899       0.979555044387132     
  0.985548690768366       0.991542337149599       0.997535983530833     
  0.967984512622644       0.973978159003877       0.979971805385111     
  0.985965451766345       0.991959098147578       0.997952744528812     
   1.00394639091005        1.00994003729128        1.01593368367251     
   1.02192733005375        1.02792097643498       0.992129069920202     
  0.998122716301435        1.00411636268267        1.01011000906390     
   1.01610365544514        1.02209730182637        1.02809094820760     
   1.03408459458884        1.04007824097007        1.04607188735130     
   1.05206553373254        1.00965241751933        1.01564606390056     
   1.02163971028180        1.02763335666303        1.03362700304426     
   1.03962064942550        1.04561429580673        1.05160794218796     
   1.05760158856920        1.06359523495043        1.06958888133166     
   1.02027820176045        1.02627184814168        1.03226549452291     
   1.03825914090415        1.04425278728538        1.05024643366661     
   1.05624008004785        1.06223372642908        1.06822737281032     
   1.07422101919155        1.08021466557278        1.02383884767854     
   1.02983249405977        1.03582614044101        1.04181978682224     
   1.04781343320347        1.05380707958471        1.05980072596594     
   1.06579437234717        1.07178801872841        1.07778166510964     
   1.08377531149087     
  2.651247573289247E-002  2.386122815960322E-002  2.120998058631397E-002
  1.855873301302472E-002  1.590748543973548E-002  1.325623786644623E-002
  1.060499029315698E-002  7.953742719867740E-003  5.302495146578492E-003
  2.651247573289244E-003  0.000000000000000E+000  2.651247573289247E-002
  2.386122815960322E-002  2.120998058631397E-002  1.855873301302472E-002
  1.590748543973548E-002  1.325623786644623E-002  1.060499029315698E-002
  7.953742719867740E-003  5.302495146578492E-003  2.651247573289244E-003
  0.000000000000000E+000  2.651247573289247E-002  2.386122815960322E-002
  2.120998058631397E-002  1.855873301302472E-002  1.590748543973548E-002
  1.325623786644623E-002  1.060499029315698E-002  7.953742719867740E-003
  5.302495146578492E-003  2.651247573289244E-003  0.000000000000000E+000
  2.651247573289247E-002  2.386122815960322E-002  2.120998058631397E-002
  1.855873301302472E-002  1.590748543973548E-002  1.325623786644623E-002
  1.060499029315698E-002  7.953742719867740E-003  5.302495146578492E-003
  2.651247573289244E-003  0.000000000000000E+000  2.651247573289247E-002
  2.386122815960322E-002  2.120998058631397E-002  1.855873301302472E-002
  1.590748543973548E-002  1.325623786644623E-002  1.060499029315698E-002
  7.953742719867740E-003  5.302495146578492E-003  2.651247573289244E-003
  0.000000000000000E+000  2.651247573289247E-002  2.386122815960322E-002
  2.120998058631397E-002  1.855873301302472E-002  1.590748543973548E-002
  1.325623786644623E-002  1.060499029315698E-002  7.953742719867740E-003
  5.302495146578492E-003  2.651247573289244E-003  0.000000000000000E+000
  2.651247573289247E-002  2.386122815960322E-002  2.120998058631397E-002
  1.855873301302472E-002  1.590748543973548E-002  1.325623786644623E-002
  1.060499029315698E-002  7.953742719867740E-003  5.302495146578492E-003
  2.651247573289244E-003  0.000000000000000E+000  2.651247573289247E-002
  2.386122815960322E-002  2.120998058631397E-002  1.855873301302472E-002
  1.590748543973548E-002  1.325623786644623E-002  1.060499029315698E-002
  7.953742719867740E-003  5.302495146578492E-003  2.651247573289244E-003
  0.000000000000000E+000  2.651247573289247E-002  2.386122815960322E-002
  2.120998058631397E-002  1.855873301302472E-002  1.590748543973548E-002
  1.325623786644623E-002  1.060499029315698E-002  7.953742719867740E-003
  5.302495146578492E-003  2.651247573289244E-003  0.000000000000000E+000
  2.651247573289247E-002  2.386122815960322E-002  2.120998058631397E-002
  1.855873301302472E-002  1.590748543973548E-002  1.325623786644623E-002
  1.060499029315698E-002  7.953742719867740E-003  5.302495146578492E-003
  2.651247573289244E-003  0.000000000000000E+000  2.651247573289247E-002
  2.386122815960322E-002  2.120998058631397E-002  1.855873301302472E-002
  1.590748543973548E-002  1.325623786644623E-002  1.060499029315698E-002
  7.953742719867740E-003  5.302495146578492E-003  2.651247573289244E-003
  0.000000000000000E+000  2.651247573289247E-002  2.386122815960322E-002
  2.120998058631397E-002  1.855873301302472E-002  1.590748543973548E-002
  1.325623786644623E-002  1.060499029315698E-002  7.953742719867740E-003
  5.302495146578492E-003  2.651247573289244E-003  0.000000000000000E+000
  2.651247573289247E-002  2.386122815960322E-002  2.120998058631397E-002
  1.855873301302472E-002  1.590748543973548E-002  1.325623786644623E-002
  1.060499029315698E-002  7.953742719867740E-003  5.302495146578492E-003
  2.651247573289244E-003  0.000000000000000E+000  2.651247573289247E-002
  2.386122815960322E-002  2.120998058631397E-002  1.855873301302472E-002
  1.590748543973548E-002  1.325623786644623E-002  1.060499029315698E-002
  7.953742719867740E-003  5.302495146578492E-003  2.651247573289244E-003
  0.000000000000000E+000  2.651247573289247E-002  2.386122815960322E-002
  2.120998058631397E-002  1.855873301302472E-002  1.590748543973548E-002
  1.325623786644623E-002  1.060499029315698E-002  7.953742719867740E-003
  5.302495146578492E-003  2.651247573289244E-003  0.000000000000000E+000
  2.651247573289247E-002  2.386122815960322E-002  2.120998058631397E-002
  1.855873301302472E-002  1.590748543973548E-002  1.325623786644623E-002
  1.060499029315698E-002  7.953742719867740E-003  5.302495146578492E-003
  2.651247573289244E-003  0.000000000000000E+000  2.651247573289247E-002
  2.386122815960322E-002  2.120998058631397E-002  1.855873301302472E-002
  1.590748543973548E-002  1.325623786644623E-002  1.060499029315698E-002
  7.953742719867740E-003  5.302495146578492E-003  2.651247573289244E-003
  0.000000000000000E+000  2.651247573289247E-002  2.386122815960322E-002
  2.120998058631397E-002  1.855873301302472E-002  1.590748543973548E-002
  1.325623786644623E-002  1.060499029315698E-002  7.953742719867740E-003
  5.302495146578492E-003  2.651247573289244E-003  0.000000000000000E+000
  2.651247573289247E-002  2.386122815960322E-002  2.120998058631397E-002
  1.855873301302472E-002  1.590748543973548E-002  1.325623786644623E-002
  1.060499029315698E-002  7.953742719867740E-003  5.302495146578492E-003
  2.651247573289244E-003  0.000000000000000E+000  2.651247573289247E-002
  2.386122815960322E-002  2.120998058631397E-002  1.855873301302472E-002
  1.590748543973548E-002  1.325623786644623E-002  1.060499029315698E-002
  7.953742719867740E-003  5.302495146578492E-003  2.651247573289244E-003
  0.000000000000000E+000  2.651247573289247E-002  2.386122815960322E-002
  2.120998058631397E-002  1.855873301302472E-002  1.590748543973548E-002
  1.325623786644623E-002  1.060499029315698E-002  7.953742719867740E-003
  5.302495146578492E-003  2.651247573289244E-003  0.000000000000000E+000
  2.651247573289247E-002  2.386122815960322E-002  2.120998058631397E-002
  1.855873301302472E-002  1.590748543973548E-002  1.325623786644623E-002
  1.060499029315698E-002  7.953742719867740E-003  5.302495146578492E-003
  2.651247573289244E-003  0.000000000000000E+000  2.651247573289247E-002
  2.386122815960322E-002  2.120998058631397E-002  1.855873301302472E-002
  1.590748543973548E-002  1.325623786644623E-002  1.060499029315698E-002
  7.953742719867740E-003  5.302495146578492E-003  2.651247573289244E-003
  0.000000000000000E+000  2.651247573289247E-002  2.386122815960322E-002
  2.120998058631397E-002  1.855873301302472E-002  1.590748543973548E-002
  1.325623786644623E-002  1.060499029315698E-002  7.953742719867740E-003
  5.302495146578492E-003  2.651247573289244E-003  0.000000000000000E+000
  2.651247573289247E-002  2.386122815960322E-002  2.120998058631397E-002
  1.855873301302472E-002  1.590748543973548E-002  1.325623786644623E-002
  1.060499029315698E-002  7.953742719867740E-003  5.302495146578492E-003
  2.651247573289244E-003  0.000000000000000E+000  2.651247573289247E-002
  2.386122815960322E-002  2.120998058631397E-002  1.855873301302472E-002
  1.590748543973548E-002  1.325623786644623E-002  1.060499029315698E-002
  7.953742719867740E-003  5.302495146578492E-003  2.651247573289244E-003
  0.000000000000000E+000
  3.228549174316980E-002  4.321976524247001E-002  4.989174789345261E-002
  5.440486331693294E-002  5.745926701034994E-002  5.936187869153880E-002
  6.025483904895364E-002  6.019138064997873E-002  5.917689601385889E-002
  5.728892668616697E-002  5.421502080269035E-002  7.383261260694587E-002
  8.569202059530791E-002  9.367548291619425E-002  9.906535587685851E-002
  0.102420884130304       0.104002929266146       0.103917529584923     
  0.102206356759951       9.917624911916995E-002  7.484430807729395E-002
  0.104696610960595       0.122870930853417       0.135067384425589     
  0.143282086414193       0.148400011506210       0.150841111863706     
  0.150785555906600       0.148306871602440       0.143745934580966     
  9.436749341513370E-002  0.134314571141671       0.159272718253561     
  0.176170649392036       0.187594719171371       0.194742791222049     
  0.198196870725011       0.198205139941424       0.194843624529105     
  0.188489783560356       0.114075648258732       0.163796745060733     
  0.195544533263586       0.217337901109595       0.232209864512744     
  0.241603492342638       0.246240438990647       0.246441492730312     
  0.242322670714811       0.234393666107533       0.134711397595850     
  0.194259223161529       0.232788371539744       0.259540760987333     
  0.277990786693983       0.289800412723933       0.295816188820376     
  0.296434341248981       0.291827638205984       0.282632821257211     
  0.156677590650449       0.226429279056698       0.271908755766018     
  0.303744903225973       0.325911275498566       0.340307711789435     
  0.347911672907473       0.349197087157397       0.344388194627015     
  0.334206904899335       0.180154139119066       0.260674345231604     
  0.313428450681966       0.350579022052875       0.376662199982859     
  0.393847237547940       0.403257358237085       0.405447377370741     
  0.400681923184614       0.389724698084780       0.205129498063164     
  0.297042989630301       0.357468145131124       0.400226237946385     
  0.430469847752841       0.450665988214549       0.462097896839909     
  0.465404485775097       0.460880902934874       0.449297668330533     
  0.231408339657021       0.335286191057093       0.403762114221164     
  0.452416448946677       0.487060104886286       0.510479690218061     
  0.524129457956459       0.528734832333788       0.524613586966487     
  0.512515901817237       0.258618671046293       0.374876851191211     
  0.451686568346752       0.506457436052310       0.545687705489931     
  0.572498602981186       0.588522886372649       0.594573860065502     
  0.590985567727558       0.578466465786893       0.286220658280921     
  0.415028456868169       0.500287394577673       0.561269424586662     
  0.605174783907367       0.635467325906724       0.653962374369885     
  0.661561499481296       0.658610093604635       0.645758217791858     
  0.313512242113430       0.454705609926986       0.548295084203023     
  0.615403287967390       0.663930783915545       0.697684619227540     
  0.718663389111351       0.727856586920081       0.725617804950754     
  0.712526670296924       0.339628121478310       0.492621830617844     
  0.594121004476058       0.667034769210825       0.719944001969710     
  0.756991609600764       0.780356942528851       0.791116772232896     
  0.789632171004042       0.776405480359680       0.363532680113139     
  0.527225753943651       0.635836579188627       0.713936534006101     
  0.770746611598318       0.810730074808016       0.836241588423441     
  0.848444828475941       0.847710880296271       0.834464024946281     
  0.384011508432860       0.556682536162416       0.671143843241200     
  0.753438010771983       0.813364571024255       0.855683605204999     
  0.882917195423860       0.896316365445570       0.896268658739435     
  0.883126372586745       0.399669500916289       0.578861948937710     
  0.697351760452127       0.782390616649284       0.844273811037497     
  0.888027357954796       0.916330730822534       0.930523412979228     
  0.931019335116958       0.918111287690943       0.408944588273415     
  0.591345946438001       0.711375261515219       0.797161480690716     
  0.859394223448191       0.903328017112229       0.931786384897284     
  0.946196305551503       0.947007837817970       0.934469098686419     
  0.410142020168172       0.591461877491593       0.709768904300911     
  0.793679856691260       0.854163364520664       0.896656141858727     
  0.924101903276817       0.938002462268279       0.938843109769438     
  0.926833705981933       0.401480312422075       0.576327400140454     
  0.688793748733912       0.767564354908740       0.823754838957700     
  0.862909139957769       0.888032533078253       0.900655573282833     
  0.901269371973643       0.890026881492499       0.381109322005867     
  0.542857972330607       0.644517476805407       0.714409541909912     
  0.763584123147017       0.797513857120038       0.819120473864793     
  0.829859931903623       0.830164748951221       0.820079950193086     
  0.346997642025455       0.487675837174064       0.573079228942650     
  0.630512100157817       0.670400876414767       0.697726715622944     
  0.715064344142953       0.723661196438322       0.723848787594078     
  0.715528434036191       0.296467068375496       0.407187590739305     
  0.471817585332141       0.514637719098630       0.544228554276767     
  0.564487120476064       0.577382156475992       0.583876973243869     
  0.584283321167796       0.578604311404767       0.225534591805326     
  0.299938009010246       0.342747644333107       0.371155103610348     
  0.390850909961776       0.404384753212306       0.413050011962772     
  0.417503025827177       0.418044530531405       0.415185803596977     
  0.136892831354303       0.178504547871022       0.202659063197590     
  0.218769767469219       0.229974519801514       0.237689044966205     
  0.242632701624380       0.245161912601208       0.245396758606526     
  0.243302811874269     
 Zone I=   11 J=1    K=1  T="NearWake"
 DATAPACKING=BLOCK
 VARLOCATION=([4]=CELLCENTERED)
 -0.330257330522508      -0.273492119773524      -0.221320629518012     
 -0.173836788711862      -0.131260032223561      -9.370847408191608E-002
 -6.125573289423165E-002 -3.409706534603169E-002 -1.305594112046278E-002
  2.101305197145109E-003  1.339568886499027E-002
   1.02975925251624        1.04644465454309        1.05880836381755     
   1.06800232531074        1.07444755192209        1.07869653443075     
   1.08128719595389        1.08273532274815        1.08352919936003     
   1.14229182871717        1.14227372355026     
 -1.971676264754570E-003 -1.971676264754571E-003 -5.495829044993014E-003
 -7.829674678928101E-003 -9.129115883361917E-003 -9.396893704323216E-003
 -8.490384306634537E-003 -6.006560508742947E-003 -1.254711067223138E-003
  3.628565161800396E-003  4.448010659162518E-003
  0.926833705981933       0.806278058136364       0.688711493873134     
  0.574997871805516       0.466186255406859       0.363508869121720     
  0.268323697008738       0.181889873791989       0.104520196065712     
  0.000000000000000E+000
 Zone I=    2 J=1   K=1   T="FarWake"
 DATAPACKING=BLOCK
 VARLOCATION=([4]=CELLCENTERED)
  1.339568886499027E-002  1.339568886499027E-002
   1.14227372355026        1.14227372355026     
  4.448010659162518E-003  4.448010659162518E-003
  0.000000000000000E+000
 Zone I=   11 J=   26 K=1  T="Blade"
 DATAPACKING=BLOCK
 VARLOCATION=([4]=CELLCENTERED)
  0.239408946299022       0.221521811554691       0.203634676810360     
  0.185747542066029       0.167860407321698       0.149973272577367     
  0.132086137833036       0.114199003088705       9.631186834437397E-002
  7.842473360004294E-002  6.053759885571192E-002  0.240602052563768     
  0.222714917819437       0.204827783075106       0.186940648330775     
  0.169053513586444       0.151166378842113       0.133279244097782     
  0.115392109353451       9.750497460912023E-002  7.961783986478918E-002
  6.173070512045817E-002  0.244162555359485       0.226275420615154     
  0.208388285870823       0.190501151126492       0.172614016382161     
  0.154726881637830       0.136839746893499       0.118952612149168     
  0.101065477404837       8.317834266050558E-002  6.529120791617457E-002
  0.250034303430142       0.232147168685811       0.214260033941480     
  0.196372899197149       0.178485764452818       0.160598629708487     
  0.142711494964156       0.124824360219825       0.106937225475494     
  8.905009073116264E-002  7.116295598683164E-002  0.258124695801053     
  0.240237561056722       0.222350426312391       0.204463291568060     
  0.186576156823729       0.168689022079398       0.150801887335067     
  0.132914752590736       0.115027617846405       9.714048310207363E-002
  7.925334835774260E-002  0.268306142151562       0.250419007407231     