 Title = "Wing and Wake"
 VARIABLES = "X" "Y" "Z" "GAM"
 Zone I=   26 J=   25 K=1  T="Blade"
 DATAPACKING=BLOCK
 VARLOCATION=([4]=CELLCENTERED)
 -1.144652881002908E-002 -9.792640211033066E-003 -8.138751612037160E-003
 -6.484863013041318E-003 -4.830974414045316E-003 -3.177085815049395E-003
 -1.523197216053385E-003  1.306913829424376E-004  1.784579981938284E-003
  3.438468580934288E-003  5.092357179930286E-003  6.746245778926200E-003
  8.400134377922060E-003  1.005402297691796E-002  1.170791157591394E-002
  1.336180017490994E-002  1.501568877390586E-002  1.666957737290170E-002
  1.832346597189769E-002  1.997735457089360E-002  2.163124316988944E-002
  2.328513176888543E-002  2.493902036788135E-002  2.659290896687730E-002
  2.824679756587319E-002  2.990068616486916E-002 -1.101607251166954E-002
 -9.362183912673563E-003 -7.708295313677616E-003 -6.054406714681776E-003
 -4.400518115685849E-003 -2.746629516689885E-003 -1.092740917693968E-003
  5.611476813020117E-004  2.215036280297866E-003  3.868924879293814E-003
  5.522813478289782E-003  7.176702077285715E-003  8.830590676281736E-003
  1.048447927527751E-002  1.213836787427339E-002  1.379225647326936E-002
  1.544614507226530E-002  1.710003367126126E-002  1.875392227025709E-002
  2.040781086925308E-002  2.206169946824903E-002  2.371558806724484E-002
  2.536947666624089E-002  2.702336526523678E-002  2.867725386423264E-002
  3.033114246322867E-002 -9.732068843201028E-003 -8.078180244205084E-003
 -6.424291645209133E-003 -4.770403046213195E-003 -3.116514447217251E-003
 -1.462625848221453E-003  1.912627507745651E-004  1.845151349770487E-003
  3.499039948766405E-003  5.152928547762339E-003  6.806817146758225E-003
  8.460705745754169E-003  1.011459434475001E-002  1.176848294374597E-002
  1.342237154274195E-002  1.507626014173788E-002  1.673014874073380E-002
  1.838403733972974E-002  2.003792593872564E-002  2.169181453772154E-002
  2.334570313671742E-002  2.499959173571344E-002  2.665348033470933E-002
  2.830736893370535E-002  2.996125753270120E-002  3.161514613169716E-002
 -7.616487463384028E-003 -5.962598864388063E-003 -4.308710265392174E-003
 -2.654821666396211E-003 -1.000933067400330E-003  6.529555315956202E-004
  2.306844130591486E-003  3.960732729587482E-003  5.614621328583373E-003
  7.268509927579258E-003  8.922398526575250E-003  1.057628712557118E-002
  1.223017572456706E-002  1.388406432356295E-002  1.553795292255901E-002
  1.719184152155478E-002  1.884573012055076E-002  2.049961871954665E-002
  2.215350731854268E-002  2.380739591753862E-002  2.546128451653435E-002
  2.711517311553036E-002  2.876906171452630E-002  3.042295031352225E-002
  3.207683891251815E-002  3.373072751151410E-002 -4.705526556177148E-003
 -3.051637957181470E-003 -1.397749358185363E-003  2.561392408103984E-004
  1.910027839806448E-003  3.563916438802384E-003  5.217805037798214E-003
  6.871693636794170E-003  8.525582235790153E-003  1.017947083478611E-002
  1.183335943378198E-002  1.348724803277793E-002  1.514113663177378E-002
  1.679502523076979E-002  1.844891382976582E-002  2.010280242876164E-002
  2.175669102775755E-002  2.341057962675348E-002  2.506446822574928E-002
  2.671835682474533E-002  2.837224542374131E-002  3.002613402273715E-002
  3.168002262173306E-002  3.333391122072901E-002  3.498779981972497E-002
  3.664168841872092E-002 -1.048993469773808E-003  6.048951292220011E-004
  2.258783728218060E-003  3.912672327213937E-003  5.566560926209886E-003
  7.220449525205759E-003  8.874338124201776E-003  1.052822672319770E-002
  1.218211532219354E-002  1.383600392118958E-002  1.548989252018539E-002
  1.714378111918123E-002  1.879766971817718E-002  2.045155831717317E-002
  2.210544691616908E-002  2.375933551516511E-002  2.541322411416099E-002
  2.706711271315692E-002  2.872100131215295E-002  3.037488991114873E-002
  3.202877851014475E-002  3.368266710914073E-002  3.533655570813645E-002
  3.699044430713259E-002  3.864433290612832E-002  4.029822150512424E-002
  3.290547500935445E-003  4.944436099931385E-003  6.598324698927346E-003
  8.252213297923316E-003  9.906101896919027E-003  1.155999049591495E-002
  1.321387909491102E-002  1.486776769390690E-002  1.652165629290283E-002
  1.817554489189872E-002  1.982943349089478E-002  2.148332208989047E-002
  2.313721068888650E-002  2.479109928788250E-002  2.644498788687858E-002
  2.809887648587435E-002  2.975276508487015E-002  3.140665368386619E-002
  3.306054228286207E-002  3.471443088185815E-002  3.636831948085394E-002
  3.802220807984991E-002  3.967609667884570E-002  4.132998527784170E-002
  4.298387387683761E-002  4.463776247583342E-002  8.238845606793692E-003
  9.892734205789632E-003  1.154662280478551E-002  1.320051140378147E-002
  1.485440000277727E-002  1.650828860177327E-002  1.816217720076911E-002
  1.981606579976519E-002  2.146995439876094E-002  2.312384299775702E-002
  2.477773159675283E-002  2.643162019574868E-002  2.808550879474460E-002
  2.973939739374053E-002  3.139328599273657E-002  3.304717459173249E-002
  3.470106319072841E-002  3.635495178972446E-002  3.800884038872029E-002
  3.966272898771617E-002  4.131661758671212E-002  4.297050618570815E-002
  4.462439478470397E-002  4.627828338370003E-002  4.793217198269583E-002
  4.958606058169179E-002  1.371123409528193E-002  1.536512269427806E-002
  1.701901129327403E-002  1.867289989226978E-002  2.032678849126583E-002
  2.198067709026175E-002  2.363456568925747E-002  2.528845428825354E-002
  2.694234288724937E-002  2.859623148624544E-002  3.025012008524120E-002
  3.190400868423726E-002  3.355789728323320E-002  3.521178588222908E-002
  3.686567448122504E-002  3.851956308022097E-002  4.017345167921687E-002
  4.182734027821271E-002  4.348122887720866E-002  4.513511747620461E-002
  4.678900607520051E-002  4.844289467419636E-002  5.009678327319239E-002
  5.175067187218820E-002  5.340456047118411E-002  5.505844907018024E-002
  1.961407888213002E-002  2.126796748112599E-002  2.292185608012186E-002
  2.457574467911792E-002  2.622963327811369E-002  2.788352187710946E-002
  2.953741047610571E-002  3.119129907510131E-002  3.284518767409751E-002
  3.449907627309334E-002  3.615296487208939E-002  3.780685347108521E-002
  3.946074207008100E-002  4.111463066907706E-002  4.276851926807283E-002
  4.442240786706895E-002  4.607629646606477E-002  4.773018506506084E-002
  4.938407366405671E-002  5.103796226305270E-002  5.269185086204836E-002
  5.434573946104432E-002  5.599962806004036E-002  5.765351665903629E-002
  5.930740525803209E-002  6.096129385702818E-002  2.584638065645649E-002
  2.750026925545260E-002  2.915415785444854E-002  3.080804645344429E-002
  3.246193505244032E-002  3.411582365143612E-002  3.576971225043225E-002
  3.742360084942805E-002  3.907748944842401E-002  4.073137804741988E-002
  4.238526664641586E-002  4.403915524541172E-002  4.569304384440767E-002
  4.734693244340350E-002  4.900082104239949E-002  5.065470964139576E-002
  5.230859824039145E-002  5.396248683938730E-002  5.561637543838349E-002
  5.727026403737918E-002  5.892415263637528E-002  6.057804123537099E-002
  6.223192983436698E-002  6.388581843336268E-002  6.553970703235894E-002
  6.719359563135460E-002  3.230150300698297E-002  3.395539160597849E-002
  3.560928020497479E-002  3.726316880397059E-002  3.891705740296650E-002
  4.057094600196250E-002  4.222483460095820E-002  4.387872319995452E-002
  4.553261179895043E-002  4.718650039794635E-002  4.884038899694199E-002
  5.049427759593803E-002  5.214816619493397E-002  5.380205479392976E-002
  5.545594339292582E-002  5.710983199192175E-002  5.876372059091777E-002
  6.041760918991362E-002  6.207149778890945E-002  6.372538638790541E-002
  6.537927498690113E-002  6.703316358589728E-002  6.868705218489343E-002
  7.034094078388903E-002  7.199482938288514E-002  7.364871798188082E-002
  3.886899700059301E-002  4.052288559958910E-002  4.217677419858481E-002
  4.383066279758076E-002  4.548455139657671E-002  4.713843999557276E-002
  4.879232859456872E-002  5.044621719356463E-002  5.210010579256064E-002
  5.375399439155665E-002  5.540788299055240E-002  5.706177158954830E-002
  5.871566018854411E-002  6.036954878754024E-002  6.202343738653597E-002
  6.367732598553193E-002  6.533121458452801E-002  6.698510318352398E-002
  6.863899178251978E-002  7.029288038151574E-002  7.194676898051176E-002
  7.360065757950753E-002  7.525454617850366E-002  7.690843477749922E-002
  7.856232337649527E-002  8.021621197549095E-002  4.543649099420321E-002
  4.709037959319903E-002  4.874426819219509E-002  5.039815679119129E-002
  5.205204539018729E-002  5.370593398918295E-002  5.535982258817868E-002
  5.701371118717460E-002  5.866759978617059E-002  6.032148838516679E-002
  6.197537698416247E-002  6.362926558315846E-002  6.528315418215440E-002
  6.693704278115026E-002  6.859093138014616E-002  7.024481997914221E-002
  7.189870857813814E-002  7.355259717713411E-002  7.520648577612998E-002
  7.686037437512572E-002  7.851426297412170E-002  8.016815157311785E-002
  8.182204017211385E-002  8.347592877110964E-002  8.512981737010542E-002
  8.678370596910154E-002  5.189161334472956E-002  5.354550194372532E-002
  5.519939054272120E-002  5.685327914171740E-002  5.850716774071343E-002
  6.016105633970941E-002  6.181494493870530E-002  6.346883353770089E-002
  6.512272213669712E-002  6.677661073569280E-002  6.843049933468906E-002
  7.008438793368470E-002  7.173827653268047E-002  7.339216513167647E-002
  7.504605373067282E-002  7.669994232966841E-002  7.835383092866417E-002
  8.000771952766031E-002  8.166160812665627E-002  8.331549672565237E-002
  8.496938532464815E-002  8.662327392364381E-002  8.827716252264009E-002
  8.993105112163596E-002  9.158493972063185E-002  9.323882831962743E-002
  5.812391511905644E-002  5.977780371805207E-002  6.143169231704811E-002
  6.308558091604403E-002  6.473946951504038E-002  6.639335811403586E-002
  6.804724671303181E-002  6.970113531202778E-002  7.135502391102366E-002
  7.300891251001974E-002  7.466280110901530E-002  7.631668970801153E-002
  7.797057830700733E-002  7.962446690600357E-002  8.127835550499933E-002
  8.293224410399522E-002  8.458613270299102E-002  8.624002130198685E-002
  8.789390990098311E-002  8.954779849997858E-002  9.120168709897460E-002
  9.285557569797070E-002  9.450946429696690E-002  9.616335289596281E-002
  9.781724149495837E-002  9.947113009395447E-002  6.402675990590426E-002
  6.568064850490025E-002  6.733453710389596E-002  6.898842570289218E-002
  7.064231430188767E-002  7.229620290088365E-002  7.395009149987958E-002
  7.560398009887599E-002  7.725786869787139E-002  7.891175729686756E-002
  8.056564589586368E-002  8.221953449485957E-002  8.387342309385495E-002
  8.552731169285147E-002  8.718120029184701E-002  8.883508889084291E-002
  9.048897748983868E-002  9.214286608883465E-002  9.379675468783029E-002
  9.545064328682681E-002  9.710453188582253E-002  9.875842048481830E-002
  0.100412309083815       0.102066197682810       0.103720086281807     
  0.105373974880802       6.949914839439254E-002  7.115303699338825E-002
  7.280692559238433E-002  7.446081419138063E-002  7.611470279037676E-002
  7.776859138937228E-002  7.942247998836842E-002  8.107636858736396E-002
  8.273025718636025E-002  8.438414578535557E-002  8.603803438435172E-002
  8.769192298334798E-002  8.934581158234349E-002  9.099970018133961E-002
  9.265358878033557E-002  9.430747737933173E-002  9.596136597832733E-002
  9.761525457732341E-002  9.926914317631899E-002  0.100923031775315     
  0.102576920374311       0.104230808973307       0.105884697572303     
  0.107538586171299       0.109192474770295       0.110846363369291     
  7.444744650025062E-002  7.610133509924639E-002  7.775522369824243E-002
  7.940911229723827E-002  8.106300089623449E-002  8.271688949523050E-002
  8.437077809422636E-002  8.602466669322213E-002  8.767855529221792E-002
  8.933244389121395E-002  9.098633249020989E-002  9.264022108920580E-002
  9.429410968820177E-002  9.594799828719790E-002  9.760188688619389E-002
  9.925577548518949E-002  0.100909664084186       0.102563552683181     
  0.104217441282178       0.105871329881173       0.107525218480169     
  0.109179107079166       0.110832995678161       0.112486884277157     
  0.114140772876153       0.115794661475149       7.878698747096029E-002
  8.044087606995572E-002  8.209476466895194E-002  8.374865326794770E-002
  8.540254186694357E-002  8.705643046593957E-002  8.871031906493571E-002
  9.036420766393156E-002  9.201809626292738E-002  9.367198486192328E-002
  9.532587346091925E-002  9.697976205991557E-002  9.863365065891139E-002
  0.100287539257907       0.101941427856903       0.103595316455899     
  0.105249205054895       0.106903093653891       0.108556982252887     
  0.110210870851882       0.111864759450878       0.113518648049874     
  0.115172536648870       0.116826425247866       0.118480313846862     
  0.120134202445858       8.244352055736352E-002  8.409740915635958E-002
  8.575129775535524E-002  8.740518635435186E-002  8.905907495334733E-002
  9.071296355234294E-002  9.236685215133868E-002  9.402074075033502E-002
  9.567462934933078E-002  9.732851794832666E-002  9.898240654732281E-002
  0.100636295146318       0.102290183745314       0.103944072344310     
  0.105597960943307       0.107251849542302       0.108905738141298     
  0.110559626740294       0.112213515339290       0.113867403938286     
  0.115521292537282       0.117175181136278       0.118829069735274     
  0.120482958334270       0.122136846933266       0.123790735532261     
  8.535448146457017E-002  8.700837006356588E-002  8.866225866256222E-002
  9.031614726155802E-002  9.197003586055387E-002  9.362392445955006E-002
  9.527781305854589E-002  9.693170165754186E-002  9.858559025653761E-002
  0.100239478855534       0.101893367454529       0.103547256053525     
  0.105201144652521       0.106855033251518       0.108508921850514     
  0.110162810449509       0.111816699048505       0.113470587647501     
  0.115124476246497       0.116778364845493       0.118432253444489     
  0.120086142043485       0.121740030642481       0.123393919241476     
  0.125047807840473       0.126701696439468       8.747006284438760E-002
  8.912395144338311E-002  9.077784004237868E-002  9.243172864137518E-002
  9.408561724037075E-002  9.573950583936673E-002  9.739339443836283E-002
  9.904728303735866E-002  0.100701171636355       0.102355060235351     
  0.104008948834346       0.105662837433342       0.107316726032338     
  0.108970614631334       0.110624503230330       0.112278391829326     
  0.113932280428322       0.115586169027318       0.117240057626314     
  0.118893946225310       0.120547834824306       0.122201723423301     
  0.123855612022297       0.125509500621294       0.127163389220290     
  0.128817277819285       8.875406651285594E-002  9.040795511185154E-002
  9.206184371084711E-002  9.371573230984370E-002  9.536962090883926E-002
  9.702350950783552E-002  9.867739810683145E-002  0.100331286705827     
  0.101985175304823       0.103639063903819       0.105292952502815     
  0.106946841101811       0.108600729700807       0.110254618299802     
  0.111908506898799       0.113562395497795       0.115216284096791     
  0.116870172695786       0.118524061294782       0.120177949893778     
  0.121831838492774       0.123485727091770       0.125139615690766     
  0.126793504289762       0.128447392888758       0.130101281487754     
  8.918452281121499E-002  9.083841141021090E-002  9.249230000920716E-002
  9.414618860820326E-002  9.580007720719895E-002  9.745396580619499E-002
  9.910785440519063E-002  0.100761743004187       0.102415631603183     
  0.104069520202179       0.105723408801175       0.107377297400171     
  0.109031185999166       0.110685074598162       0.112338963197158     
  0.113992851796154       0.115646740395150       0.117300628994146     
  0.118954517593142       0.120608406192138       0.122262294791134     
  0.123916183390129       0.125570071989126       0.127223960588122     
  0.128877849187117       0.130531737786113     
  0.122241469960898       0.121793608229594       0.121345746498289     
  0.120897884766985       0.120450023035681       0.120002161304376     
  0.119554299573072       0.119106437841767       0.118658576110463     
  0.118210714379159       0.117762852647855       0.117314990916550     
  0.116867129185246       0.116419267453941       0.115971405722637     
  0.115523543991333       0.115075682260028       0.114627820528724     
  0.114179958797419       0.113732097066115       0.113284235334811     
  0.112836373603506       0.112388511872202       0.111940650140897     
  0.111492788409593       0.111044926678289       0.123831082813395     
  0.123383221082090       0.122935359350786       0.122487497619482     
  0.122039635888177       0.121591774156873       0.121143912425569     
  0.120696050694264       0.120248188962960       0.119800327231655     
  0.119352465500351       0.118904603769047       0.118456742037742     
  0.118008880306438       0.117561018575133       0.117113156843829     
  0.116665295112525       0.116217433381220       0.115769571649916     
  0.115321709918612       0.114873848187307       0.114425986456003     
  0.113978124724698       0.113530262993394       0.113082401262090     
  0.112634539530785       0.128572722654254       0.128124860922950     
  0.127676999191645       0.127229137460341       0.126781275729036     
  0.126333413997732       0.125885552266428       0.125437690535123     
  0.124989828803819       0.124541967072514       0.124094105341210     
  0.123646243609906       0.123198381878601       0.122750520147297     
  0.122302658415993       0.121854796684688       0.121406934953384     
  0.120959073222079       0.120511211490775       0.120063349759471     
  0.119615488028166       0.119167626296862       0.118719764565557     
  0.118271902834253       0.117824041102949       0.117376179371644     
  0.136385258711168       0.135937396979864       0.135489535248559     
  0.135041673517255       0.134593811785950       0.134145950054646     
  0.133698088323341       0.133250226592037       0.132802364860733     
  0.132354503129429       0.131906641398124       0.131458779666820     
  0.131010917935515       0.130563056204211       0.130115194472907     
  0.129667332741602       0.129219471010298       0.128771609278993     
  0.128323747547689       0.127875885816384       0.127428024085080     
  0.126980162353776       0.126532300622472       0.126084438891167     
  0.125636577159863       0.125188715428558       0.147135016326159     
  0.146687154594854       0.146239292863550       0.145791431132245     
  0.145343569400941       0.144895707669636       0.144447845938332     
  0.143999984207028       0.143552122475723       0.143104260744419     
  0.142656399013115       0.142208537281810       0.141760675550506     
  0.141312813819201       0.140864952087897       0.140417090356593     
  0.139969228625288       0.139521366893984       0.139073505162679     
  0.138625643431375       0.138177781700071       0.137729919968766     
  0.137282058237462       0.136834196506158       0.136386334774853     
  0.135938473043549       0.160638064166037       0.160190202434733     
  0.159742340703429       0.159294478972124       0.158846617240820     
  0.158398755509515       0.157950893778211       0.157503032046907     
  0.157055170315602       0.156607308584298       0.156159446852993     
  0.155711585121689       0.155263723390385       0.154815861659080     
  0.154367999927776       0.153920138196472       0.153472276465167     
  0.153024414733863       0.152576553002558       0.152128691271254     
  0.151680829539950       0.151232967808645       0.150785106077341     
  0.150337244346037       0.149889382614732       0.149441520883428     
  0.176663361338512       0.176215499607208       0.175767637875903     
  0.175319776144599       0.174871914413295       0.174424052681990     
  0.173976190950686       0.173528329219382       0.173080467488077     
  0.172632605756773       0.172184744025468       0.171736882294164     
  0.171289020562860       0.170841158831555       0.170393297100251     
  0.169945435368946       0.169497573637642       0.169049711906338     
  0.168601850175033       0.168153988443729       0.167706126712424     
  0.167258264981120       0.166810403249816       0.166362541518511     
  0.165914679787207       0.165466818055903       0.194936710565910     
  0.194488848834606       0.194040987103302       0.193593125371997     
  0.193145263640693       0.192697401909388       0.192249540178084     
  0.191801678446779       0.191353816715475       0.190905954984171     
  0.190458093252866       0.190010231521562       0.189562369790257     
  0.189114508058953       0.188666646327649       0.188218784596344     
  0.187770922865040       0.187323061133736       0.186875199402431     
  0.186427337671127       0.185979475939823       0.185531614208518     
  0.185083752477214       0.184635890745910       0.184188029014605     
  0.183740167283301       0.215145449776621       0.214697588045316     
  0.214249726314012       0.213801864582708       0.213354002851403     
  0.212906141120099       0.212458279388794       0.212010417657490     
  0.211562555926186       0.211114694194881       0.210666832463577     
  0.210218970732272       0.209771109000968       0.209323247269663     
  0.208875385538359       0.208427523807055       0.207979662075751     
  0.207531800344446       0.207083938613142       0.206636076881837     
  0.206188215150533       0.205740353419229       0.205292491687924     
  0.204844629956620       0.204396768225316       0.203948906494011     
  0.236943801839828       0.236495940108523       0.236048078377219     
  0.235600216645915       0.235152354914610       0.234704493183306     
  0.234256631452001       0.233808769720697       0.233360907989393     
  0.232913046258089       0.232465184526784       0.232017322795479     
  0.231569461064175       0.231121599332871       0.230673737601566     
  0.230225875870262       0.229778014138958       0.229330152407653     
  0.228882290676349       0.228434428945045       0.227986567213740     
  0.227538705482436       0.227090843751131       0.226642982019827     
  0.226195120288522       0.225747258557218       0.259958790908085     
  0.259510929176781       0.259063067445476       0.258615205714172     
  0.258167343982867       0.257719482251563       0.257271620520259     
  0.256823758788954       0.256375897057650       0.255928035326345     
  0.255480173595041       0.255032311863737       0.254584450132432     
  0.254136588401128       0.253688726669823       0.253240864938519     
  0.252793003207214       0.252345141475910       0.251897279744606     
  0.251449418013302       0.251001556281998       0.250553694550693     
  0.250105832819388       0.249657971088084       0.249210109356779     
  0.248762247625475       0.283796624137474       0.283348762406169     
  0.282900900674865       0.282453038943560       0.282005177212256     
  0.281557315480952       0.281109453749647       0.280661592018343     
  0.280213730287039       0.279765868555734       0.279318006824430     
  0.278870145093126       0.278422283361821       0.277974421630517     
  0.277526559899212       0.277078698167908       0.276630836436603     
  0.276182974705299       0.275735112973995       0.275287251242691     
  0.274839389511385       0.274391527780081       0.273943666048777     
  0.273495804317473       0.273047942586168       0.272600080854864     
  0.308049429592343       0.307601567861039       0.307153706129734     
  0.306705844398430       0.306257982667126       0.305810120935821     
  0.305362259204517       0.304914397473212       0.304466535741908     
  0.304018674010604       0.303570812279299       0.303122950547995     
  0.302675088816690       0.302227227085386       0.301779365354082     
  0.301331503622777       0.300883641891473       0.300435780160169     
  0.299987918428864       0.299540056697560       0.299092194966256     
  0.298644333234951       0.298196471503647       0.297748609772342     
  0.297300748041038       0.296852886309733       0.332302235047213     
  0.331854373315908       0.331406511584604       0.330958649853299     
  0.330510788121996       0.330062926390691       0.329615064659386     
  0.329167202928082       0.328719341196777       0.328271479465474     
  0.327823617734169       0.327375756002865       0.326927894271560     
  0.326480032540256       0.326032170808952       0.325584309077647     
  0.325136447346343       0.324688585615039       0.324240723883734     
  0.323792862152429       0.323345000421125       0.322897138689821     
  0.322449276958517       0.322001415227212       0.321553553495907     
  0.321105691764603       0.356140068276601       0.355692206545297     
  0.355244344813993       0.354796483082688       0.354348621351384     
  0.353900759620080       0.353452897888775       0.353005036157471     
  0.352557174426167       0.352109312694861       0.351661450963558     
  0.351213589232253       0.350765727500948       0.350317865769644     
  0.349870004038340       0.349422142307036       0.348974280575731     
  0.348526418844427       0.348078557113123       0.347630695381818     
  0.347182833650514       0.346734971919209       0.346287110187905     
  0.345839248456601       0.345391386725296       0.344943524993992     
  0.379155057344859       0.378707195613554       0.378259333882250     
  0.377811472150945       0.377363610419641       0.376915748688337     
  0.376467886957033       0.376020025225728       0.375572163494423     
  0.375124301763119       0.374676440031814       0.374228578300510     
  0.373780716569206       0.373332854837902       0.372884993106597     
  0.372437131375293       0.371989269643988       0.371541407912684     
  0.371093546181380       0.370645684450075       0.370197822718771     
  0.369749960987466       0.369302099256162       0.368854237524858     
  0.368406375793553       0.367958514062248       0.400953409408066     
  0.400505547676761       0.400057685945457       0.399609824214152     
  0.399161962482848       0.398714100751543       0.398266239020239     
  0.397818377288935       0.397370515557631       0.396922653826326     
  0.396474792095022       0.396026930363717       0.395579068632413     
  0.395131206901109       0.394683345169804       0.394235483438500     
  0.393787621707196       0.393339759975891       0.392891898244587     
  0.392444036513282       0.391996174781978       0.391548313050674     
  0.391100451319369       0.390652589588065       0.390204727856761     
  0.389756866125456       0.421162148618776       0.420714286887472     
  0.420266425156168       0.419818563424863       0.419370701693558     
  0.418922839962254       0.418474978230950       0.418027116499645     
  0.417579254768341       0.417131393037037       0.416683531305732     
  0.416235669574428       0.415787807843123       0.415339946111819     
  0.414892084380514       0.414444222649211       0.413996360917906     
  0.413548499186602       0.413100637455298       0.412652775723993     
  0.412204913992689       0.411757052261384       0.411309190530080     
  0.410861328798775       0.410413467067471       0.409965605336167     
  0.439435497846174       0.438987636114870       0.438539774383565     
  0.438091912652261       0.437644050920957       0.437196189189652     
  0.436748327458348       0.436300465727044       0.435852603995739     
  0.435404742264434       0.434956880533130       0.434509018801826     
  0.434061157070522       0.433613295339217       0.433165433607913     
  0.432717571876608       0.432269710145304       0.431821848414000     
  0.431373986682695       0.430926124951390       0.430478263220087     
  0.430030401488782       0.429582539757478       0.429134678026174     
  0.428686816294869       0.428238954563564       0.455460795018649     
  0.455012933287345       0.454565071556040       0.454117209824736     
  0.453669348093431       0.453221486362127       0.452773624630822     
  0.452325762899518       0.451877901168214       0.451430039436909     
  0.450982177705605       0.450534315974301       0.450086454242996     
  0.449638592511692       0.449190730780387       0.448742869049083     
  0.448295007317779       0.447847145586474       0.447399283855170     
  0.446951422123866       0.446503560392561       0.446055698661256     
  0.445607836929953       0.445159975198648       0.444712113467343     
  0.444264251736039       0.468963842858528       0.468515981127224     
  0.468068119395919       0.467620257664615       0.467172395933310     
  0.466724534202006       0.466276672470701       0.465828810739397     
  0.465380949008093       0.464933087276788       0.464485225545484     
  0.464037363814179       0.463589502082876       0.463141640351571     
  0.462693778620267       0.462245916888962       0.461798055157657     
  0.461350193426354       0.460902331695049       0.460454469963745     
  0.460006608232440       0.459558746501136       0.459110884769831     
  0.458663023038527       0.458215161307223       0.457767299575918     
  0.479713600473518       0.479265738742214       0.478817877010910     
  0.478370015279605       0.477922153548301       0.477474291816997     
  0.477026430085692       0.476578568354388       0.476130706623083     
  0.475682844891779       0.475234983160475       0.474787121429170     
  0.474339259697866       0.473891397966562       0.473443536235257     
  0.472995674503953       0.472547812772648       0.472099951041344     
  0.471652089310039       0.471204227578735       0.470756365847431     
  0.470308504116126       0.469860642384822       0.469412780653518     
  0.468964918922213       0.468517057190909       0.487526136530433     
  0.487078274799128       0.486630413067823       0.486182551336519     