 Title = "Wing and Wake"
 VARIABLES = "X" "Y" "Z" "GAM"
 Zone I=   26 J=   25 K=1  T="Blade"
 DATAPACKING=BLOCK
 VARLOCATION=([4]=CELLCENTERED)
  2.057666160599368E-002  2.205831758016688E-002  2.353997355433996E-002
  2.502162952851306E-002  2.650328550268624E-002  2.798494147685933E-002
  2.946659745103255E-002  3.094825342520554E-002  3.242990939937867E-002
  3.391156537355181E-002  3.539322134772505E-002  3.687487732189816E-002
  3.835653329607110E-002  3.983818927024433E-002  4.131984524441747E-002
  4.280150121859064E-002  4.428315719276386E-002  4.576481316693687E-002
  4.724646914111003E-002  4.872812511528316E-002  5.020978108945620E-002
  5.169143706362945E-002  5.317309303780256E-002  5.465474901197558E-002
  5.613640498614873E-002  5.761806096032190E-002  2.140381064385369E-002
  2.288546661802688E-002  2.436712259220002E-002  2.584877856637300E-002
  2.733043454054617E-002  2.881209051471937E-002  3.029374648889246E-002
  3.177540246306573E-002  3.325705843723865E-002  3.473871441141183E-002
  3.622037038558502E-002  3.770202635975816E-002  3.918368233393132E-002
  4.066533830810436E-002  4.214699428227740E-002  4.362865025645057E-002
  4.511030623062368E-002  4.659196220479684E-002  4.807361817896991E-002
  4.955527415314317E-002  5.103693012731621E-002  5.251858610148923E-002
  5.400024207566257E-002  5.548189804983559E-002  5.696355402400866E-002
  5.844520999818189E-002  2.387110500806671E-002  2.535276098223985E-002
  2.683441695641302E-002  2.831607293058614E-002  2.979772890475935E-002
  3.127938487893226E-002  3.276104085310551E-002  3.424269682727863E-002
  3.572435280145179E-002  3.720600877562484E-002  3.868766474979791E-002
  4.016932072397108E-002  4.165097669814411E-002  4.313263267231731E-002
  4.461428864649046E-002  4.609594462066367E-002  4.757760059483671E-002
  4.905925656900988E-002  5.054091254318298E-002  5.202256851735603E-002
  5.350422449152915E-002  5.498588046570232E-002  5.646753643987541E-002
  5.794919241404865E-002  5.943084838822166E-002  6.091250436239488E-002
  2.793632860799791E-002  2.941798458217108E-002  3.089964055634415E-002
  3.238129653051723E-002  3.386295250469033E-002  3.534460847886362E-002
  3.682626445303669E-002  3.830792042720985E-002  3.978957640138291E-002
  4.127123237555619E-002  4.275288834972924E-002  4.423454432390243E-002
  4.571620029807542E-002  4.719785627224853E-002  4.867951224642180E-002
  5.016116822059477E-002  5.164282419476795E-002  5.312448016894102E-002
  5.460613614311424E-002  5.608779211728735E-002  5.756944809146030E-002
  5.905110406563350E-002  6.053276003980666E-002  6.201441601397983E-002
  6.349607198815299E-002  6.497772796232608E-002  3.352992434075969E-002
  3.501158031493255E-002  3.649323628910589E-002  3.797489226327873E-002
  3.945654823745219E-002  4.093820421162516E-002  4.241986018579814E-002
  4.390151615997134E-002  4.538317213414451E-002  4.686482810831777E-002
  4.834648408249078E-002  4.982814005666405E-002  5.130979603083693E-002
  5.279145200501022E-002  5.427310797918342E-002  5.575476395335645E-002
  5.723641992752962E-002  5.871807590170276E-002  6.019973187587568E-002
  6.168138785004906E-002  6.316304382422221E-002  6.464469979839511E-002
  6.612635577256828E-002  6.760801174674137E-002  6.908966772091460E-002
  7.057132369508783E-002  4.055618423252640E-002  4.203784020669941E-002
  4.351949618087258E-002  4.500115215504571E-002  4.648280812921882E-002
  4.796446410339192E-002  4.944612007756508E-002  5.092777605173834E-002
  5.240943202591126E-002  5.389108800008450E-002  5.537274397425743E-002
  5.685439994843059E-002  5.833605592260382E-002  5.981771189677697E-002
  6.129936787095013E-002  6.278102384512332E-002  6.426267981929629E-002
  6.574433579346949E-002  6.722599176764270E-002  6.870764774181565E-002
  7.018930371598892E-002  7.167095969016204E-002  7.315261566433495E-002
  7.463427163850846E-002  7.611592761268125E-002  7.759758358685445E-002
  4.889488702850291E-002  5.037654300267601E-002  5.185819897684923E-002
  5.333985495102234E-002  5.482151092519524E-002  5.630316689936837E-002
  5.778482287354163E-002  5.926647884771473E-002  6.074813482188804E-002
  6.222979079606099E-002  6.371144677023410E-002  6.519310274440714E-002
  6.667475871858033E-002  6.815641469275356E-002  6.963807066692673E-002
  7.111972664109982E-002  7.260138261527285E-002  7.408303858944601E-002
  7.556469456361903E-002  7.704635053779248E-002  7.852800651196536E-002
  8.000966248613847E-002  8.149131846031146E-002  8.297297443448470E-002
  8.445463040865794E-002  8.593628638283086E-002  5.840335521192479E-002
  5.988501118609801E-002  6.136666716027116E-002  6.284832313444430E-002
  6.432997910861743E-002  6.581163508279050E-002  6.729329105696356E-002
  6.877494703113687E-002  7.025660300530978E-002  7.173825897948310E-002
  7.321991495365610E-002  7.470157092782910E-002  7.618322690200213E-002
  7.766488287617543E-002  7.914653885034872E-002  8.062819482452178E-002
  8.210985079869482E-002  8.359150677286818E-002  8.507316274704110E-002
  8.655481872121421E-002  8.803647469538731E-002  8.951813066956057E-002
  9.099978664373362E-002  9.248144261790693E-002  9.396309859207980E-002
  9.544475456625305E-002  6.891889625592833E-002  7.040055223010157E-002
  7.188220820427482E-002  7.336386417844779E-002  7.484552015262080E-002
  7.632717612679420E-002  7.780883210096702E-002  7.929048807514026E-002
  8.077214404931328E-002  8.225380002348665E-002  8.373545599765964E-002
  8.521711197183281E-002  8.669876794600601E-002  8.818042392017901E-002
  8.966207989435206E-002  9.114373586852530E-002  9.262539184269832E-002
  9.410704781687156E-002  9.558870379104460E-002  9.707035976521787E-002
  9.855201573939090E-002  0.100033671713564       0.101515327687737     
  0.102996983661910       0.104478639636083       0.105960295610257     
  8.026158633779198E-002  8.174324231196521E-002  8.322489828613829E-002
  8.470655426031147E-002  8.618821023448447E-002  8.766986620865742E-002
  8.915152218283091E-002  9.063317815700374E-002  9.211483413117713E-002
  9.359649010535021E-002  9.507814607952324E-002  9.655980205369638E-002
  9.804145802786944E-002  9.952311400204267E-002  0.101004769976216     
  0.102486425950389       0.103968081924562       0.105449737898735     
  0.106931393872908       0.108413049847082       0.109894705821254     
  0.111376361795428       0.112858017769601       0.114339673743774     
  0.115821329717947       0.117302985692120       9.223734888542674E-002
  9.371900485960016E-002  9.520066083377318E-002  9.668231680794614E-002
  9.816397278211937E-002  9.964562875629240E-002  0.101127284730466     
  0.102608940704639       0.104090596678812       0.105572252652985     
  0.107053908627158       0.108535564601331       0.110017220575504     
  0.111498876549677       0.112980532523850       0.114462188498024     
  0.115943844472197       0.117425500446370       0.118907156420543     
  0.120388812394716       0.121870468368890       0.123352124343062     
  0.124833780317236       0.126315436291408       0.127797092265582     
  0.129278748239755       0.104641275281335       0.106122931255507     
  0.107604587229681       0.109086243203854       0.110567899178027     
  0.112049555152200       0.113531211126373       0.115012867100547     
  0.116494523074720       0.117976179048893       0.119457835023066     
  0.120939490997239       0.122421146971412       0.123902802945585     
  0.125384458919758       0.126866114893932       0.128347770868105     
  0.129829426842278       0.131311082816451       0.132792738790624     
  0.134274394764797       0.135756050738970       0.137237706713144     
  0.138719362687316       0.140201018661490       0.141682674635663     
  0.117261130905863       0.118742786880036       0.120224442854209     
  0.121706098828382       0.123187754802555       0.124669410776729     
  0.126151066750902       0.127632722725075       0.129114378699248     
  0.130596034673422       0.132077690647594       0.133559346621768     
  0.135041002595940       0.136522658570114       0.138004314544287     
  0.139485970518460       0.140967626492633       0.142449282466806     
  0.143930938440979       0.145412594415153       0.146894250389326     
  0.148375906363499       0.149857562337672       0.151339218311845     
  0.152820874286018       0.154302530260191       0.129880986530392     
  0.131362642504564       0.132844298478738       0.134325954452911     
  0.135807610427084       0.137289266401257       0.138770922375430     
  0.140252578349603       0.141734234323776       0.143215890297950     
  0.144697546272123       0.146179202246296       0.147660858220469     
  0.149142514194642       0.150624170168815       0.152105826142988     
  0.153587482117162       0.155069138091335       0.156550794065508     
  0.158032450039680       0.159514106013854       0.160995761988027     
  0.162477417962200       0.163959073936373       0.165440729910546     
  0.166922385884720       0.142284912926299       0.143766568900472     
  0.145248224874645       0.146729880848819       0.148211536822992     
  0.149693192797165       0.151174848771338       0.152656504745511     
  0.154138160719684       0.155619816693857       0.157101472668031     
  0.158583128642204       0.160064784616377       0.161546440590550     
  0.163028096564723       0.164509752538896       0.165991408513069     
  0.167473064487242       0.168954720461416       0.170436376435589     
  0.171918032409762       0.173399688383935       0.174881344358108     
  0.176363000332281       0.177844656306454       0.179326312280627     
  0.154260675473934       0.155742331448107       0.157223987422281     
  0.158705643396454       0.160187299370627       0.161668955344800     
  0.163150611318973       0.164632267293146       0.166113923267319     
  0.167595579241493       0.169077235215665       0.170558891189839     
  0.172040547164012       0.173522203138185       0.175003859112358     
  0.176485515086531       0.177967171060704       0.179448827034877     
  0.180930483009051       0.182412138983223       0.183893794957397     
  0.185375450931570       0.186857106905743       0.188338762879916     
  0.189820418854089       0.191302074828262       0.165603365555798     
  0.167085021529971       0.168566677504144       0.170048333478317     
  0.171529989452490       0.173011645426663       0.174493301400836     
  0.175974957375010       0.177456613349183       0.178938269323356     
  0.180419925297529       0.181901581271702       0.183383237245875     
  0.184864893220049       0.186346549194221       0.187828205168395     
  0.189309861142568       0.190791517116741       0.192273173090914     
  0.193754829065087       0.195236485039260       0.196718141013433     
  0.198199796987607       0.199681452961780       0.201163108935953     
  0.202644764910126       0.176118906599801       0.177600562573974     
  0.179082218548148       0.180563874522321       0.182045530496494     
  0.183527186470667       0.185008842444840       0.186490498419013     
  0.187972154393186       0.189453810367359       0.190935466341532     
  0.192417122315706       0.193898778289879       0.195380434264052     
  0.196862090238225       0.198343746212398       0.199825402186571     
  0.201307058160745       0.202788714134917       0.204270370109091     
  0.205752026083264       0.207233682057437       0.208715338031610     
  0.210196994005783       0.211678649979957       0.213160305954130     
  0.185627374783223       0.187109030757396       0.188590686731570     
  0.190072342705742       0.191553998679916       0.193035654654089     
  0.194517310628262       0.195998966602435       0.197480622576608     
  0.198962278550781       0.200443934524954       0.201925590499128     
  0.203407246473301       0.204888902447474       0.206370558421647     
  0.207852214395820       0.209333870369993       0.210815526344166     
  0.212297182318340       0.213778838292513       0.215260494266686     
  0.216742150240859       0.218223806215032       0.219705462189205     
  0.221187118163378       0.222668774137551       0.193966077579200     
  0.195447733553373       0.196929389527546       0.198411045501719     
  0.199892701475892       0.201374357450065       0.202856013424239     
  0.204337669398412       0.205819325372585       0.207300981346758     
  0.208782637320931       0.210264293295104       0.211745949269278     
  0.213227605243451       0.214709261217623       0.216190917191797     
  0.217672573165970       0.219154229140143       0.220635885114316     
  0.222117541088489       0.223599197062662       0.225080853036835     
  0.226562509011009       0.228044164985181       0.229525820959355     
  0.231007476933528       0.200992337470967       0.202473993445140     
  0.203955649419313       0.205437305393487       0.206918961367659     
  0.208400617341832       0.209882273316005       0.211363929290178     
  0.212845585264352       0.214327241238525       0.215808897212698     
  0.217290553186871       0.218772209161044       0.220253865135217     
  0.221735521109391       0.223217177083564       0.224698833057737     
  0.226180489031910       0.227662145006083       0.229143800980256     
  0.230625456954429       0.232107112928602       0.233588768902775     
  0.235070424876948       0.236552080851122       0.238033736825295     
  0.206585933203728       0.208067589177901       0.209549245152075     
  0.211030901126248       0.212512557100421       0.213994213074594     
  0.215475869048767       0.216957525022940       0.218439180997113     
  0.219920836971287       0.221402492945460       0.222884148919633     
  0.224365804893806       0.225847460867979       0.227329116842152     
  0.228810772816325       0.230292428790498       0.231774084764671     
  0.233255740738844       0.234737396713017       0.236219052687191     
  0.237700708661364       0.239182364635537       0.240664020609710     
  0.242145676583883       0.243627332558056       0.210651156803660     
  0.212132812777833       0.213614468752005       0.215096124726179     
  0.216577780700352       0.218059436674525       0.219541092648698     
  0.221022748622871       0.222504404597045       0.223986060571217     
  0.225467716545391       0.226949372519564       0.228431028493737     
  0.229912684467910       0.231394340442083       0.232875996416256     
  0.234357652390430       0.235839308364603       0.237320964338776     
  0.238802620312948       0.240284276287122       0.241765932261295     
  0.243247588235468       0.244729244209642       0.246210900183815     
  0.247692556157988       0.213118451167873       0.214600107142045     
  0.216081763116219       0.217563419090392       0.219045075064565     
  0.220526731038738       0.222008387012911       0.223490042987084     
  0.224971698961257       0.226453354935431       0.227935010909604     
  0.229416666883777       0.230898322857949       0.232379978832123     
  0.233861634806296       0.235343290780469       0.236824946754643     
  0.238306602728816       0.239788258702989       0.241269914677162     
  0.242751570651335       0.244233226625508       0.245714882599681     
  0.247196538573854       0.248678194548027       0.250159850522201     
  0.213945600205732       0.215427256179906       0.216908912154079     
  0.218390568128252       0.219872224102425       0.221353880076598     
  0.222835536050771       0.224317192024944       0.225798847999117     
  0.227280503973291       0.228762159947464       0.230243815921637     
  0.231725471895809       0.233207127869983       0.234688783844156     
  0.236170439818329       0.237652095792502       0.239133751766676     
  0.240615407740849       0.242097063715022       0.243578719689195     
  0.245060375663368       0.246542031637541       0.248023687611714     
  0.249505343585888       0.250986999560061     
  0.121039667039993       0.120179072360453       0.119318477680913     
  0.118457883001373       0.117597288321833       0.116736693642293     
  0.115876098962753       0.115015504283212       0.114154909603672     
  0.113294314924132       0.112433720244592       0.111573125565052     
  0.110712530885512       0.109851936205972       0.108991341526432     
  0.108130746846892       0.107270152167351       0.106409557487811     
  0.105548962808271       0.104688368128731       0.103827773449191     
  0.102967178769651       0.102106584090111       0.101245989410571     
  0.100385394731031       9.952480005149050E-002  0.122463740814342     
  0.121603146134801       0.120742551455261       0.119881956775721     
  0.119021362096181       0.118160767416641       0.117300172737101     
  0.116439578057561       0.115578983378021       0.114718388698481     
  0.113857794018941       0.112997199339401       0.112136604659860     
  0.111276009980320       0.110415415300780       0.109554820621240     
  0.108694225941700       0.107833631262160       0.106973036582620     
  0.106112441903080       0.105251847223539       0.104391252543999     
  0.103530657864459       0.102670063184919       0.101809468505379     
  0.100948873825839       0.126711595840279       0.125851001160739     
  0.124990406481199       0.124129811801659       0.123269217122119     
  0.122408622442579       0.121548027763039       0.120687433083499     
  0.119826838403959       0.118966243724419       0.118105649044878     
  0.117245054365338       0.116384459685798       0.115523865006258     
  0.114663270326718       0.113802675647178       0.112942080967638     
  0.112081486288098       0.111220891608557       0.110360296929017     
  0.109499702249477       0.108639107569937       0.107778512890397     
  0.106917918210857       0.106057323531317       0.105196728851777     
  0.133710550140586       0.132849955461045       0.131989360781505     
  0.131128766101965       0.130268171422425       0.129407576742885     
  0.128546982063345       0.127686387383805       0.126825792704265     
  0.125965198024725       0.125104603345184       0.124244008665644     
  0.123383413986104       0.122522819306564       0.121662224627024     
  0.120801629947484       0.119941035267944       0.119080440588404     
  0.118219845908863       0.117359251229323       0.116498656549783     
  0.115638061870243       0.114777467190703       0.113916872511163     
  0.113056277831623       0.112195683152083       0.143340849666704     
  0.142480254987164       0.141619660307624       0.140759065628084     
  0.139898470948544       0.139037876269004       0.138177281589464     
  0.137316686909923       0.136456092230383       0.135595497550843     
  0.134734902871303       0.133874308191763       0.133013713512223     
  0.132153118832683       0.131292524153143       0.130431929473603     
  0.129571334794063       0.128710740114523       0.127850145434982     
  0.126989550755442       0.126128956075902       0.125268361396362     
  0.124407766716822       0.123547172037282       0.122686577357742     
  0.121825982678202       0.155437717323721       0.154577122644181     
  0.153716527964640       0.152855933285100       0.151995338605560     
  0.151134743926020       0.150274149246480       0.149413554566940     
  0.148552959887400       0.147692365207860       0.146831770528319     
  0.145971175848780       0.145110581169240       0.144249986489699     
  0.143389391810159       0.142528797130619       0.141668202451079     
  0.140807607771539       0.139947013091999       0.139086418412459     
  0.138225823732919       0.137365229053379       0.136504634373838     
  0.135644039694298       0.134783445014758       0.133922850335218     
  0.169794172352138       0.168933577672598       0.168072982993058     
  0.167212388313518       0.166351793633978       0.165491198954437     
  0.164630604274898       0.163770009595357       0.162909414915817     
  0.162048820236277       0.161188225556737       0.160327630877197     
  0.159467036197657       0.158606441518117       0.157745846838576     
  0.156885252159037       0.156024657479496       0.155164062799956     
  0.154303468120416       0.153442873440876       0.152582278761335     
  0.151721684081795       0.150861089402255       0.150000494722715     
  0.149139900043176       0.148279305363635       0.186164571826059     
  0.185303977146519       0.184443382466979       0.183582787787438     
  0.182722193107898       0.181861598428358       0.181001003748818     
  0.180140409069278       0.179279814389738       0.178419219710198     
  0.177558625030657       0.176698030351117       0.175837435671577     
  0.174976840992037       0.174116246312497       0.173255651632957     
  0.172395056953417       0.171534462273877       0.170673867594336     
  0.169813272914796       0.168952678235256       0.168092083555716     
  0.167231488876176       0.166370894196636       0.165510299517096     
  0.164649704837556       0.204268813671751       0.203408218992211     
  0.202547624312671       0.201687029633131       0.200826434953590     
  0.199965840274050       0.199105245594511       0.198244650914970     
  0.197384056235430       0.196523461555890       0.195662866876350     
  0.194802272196810       0.193941677517270       0.193081082837730     
  0.192220488158190       0.191359893478649       0.190499298799110     
  0.189638704119569       0.188778109440029       0.187917514760489     
  0.187056920080949       0.186196325401409       0.185335730721869     
  0.184475136042329       0.183614541362789       0.182753946683248     
  0.223797129291792       0.222936534612252       0.222075939932712     
  0.221215345253172       0.220354750573632       0.219494155894092     
  0.218633561214552       0.217772966535011       0.216912371855471     
  0.216051777175932       0.215191182496391       0.214330587816851     
  0.213469993137311       0.212609398457771       0.211748803778231     
  0.210888209098691       0.210027614419150       0.209167019739610     
  0.208306425060070       0.207445830380530       0.206585235700990     
  0.205724641021450       0.204864046341910       0.204003451662369     
  0.203142856982829       0.202282262303289       0.244415383791651     
  0.243554789112111       0.242694194432570       0.241833599753030     
  0.240973005073490       0.240112410393950       0.239251815714410     
  0.238391221034870       0.237530626355330       0.236670031675790     
  0.235809436996249       0.234948842316709       0.234088247637169     
  0.233227652957629       0.232367058278089       0.231506463598549     
  0.230645868919009       0.229785274239469       0.228924679559929     
  0.228064084880388       0.227203490200849       0.226342895521308     
  0.225482300841768       0.224621706162228       0.223761111482688     
  0.222900516803148       0.265770793120374       0.264910198440833     
  0.264049603761293       0.263189009081753       0.262328414402214     
  0.261467819722673       0.260607225043133       0.259746630363593     
  0.258886035684053       0.258025441004512       0.257164846324973     
  0.256304251645433       0.255443656965892       0.254583062286352     
  0.253722467606812       0.252861872927272       0.252001278247732     
  0.251140683568192       0.250280088888652       0.249419494209112     
  0.248558899529571       0.247698304850031       0.246837710170492     
  0.245977115490952       0.245116520811411       0.244255926131871     
  0.287497960303509       0.286637365623969       0.285776770944429     
  0.284916176264889       0.284055581585349       0.283194986905809     
  0.282334392226269       0.281473797546728       0.280613202867189     
  0.279752608187648       0.278892013508108       0.278031418828568     
  0.277170824149028       0.276310229469488       0.275449634789948     
  0.274589040110408       0.273728445430868       0.272867850751328     
  0.272007256071787       0.271146661392247       0.270286066712707     
  0.269425472033167       0.268564877353627       0.267704282674087     
  0.266843687994546       0.265983093315006       0.309225127486645     
  0.308364532807104       0.307503938127564       0.306643343448024     
  0.305782748768484       0.304922154088944       0.304061559409404     
  0.303200964729864       0.302340370050323       0.301479775370784     
  0.300619180691243       0.299758586011703       0.298897991332163     
  0.298037396652623       0.297176801973083       0.296316207293543     
  0.295455612614003       0.294595017934463       0.293734423254923     
  0.292873828575382       0.292013233895842       0.291152639216302     
  0.290292044536762       0.289431449857222       0.288570855177681     
  0.287710260498142       0.330580536815368       0.329719942135828     
  0.328859347456288       0.327998752776747       0.327138158097207     
  0.326277563417667       0.325416968738127       0.324556374058587     
  0.323695779379047       0.322835184699506       0.321974590019967     
  0.321113995340427       0.320253400660886       0.319392805981346     
  0.318532211301806       0.317671616622266       0.316811021942726     
  0.315950427263186       0.315089832583646       0.314229237904106     
  0.313368643224566       0.312508048545026       0.311647453865485     
  0.310786859185945       0.309926264506405       0.309065669826865     
  0.351198791315226       0.350338196635686       0.349477601956146     
  0.348617007276606       0.347756412597066       0.346895817917526     
  0.346035223237986       0.345174628558446       0.344314033878905     
  0.343453439199365       0.342592844519825       0.341732249840285     
  0.340871655160745       0.340011060481205       0.339150465801664     
  0.338289871122125       0.337429276442584       0.336568681763045     
  0.335708087083504       0.334847492403964       0.333986897724424     
  0.333126303044884       0.332265708365344       0.331405113685804     
  0.330544519006264       0.329683924326723       0.370727106935267     
  0.369866512255727       0.369005917576187       0.368145322896646     
  0.367284728217107       0.366424133537567       0.365563538858027     
  0.364702944178486       0.363842349498946       0.362981754819406     
  0.362121160139866       0.361260565460326       0.360399970780786     
  0.359539376101246       0.358678781421706       0.357818186742166     
  0.356957592062626       0.356096997383085       0.355236402703546     
  0.354375808024005       0.353515213344465       0.352654618664925     
  0.351794023985385       0.350933429305845       0.350072834626304     
  0.349212239946764       0.388831348780960       0.387970754101420     
  0.387110159421880       0.386249564742340       0.385388970062799     
  0.384528375383260       0.383667780703719       0.382807186024179     
  0.381946591344639       0.381085996665099       0.380225401985558     
  0.379364807306019       0.378504212626478       0.377643617946938     
  0.376783023267398       0.375922428587859       0.375061833908318     
  0.374201239228778       0.373340644549238       0.372480049869697     
  0.371619455190158       0.370758860510617       0.369898265831077     
  0.369037671151537       0.368177076471998       0.367316481792457     
  0.405201748254880       0.404341153575340       0.403480558895800     
  0.402619964216260       0.401759369536720       0.400898774857180     
  0.400038180177640       0.399177585498100       0.398316990818560     
  0.397456396139019       0.396595801459480       0.395735206779939     
  0.394874612100399       0.394014017420859       0.393153422741319     
  0.392292828061779       0.391432233382239       0.390571638702699     
  0.389711044023158       0.388850449343618       0.387989854664078     
  0.387129259984538       0.386268665304998       0.385408070625458     
  0.384547475945918       0.383686881266377       0.419558203283298     
  0.418697608603758       0.417837013924218       0.416976419244677     
  0.416115824565137       0.415255229885597       0.414394635206057     
  0.413534040526517       0.412673445846977       0.411812851167437     
  0.410952256487897       0.410091661808356       0.409231067128816     
  0.408370472449276       0.407509877769735       0.406649283090196     
  0.405788688410656       0.404928093731116       0.404067499051576     
  0.403206904372036       0.402346309692495       0.401485715012955     
  0.400625120333415       0.399764525653875       0.398903930974334     
  0.398043336294794       0.431655070940314       0.430794476260774     
  0.429933881581234       0.429073286901694       0.428212692222154     
  0.427352097542613       0.426491502863073       0.425630908183533     
  0.424770313503993       0.423909718824453       0.423049124144913     
  0.422188529465373       0.421327934785833       0.420467340106292     
  0.419606745426753       0.418746150747212       0.417885556067672     
  0.417024961388132       0.416164366708592       0.415303772029052     
  0.414443177349511       0.413582582669972       0.412721987990432     
  0.411861393310891       0.411000798631352       0.410140203951811     
  0.441285370466433       0.440424775786893       0.439564181107353     
  0.438703586427813       0.437842991748273       0.436982397068733     
  0.436121802389192       0.435261207709652       0.434400613030112     
  0.433540018350572       0.432679423671032       0.431818828991492     
  0.430958234311951       0.430097639632412       0.429237044952872     
  0.428376450273331       0.427515855593791       0.426655260914251     
  0.425794666234711       0.424934071555171       0.424073476875631     
  0.423212882196090       0.422352287516551       0.421491692837010     
  0.420631098157470       0.419770503477930       0.448284324766739     
  0.447423730087199       0.446563135407659       0.445702540728118     