 Title = "Wing and Wake"
 VARIABLES = "X" "Y" "Z" "GAM"
 Zone I=   26 J=   25 K=1  T="Blade"
 DATAPACKING=BLOCK
 VARLOCATION=([4]=CELLCENTERED)
  7.833152672568326E-002  7.918451028857224E-002  8.003749385146100E-002
  8.089047741434983E-002  8.174346097723854E-002  8.259644454012720E-002
  8.344942810301609E-002  8.430241166590470E-002  8.515539522879349E-002
  8.600837879168227E-002  8.686136235457122E-002  8.771434591745998E-002
  8.856732948034843E-002  8.942031304323737E-002  9.027329660612615E-002
  9.112628016901501E-002  9.197926373190377E-002  9.283224729479256E-002
  9.368523085768135E-002  9.453821442057007E-002  9.539119798345884E-002
  9.624418154634772E-002  9.709716510923642E-002  9.795014867212509E-002
  9.880313223501393E-002  9.965611579790255E-002  7.975982442754578E-002
  8.061280799043451E-002  8.146579155332344E-002  8.231877511621212E-002
  8.317175867910091E-002  8.402474224198982E-002  8.487772580487857E-002
  8.573070936776742E-002  8.658369293065589E-002  8.743667649354474E-002
  8.828966005643363E-002  8.914264361932234E-002  8.999562718221114E-002
  9.084861074509988E-002  9.170159430798848E-002  9.255457787087730E-002
  9.340756143376608E-002  9.426054499665491E-002  9.511352855954372E-002
  9.596651212243261E-002  9.681949568532118E-002  9.767247924820990E-002
  9.852546281109888E-002  9.937844637398748E-002  0.100231429936876     
  0.101084413499765       8.402027896345500E-002  8.487326252634377E-002
  8.572624608923263E-002  8.657922965212135E-002  8.743221321501027E-002
  8.828519677789881E-002  8.913818034078765E-002  8.999116390367640E-002
  9.084414746656519E-002  9.169713102945393E-002  9.255011459234246E-002
  9.340309815523150E-002  9.425608171812011E-002  9.510906528100900E-002
  9.596204884389783E-002  9.681503240678664E-002  9.766801596967528E-002
  9.852099953256421E-002  9.937398309545280E-002  0.100226966658342     
  0.101079950221230       0.101932933784119       0.102785917347008     
  0.103638900909897       0.104491884472785       0.105344868035674     
  9.103999277508058E-002  9.189297633796949E-002  9.274595990085809E-002
  9.359894346374688E-002  9.445192702663546E-002  9.530491058952448E-002
  9.615789415241320E-002  9.701087771530204E-002  9.786386127819084E-002
  9.871684484107980E-002  9.956982840396839E-002  0.100422811966857     
  0.101275795529746       0.102128779092635       0.102981762655523     
  0.103834746218412       0.104687729781301       0.105540713344190     
  0.106393696907078       0.107246680469967       0.108099664032856     
  0.108952647595745       0.109805631158634       0.110658614721522     
  0.111511598284411       0.112364581847300       0.100698856612874     
  0.101551840175762       0.102404823738651       0.103257807301539     
  0.104110790864429       0.104963774427317       0.105816757990206     
  0.106669741553095       0.107522725115983       0.108375708678872     
  0.109228692241761       0.110081675804650       0.110934659367538     
  0.111787642930427       0.112640626493316       0.113493610056205     
  0.114346593619094       0.115199577181982       0.116052560744871     
  0.116905544307760       0.117758527870649       0.118611511433537     
  0.119464494996426       0.120317478559315       0.121170462122204     
  0.122023445685093       0.112831604638625       0.113684588201514     
  0.114537571764403       0.115390555327292       0.116243538890180     
  0.117096522453069       0.117949506015958       0.118802489578847     
  0.119655473141735       0.120508456704624       0.121361440267513     
  0.122214423830402       0.123067407393291       0.123920390956179     
  0.124773374519068       0.125626358081957       0.126479341644846     
  0.127332325207734       0.128185308770623       0.129038292333512     
  0.129891275896401       0.130744259459290       0.131597243022178     
  0.132450226585067       0.133303210147956       0.134156193710845     
  0.127230642169783       0.128083625732672       0.128936609295561     
  0.129789592858449       0.130642576421338       0.131495559984227     
  0.132348543547116       0.133201527110005       0.134054510672893     
  0.134907494235782       0.135760477798671       0.136613461361559     
  0.137466444924448       0.138319428487337       0.139172412050226     
  0.140025395613115       0.140878379176003       0.141731362738892     
  0.142584346301781       0.143437329864670       0.144290313427558     
  0.145143296990447       0.145996280553336       0.146849264116225     
  0.147702247679114       0.148555231242002       0.143649597682021     
  0.144502581244910       0.145355564807798       0.146208548370687     
  0.147061531933576       0.147914515496465       0.148767499059353     
  0.149620482622242       0.150473466185131       0.151326449748020     
  0.152179433310908       0.153032416873797       0.153885400436686     
  0.154738383999575       0.155591367562464       0.156444351125353     
  0.157297334688241       0.158150318251130       0.159003301814019     
  0.159856285376907       0.160709268939796       0.161562252502685     
  0.162415236065574       0.163268219628463       0.164121203191351     
  0.164974186754240       0.161807538294330       0.162660521857218     
  0.163513505420107       0.164366488982996       0.165219472545885     
  0.166072456108774       0.166925439671662       0.167778423234551     
  0.168631406797440       0.169484390360329       0.170337373923217     
  0.171190357486106       0.172043341048995       0.172896324611884     
  0.173749308174772       0.174602291737661       0.175455275300550     
  0.176308258863439       0.177161242426328       0.178014225989217     
  0.178867209552105       0.179720193114994       0.180573176677882     
  0.181426160240771       0.182279143803660       0.183132127366549     
  0.181393776608501       0.182246760171390       0.183099743734279     
  0.183952727297168       0.184805710860056       0.185658694422945     
  0.186511677985834       0.187364661548722       0.188217645111611     
  0.189070628674500       0.189923612237389       0.190776595800277     
  0.191629579363166       0.192482562926055       0.193335546488943     
  0.194188530051833       0.195041513614721       0.195894497177610     
  0.196747480740499       0.197600464303388       0.198453447866276     
  0.199306431429165       0.200159414992054       0.201012398554942     
  0.201865382117831       0.202718365680720       0.202073186656648     
  0.202926170219537       0.203779153782425       0.204632137345314     
  0.205485120908203       0.206338104471092       0.207191088033981     
  0.208044071596869       0.208897055159758       0.209750038722647     
  0.210603022285535       0.211456005848424       0.212308989411313     
  0.213161972974202       0.214014956537091       0.214867940099980     
  0.215720923662868       0.216573907225757       0.217426890788646     
  0.218279874351535       0.219132857914424       0.219985841477312     
  0.220838825040201       0.221691808603090       0.222544792165978     
  0.223397775728867       0.223491937999431       0.224344921562319     
  0.225197905125209       0.226050888688098       0.226903872250986     
  0.227756855813875       0.228609839376764       0.229462822939653     
  0.230315806502542       0.231168790065430       0.232021773628319     
  0.232874757191208       0.233727740754096       0.234580724316985     
  0.235433707879874       0.236286691442763       0.237139675005651     
  0.237992658568541       0.238845642131429       0.239698625694318     
  0.240551609257206       0.241404592820095       0.242257576382985     
  0.243110559945873       0.243963543508762       0.244816527071650     
  0.245283549862976       0.246136533425865       0.246989516988753     
  0.247842500551642       0.248695484114531       0.249548467677420     
  0.250401451240309       0.251254434803197       0.252107418366087     
  0.252960401928975       0.253813385491864       0.254666369054753     
  0.255519352617641       0.256372336180530       0.257225319743419     
  0.258078303306307       0.258931286869196       0.259784270432086     
  0.260637253994974       0.261490237557863       0.262343221120752     
  0.263196204683640       0.264049188246529       0.264902171809418     
  0.265755155372307       0.266608138935195       0.267075161726521     
  0.267928145289409       0.268781128852298       0.269634112415187     
  0.270487095978076       0.271340079540964       0.272193063103853     
  0.273046046666742       0.273899030229630       0.274752013792520     
  0.275604997355408       0.276457980918297       0.277310964481186     
  0.278163948044075       0.279016931606964       0.279869915169852     
  0.280722898732741       0.281575882295630       0.282428865858519     
  0.283281849421407       0.284134832984296       0.284987816547186     
  0.285840800110075       0.286693783672962       0.287546767235851     
  0.288399750798740       0.288493913069304       0.289346896632193     
  0.290199880195082       0.291052863757970       0.291905847320859     
  0.292758830883748       0.293611814446637       0.294464798009526     
  0.295317781572415       0.296170765135302       0.297023748698192     
  0.297876732261081       0.298729715823969       0.299582699386858     
  0.300435682949747       0.301288666512636       0.302141650075524     
  0.302994633638413       0.303847617201302       0.304700600764191     
  0.305553584327079       0.306406567889968       0.307259551452857     
  0.308112535015746       0.308965518578635       0.309818502141523     
  0.309173323117451       0.310026306680340       0.310879290243229     
  0.311732273806118       0.312585257369006       0.313438240931895     
  0.314291224494784       0.315144208057673       0.315997191620561     
  0.316850175183450       0.317703158746338       0.318556142309228     
  0.319409125872116       0.320262109435006       0.321115092997894     
  0.321968076560783       0.322821060123671       0.323674043686560     
  0.324527027249449       0.325380010812337       0.326232994375226     
  0.327085977938115       0.327938961501004       0.328791945063893     
  0.329644928626782       0.330497912189669       0.328759561431622     
  0.329612544994512       0.330465528557400       0.331318512120289     
  0.332171495683177       0.333024479246067       0.333877462808955     
  0.334730446371844       0.335583429934732       0.336436413497621     
  0.337289397060511       0.338142380623399       0.338995364186287     
  0.339848347749177       0.340701331312065       0.341554314874954     
  0.342407298437842       0.343260282000731       0.344113265563620     
  0.344966249126510       0.345819232689398       0.346672216252286     
  0.347525199815176       0.348378183378064       0.349231166940953     
  0.350084150503841       0.346917502043931       0.347770485606820     
  0.348623469169709       0.349476452732598       0.350329436295486     
  0.351182419858375       0.352035403421264       0.352888386984152     
  0.353741370547041       0.354594354109930       0.355447337672819     
  0.356300321235708       0.357153304798596       0.358006288361485     
  0.358859271924374       0.359712255487264       0.360565239050152     
  0.361418222613041       0.362271206175929       0.363124189738818     
  0.363977173301707       0.364830156864596       0.365683140427485     
  0.366536123990373       0.367389107553262       0.368242091116151     
  0.363336457556169       0.364189441119058       0.365042424681947     
  0.365895408244835       0.366748391807725       0.367601375370613     
  0.368454358933502       0.369307342496391       0.370160326059279     
  0.371013309622168       0.371866293185057       0.372719276747946     
  0.373572260310834       0.374425243873723       0.375278227436612     
  0.376131210999501       0.376984194562389       0.377837178125278     
  0.378690161688167       0.379543145251056       0.380396128813945     
  0.381249112376834       0.382102095939722       0.382955079502611     
  0.383808063065499       0.384661046628388       0.377735495087327     
  0.378588478650216       0.379441462213105       0.380294445775993     
  0.381147429338881       0.382000412901770       0.382853396464659     
  0.383706380027548       0.384559363590437       0.385412347153326     
  0.386265330716214       0.387118314279103       0.387971297841992     
  0.388824281404881       0.389677264967769       0.390530248530659     
  0.391383232093548       0.392236215656436       0.393089199219325     
  0.393942182782213       0.394795166345102       0.395648149907990     
  0.396501133470880       0.397354117033767       0.398207100596657     
  0.399060084159546       0.389868243113079       0.390721226675968     
  0.391574210238856       0.392427193801746       0.393280177364634     
  0.394133160927523       0.394986144490411       0.395839128053300     
  0.396692111616189       0.397545095179077       0.398398078741967     
  0.399251062304855       0.400104045867744       0.400957029430633     
  0.401810012993522       0.402662996556411       0.403515980119299     
  0.404368963682188       0.405221947245076       0.406074930807966     
  0.406927914370854       0.407780897933743       0.408633881496632     
  0.409486865059521       0.410339848622410       0.411192832185298     
  0.399527106950871       0.400380090513760       0.401233074076649     
  0.402086057639538       0.402939041202427       0.403792024765316     
  0.404645008328204       0.405497991891093       0.406350975453982     
  0.407203959016871       0.408056942579760       0.408909926142649     
  0.409762909705537       0.410615893268426       0.411468876831315     
  0.412321860394203       0.413174843957092       0.414027827519980     
  0.414880811082869       0.415733794645758       0.416586778208647     
  0.417439761771536       0.418292745334425       0.419145728897313     
  0.419998712460202       0.420851696023091       0.406546820762497     
  0.407399804325386       0.408252787888274       0.409105771451164     
  0.409958755014052       0.410811738576941       0.411664722139830     
  0.412517705702719       0.413370689265607       0.414223672828496     
  0.415076656391385       0.415929639954274       0.416782623517163     
  0.417635607080051       0.418488590642940       0.419341574205829     
  0.420194557768717       0.421047541331607       0.421900524894495     
  0.422753508457383       0.423606492020273       0.424459475583162     
  0.425312459146050       0.426165442708939       0.427018426271828     
  0.427871409834717       0.410807275298407       0.411660258861295     
  0.412513242424184       0.413366225987073       0.414219209549961     
  0.415072193112850       0.415925176675739       0.416778160238628     
  0.417631143801517       0.418484127364406       0.419337110927294     
  0.420190094490183       0.421043078053071       0.421896061615960     
  0.422749045178850       0.423602028741737       0.424455012304627     
  0.425307995867516       0.426160979430404       0.427013962993293     
  0.427866946556182       0.428719930119071       0.429572913681959     
  0.430425897244848       0.431278880807736       0.432131864370626     
  0.412235573000268       0.413088556563157       0.413941540126046     
  0.414794523688935       0.415647507251824       0.416500490814713     
  0.417353474377601       0.418206457940490       0.419059441503378     
  0.419912425066268       0.420765408629156       0.421618392192046     
  0.422471375754933       0.423324359317823       0.424177342880712     
  0.425030326443600       0.425883310006488       0.426736293569378     
  0.427589277132267       0.428442260695155       0.429295244258044     
  0.430148227820932       0.431001211383821       0.431854194946710     
  0.432707178509600       0.433560162072488     
  9.454190563355264E-002  9.305585493801871E-002  9.156980424248461E-002
  9.008375354695075E-002  8.859770285141652E-002  8.711165215588233E-002
  8.562560146034823E-002  8.413955076481427E-002  8.265350006928028E-002
  8.116744937374620E-002  7.968139867821222E-002  7.819534798267819E-002
  7.670929728714404E-002  7.522324659160994E-002  7.373719589607593E-002
  7.225114520054192E-002  7.076509450500776E-002  6.927904380947378E-002
  6.779299311393969E-002  6.630694241840566E-002  6.482089172287164E-002
  6.333484102733759E-002  6.184879033180357E-002  6.036273963626940E-002
  5.887668894073538E-002  5.739063824520131E-002  9.536173934868891E-002
  9.387568865315481E-002  9.238963795762077E-002  9.090358726208686E-002
  8.941753656655264E-002  8.793148587101880E-002  8.644543517548475E-002
  8.495938447995055E-002  8.347333378441649E-002  8.198728308888248E-002
  8.050123239334840E-002  7.901518169781437E-002  7.752913100228022E-002
  7.604308030674622E-002  7.455702961121206E-002  7.307097891567797E-002
  7.158492822014410E-002  7.009887752460998E-002  6.861282682907610E-002
  6.712677613354202E-002  6.564072543800772E-002  6.415467474247381E-002
  6.266862404693965E-002  6.118257335140564E-002  5.969652265587164E-002
  5.821047196033752E-002  9.780721291193051E-002  9.632116221639651E-002
  9.483511152086245E-002  9.334906082532837E-002  9.186301012979443E-002
  9.037695943426043E-002  8.889090873872633E-002  8.740485804319230E-002
  8.591880734765817E-002  8.443275665212417E-002  8.294670595658997E-002
  8.146065526105603E-002  7.997460456552190E-002  7.848855386998799E-002
  7.700250317445384E-002  7.551645247891979E-002  7.403040178338573E-002
  7.254435108785164E-002  7.105830039231756E-002  6.957224969678361E-002
  6.808619900124960E-002  6.660014830571533E-002  6.511409761018132E-002
  6.362804691464730E-002  6.214199621911322E-002  6.065594552357924E-002
  0.101836483592597       0.100350432897063       9.886438220152929E-002
  9.737833150599522E-002  9.589228081046086E-002  9.440623011492719E-002
  9.292017941939300E-002  9.143412872385889E-002  8.994807802832508E-002
  8.846202733279117E-002  8.697597663725687E-002  8.548992594172297E-002
  8.400387524618877E-002  8.251782455065465E-002  8.103177385512063E-002
  7.954572315958654E-002  7.805967246405260E-002  7.657362176851862E-002
  7.508757107298429E-002  7.360152037745031E-002  7.211546968191639E-002
  7.062941898638216E-002  6.914336829084827E-002  6.765731759531421E-002
  6.617126689978015E-002  6.468521620424596E-002  0.107380609452218     
  0.105894558756684       0.104408508061150       0.102922457365616     
  0.101436406670082       9.995035597454791E-002  9.846430527901406E-002
  9.697825458347983E-002  9.549220388794569E-002  9.400615319241179E-002
  9.252010249687780E-002  9.103405180134370E-002  8.954800110580954E-002
  8.806195041027556E-002  8.657589971474119E-002  8.508984901920741E-002
  8.360379832367333E-002  8.211774762813950E-002  8.063169693260537E-002
  7.914564623707128E-002  7.765959554153723E-002  7.617354484600324E-002
  7.468749415046910E-002  7.320144345493503E-002  7.171539275940099E-002
  7.022934206386690E-002  0.114344728960213       0.112858678264679     
  0.111372627569145       0.109886576873611       0.108400526178077     
  0.106914475482543       0.105428424787009       0.103942374091474     
  0.102456323395941       0.100970272700406       9.948422200487203E-002
  9.799817130933824E-002  9.651212061380458E-002  9.502606991827015E-002
  9.354001922273615E-002  9.205396852720206E-002  9.056791783166804E-002
  8.908186713613399E-002  8.759581644059979E-002  8.610976574506590E-002
  8.462371504953162E-002  8.313766435399775E-002  8.165161365846360E-002
  8.016556296292962E-002  7.867951226739558E-002  7.719346157186149E-002
  0.122609684100981       0.121123633405447       0.119637582709913     
  0.118151532014379       0.116665481318845       0.115179430623311     
  0.113693379927777       0.112207329232243       0.110721278536708     
  0.109235227841174       0.107749177145640       0.106263126450106     
  0.104777075754572       0.103291025059038       0.101804974363504     
  0.100318923667970       9.883287297243588E-002  9.734682227690186E-002
  9.586077158136765E-002  9.437472088583380E-002  9.288867019029942E-002
  9.140261949476551E-002  8.991656879923163E-002  8.843051810369745E-002
  8.694446740816363E-002  8.545841671262959E-002  0.132034059200585     
  0.130548008505051       0.129061957809517       0.127575907113983     
  0.126089856418449       0.124603805722915       0.123117755027381     
  0.121631704331847       0.120145653636313       0.118659602940779     
  0.117173552245244       0.115687501549711       0.114201450854176     
  0.112715400158643       0.111229349463109       0.109743298767575     
  0.108257248072040       0.106771197376506       0.105285146680972     
  0.103799095985438       0.102313045289904       0.100826994594370     
  9.934094389883587E-002  9.785489320330194E-002  9.636884250776789E-002
  9.488279181223370E-002  0.142456600588141       0.140970549892607     
  0.139484499197073       0.137998448501539       0.136512397806005     
  0.135026347110470       0.133540296414937       0.132054245719403     
  0.130568195023869       0.129082144328335       0.127596093632800     
  0.126110042937266       0.124623992241732       0.123137941546198     
  0.121651890850664       0.120165840155130       0.118679789459596     
  0.117193738764062       0.115707688068528       0.114221637372994     
  0.112735586677460       0.111249535981926       0.109763485286392     
  0.108277434590858       0.106791383895324       0.105305333199790     
  0.153698975690833       0.152212924995299       0.150726874299765     
  0.149240823604231       0.147754772908697       0.146268722213163     
  0.144782671517629       0.143296620822095       0.141810570126561     
  0.140324519431027       0.138838468735493       0.137352418039958     
  0.135866367344425       0.134380316648890       0.132894265953356     
  0.131408215257822       0.129922164562288       0.128436113866754     
  0.126950063171220       0.125464012475686       0.123977961780152     
  0.122491911084618       0.121005860389084       0.119519809693550     
  0.118033758998016       0.116547708302482       0.165568824353679     
  0.164082773658145       0.162596722962611       0.161110672267077     
  0.159624621571543       0.158138570876009       0.156652520180475     
  0.155166469484941       0.153680418789407       0.152194368093873     
  0.150708317398338       0.149222266702804       0.147736216007271     
  0.146250165311736       0.144764114616202       0.143278063920668     
  0.141792013225134       0.140305962529600       0.138819911834066     
  0.137333861138532       0.135847810442998       0.134361759747464     
  0.132875709051930       0.131389658356396       0.129903607660861     
  0.128417556965328       0.177863050175114       0.176376999479580     
  0.174890948784046       0.173404898088512       0.171918847392978     
  0.170432796697444       0.168946746001910       0.167460695306375     
  0.165974644610842       0.164488593915307       0.163002543219773     
  0.161516492524239       0.160030441828705       0.158544391133171     
  0.157058340437637       0.155572289742103       0.154086239046569     
  0.152600188351035       0.151114137655501       0.149628086959967     
  0.148142036264433       0.146655985568898       0.145169934873365     
  0.143683884177831       0.142197833482297       0.140711782786763     
  0.190371295542729       0.188885244847195       0.187399194151661     
  0.185913143456127       0.184427092760593       0.182941042065059     
  0.181454991369525       0.179968940673991       0.178482889978457     
  0.176996839282923       0.175510788587389       0.174024737891855     
  0.172538687196321       0.171052636500787       0.169566585805253     
  0.168080535109719       0.166594484414185       0.165108433718651     
  0.163622383023116       0.162136332327582       0.160650281632048     
  0.159164230936514       0.157678180240980       0.156192129545447     
  0.154706078849912       0.153220028154378       0.202879540910345     
  0.201393490214811       0.199907439519277       0.198421388823742     
  0.196935338128209       0.195449287432675       0.193963236737141     
  0.192477186041607       0.190991135346072       0.189505084650539     
  0.188019033955004       0.186532983259470       0.185046932563937     
  0.183560881868402       0.182074831172868       0.180588780477334     
  0.179102729781800       0.177616679086266       0.176130628390732     
  0.174644577695198       0.173158526999664       0.171672476304130     
  0.170186425608596       0.168700374913061       0.167214324217527     
  0.165728273521994       0.215173766731780       0.213687716036246     
  0.212201665340712       0.210715614645177       0.209229563949644     
  0.207743513254110       0.206257462558575       0.204771411863042     
  0.203285361167507       0.201799310471973       0.200313259776439     
  0.198827209080905       0.197341158385371       0.195855107689837     
  0.194369056994303       0.192883006298769       0.191396955603234     
  0.189910904907701       0.188424854212167       0.186938803516633     
  0.185452752821098       0.183966702125564       0.182480651430030     
  0.180994600734496       0.179508550038962       0.178022499343428     
  0.227043615394626       0.225557564699092       0.224071514003558     
  0.222585463308024       0.221099412612489       0.219613361916955     
  0.218127311221422       0.216641260525887       0.215155209830353     
  0.213669159134819       0.212183108439285       0.210697057743751     
  0.209211007048217       0.207724956352683       0.206238905657149     
  0.204752854961615       0.203266804266081       0.201780753570547     
  0.200294702875013       0.198808652179479       0.197322601483944     
  0.195836550788410       0.194350500092876       0.192864449397342     
  0.191378398701808       0.189892348006273       0.238285990497318     
  0.236799939801784       0.235313889106250       0.233827838410715     
  0.232341787715182       0.230855737019647       0.229369686324114     
  0.227883635628579       0.226397584933045       0.224911534237511     
  0.223425483541977       0.221939432846443       0.220453382150909     
  0.218967331455375       0.217481280759841       0.215995230064307     
  0.214509179368773       0.213023128673239       0.211537077977705     
  0.210051027282171       0.208564976586637       0.207078925891103     
  0.205592875195569       0.204106824500034       0.202620773804500     
  0.201134723108966       0.248708531884873       0.247222481189340     
  0.245736430493806       0.244250379798271       0.242764329102737     
  0.241278278407204       0.239792227711669       0.238306177016135     
  0.236820126320601       0.235334075625067       0.233848024929533     
  0.232361974233999       0.230875923538465       0.229389872842931     
  0.227903822147396       0.226417771451863       0.224931720756329     
  0.223445670060795       0.221959619365261       0.220473568669726     
  0.218987517974193       0.217501467278658       0.216015416583125     
  0.214529365887590       0.213043315192056       0.211557264496522     
  0.258132906984478       0.256646856288944       0.255160805593410     
  0.253674754897876       0.252188704202342       0.250702653506807     
  0.249216602811274       0.247730552115740       0.246244501420206     
  0.244758450724671       0.243272400029138       0.241786349333603     
  0.240300298638069       0.238814247942535       0.237328197247001     
  0.235842146551467       0.234356095855933       0.232870045160399     
  0.231383994464865       0.229897943769331       0.228411893073797     
  0.226925842378262       0.225439791682729       0.223953740987195     
  0.222467690291660       0.220981639596126       0.266397862125246     
  0.264911811429712       0.263425760734178       0.261939710038644     
  0.260453659343109       0.258967608647575       0.257481557952041     
  0.255995507256507       0.254509456560973       0.253023405865439     
  0.251537355169905       0.250051304474371       0.248565253778837     
  0.247079203083303       0.245593152387769       0.244107101692235     
  0.242621050996700       0.241135000301167       0.239648949605633     
  0.238162898910099       0.236676848214565       0.235190797519030     
  0.233704746823497       0.232218696127962       0.230732645432428     
  0.229246594736894       0.273361981633240       0.271875930937706     
  0.270389880242173       0.268903829546637       0.267417778851104     
  0.265931728155570       0.264445677460036       0.262959626764502     
  0.261473576068968       0.259987525373434       0.258501474677900     
  0.257015423982366       0.255529373286832       0.254043322591298     
  0.252557271895763       0.251071221200230       0.249585170504695     
  0.248099119809162       0.246613069113627       0.245127018418093     
  0.243640967722559       0.242154917027025       0.240668866331491     
  0.239182815635957       0.237696764940424       0.236210714244889     
  0.278906107492861       0.277420056797327       0.275934006101793     
  0.274447955406260       0.272961904710725       0.271475854015191     
  0.269989803319657       0.268503752624123       0.267017701928588     
  0.265531651233055       0.264045600537521       0.262559549841987     
  0.261073499146452       0.259587448450918       0.258101397755385     
  0.256615347059851       0.255129296364317       0.253643245668782     
  0.252157194973248       0.250671144277714       0.249185093582180     
  0.247699042886646       0.246212992191112       0.244726941495578     
  0.243240890800044       0.241754840104510       0.282935378173528     
  0.281449327477994       0.279963276782460       0.278477226086926     