 Title = "Wing and Wake"
 VARIABLES = "X" "Y" "Z" "GAM"
 Zone I=   26 J=   25 K=1  T="Blade"
 DATAPACKING=BLOCK
 VARLOCATION=([4]=CELLCENTERED)
  0.115104331561733       0.115100160602933       0.115095989644133     
  0.115091818685333       0.115087647726533       0.115083476767733     
  0.115079305808933       0.115075134850133       0.115070963891333     
  0.115066792932533       0.115062621973733       0.115058451014933     
  0.115054280056132       0.115050109097332       0.115045938138532     
  0.115041767179733       0.115037596220932       0.115033425262132     
  0.115029254303332       0.115025083344532       0.115020912385732     
  0.115016741426932       0.115012570468132       0.115008399509332     
  0.115004228550532       0.115000057591732       0.116751190868004     
  0.116747019909204       0.116742848950404       0.116738677991604     
  0.116734507032804       0.116730336074004       0.116726165115204     
  0.116721994156404       0.116717823197604       0.116713652238804     
  0.116709481280004       0.116705310321204       0.116701139362404     
  0.116696968403604       0.116692797444803       0.116688626486003     
  0.116684455527204       0.116680284568404       0.116676113609604     
  0.116671942650804       0.116667771692003       0.116663600733203     
  0.116659429774403       0.116655258815603       0.116651087856803     
  0.116646916898003       0.121663590567491       0.121659419608691     
  0.121655248649891       0.121651077691091       0.121646906732291     
  0.121642735773491       0.121638564814691       0.121634393855891     
  0.121630222897091       0.121626051938291       0.121621880979491     
  0.121617710020691       0.121613539061891       0.121609368103091     
  0.121605197144291       0.121601026185491       0.121596855226691     
  0.121592684267891       0.121588513309091       0.121584342350291     
  0.121580171391491       0.121576000432690       0.121571829473891     
  0.121567658515090       0.121563487556290       0.121559316597491     
  0.129757478139362       0.129753307180562       0.129749136221762     
  0.129744965262962       0.129740794304162       0.129736623345362     
  0.129732452386562       0.129728281427762       0.129724110468962     
  0.129719939510162       0.129715768551362       0.129711597592562     
  0.129707426633762       0.129703255674962       0.129699084716162     
  0.129694913757362       0.129690742798562       0.129686571839762     
  0.129682400880962       0.129678229922161       0.129674058963361     
  0.129669888004561       0.129665717045762       0.129661546086962     
  0.129657375128161       0.129653204169361       0.140894364923213     
  0.140890193964412       0.140886023005612       0.140881852046812     
  0.140877681088012       0.140873510129212       0.140869339170412     
  0.140865168211612       0.140860997252812       0.140856826294012     
  0.140852655335212       0.140848484376412       0.140844313417611     
  0.140840142458812       0.140835971500012       0.140831800541212     
  0.140827629582412       0.140823458623612       0.140819287664812     
  0.140815116706012       0.140810945747212       0.140806774788411     
  0.140802603829611       0.140798432870811       0.140794261912012     
  0.140790090953211       0.154883695698441       0.154879524739641     
  0.154875353780841       0.154871182822041       0.154867011863241     
  0.154862840904441       0.154858669945641       0.154854498986841     
  0.154850328028041       0.154846157069241       0.154841986110441     
  0.154837815151641       0.154833644192841       0.154829473234041     
  0.154825302275241       0.154821131316441       0.154816960357641     
  0.154812789398841       0.154808618440041       0.154804447481241     
  0.154800276522441       0.154796105563641       0.154791934604840     
  0.154787763646041       0.154783592687241       0.154779421728441     
  0.171486109136910       0.171481938178110       0.171477767219311     
  0.171473596260510       0.171469425301710       0.171465254342910     
  0.171461083384110       0.171456912425310       0.171452741466510     
  0.171448570507710       0.171444399548910       0.171440228590110     
  0.171436057631310       0.171431886672510       0.171427715713710     
  0.171423544754910       0.171419373796110       0.171415202837310     
  0.171411031878510       0.171406860919710       0.171402689960909     
  0.171398519002109       0.171394348043310       0.171390177084509     
  0.171386006125710       0.171381835166910       0.190417533341629     
  0.190413362382828       0.190409191424028       0.190405020465228     
  0.190400849506428       0.190396678547628       0.190392507588828     
  0.190388336630028       0.190384165671228       0.190379994712428     
  0.190375823753628       0.190371652794828       0.190367481836028     
  0.190363310877228       0.190359139918428       0.190354968959628     
  0.190350798000828       0.190346627042028       0.190342456083228     
  0.190338285124428       0.190334114165628       0.190329943206828     
  0.190325772248028       0.190321601289228       0.190317430330428     
  0.190313259371627       0.211354046395670       0.211349875436870     
  0.211345704478070       0.211341533519270       0.211337362560470     
  0.211333191601670       0.211329020642870       0.211324849684070     
  0.211320678725270       0.211316507766470       0.211312336807670     
  0.211308165848869       0.211303994890070       0.211299823931269     
  0.211295652972469       0.211291482013670       0.211287311054869     
  0.211283140096069       0.211278969137269       0.211274798178469     
  0.211270627219669       0.211266456260869       0.211262285302069     
  0.211258114343269       0.211253943384469       0.211249772425669     
  0.233937418755982       0.233933247797183       0.233929076838383     
  0.233924905879583       0.233920734920783       0.233916563961983     
  0.233912393003183       0.233908222044382       0.233904051085583     
  0.233899880126783       0.233895709167982       0.233891538209182     
  0.233887367250382       0.233883196291583       0.233879025332782     
  0.233874854373983       0.233870683415182       0.233866512456383     
  0.233862341497582       0.233858170538782       0.233853999579982     
  0.233849828621182       0.233845657662382       0.233841486703582     
  0.233837315744781       0.233833144785982       0.257781242660188     
  0.257777071701388       0.257772900742587       0.257768729783788     
  0.257764558824988       0.257760387866188       0.257756216907388     
  0.257752045948588       0.257747874989787       0.257743704030988     
  0.257739533072187       0.257735362113388       0.257731191154588     
  0.257727020195787       0.257722849236987       0.257718678278188     
  0.257714507319387       0.257710336360587       0.257706165401787     
  0.257701994442987       0.257697823484188       0.257693652525387     
  0.257689481566587       0.257685310607787       0.257681139648987     
  0.257676968690187       0.282477543670528       0.282473372711727     
  0.282469201752927       0.282465030794128       0.282460859835328     
  0.282456688876528       0.282452517917727       0.282448346958928     
  0.282444176000128       0.282440005041327       0.282435834082528     
  0.282431663123727       0.282427492164927       0.282423321206127     
  0.282419150247327       0.282414979288527       0.282410808329727     
  0.282406637370927       0.282402466412128       0.282398295453328     
  0.282394124494527       0.282389953535727       0.282385782576927     
  0.282381611618128       0.282377440659327       0.282373269700527     
  0.307603761229607       0.307599590270808       0.307595419312006     
  0.307591248353207       0.307587077394407       0.307582906435607     
  0.307578735476807       0.307574564518006       0.307570393559207     
  0.307566222600407       0.307562051641607       0.307557880682807     
  0.307553709724006       0.307549538765207       0.307545367806406     
  0.307541196847606       0.307537025888807       0.307532854930007     
  0.307528683971206       0.307524513012406       0.307520342053607     
  0.307516171094806       0.307512000136007       0.307507829177207     
  0.307503658218406       0.307499487259606       0.332729978788686     
  0.332725807829885       0.332721636871086       0.332717465912286     
  0.332713294953486       0.332709123994686       0.332704953035886     
  0.332700782077086       0.332696611118285       0.332692440159487     
  0.332688269200686       0.332684098241886       0.332679927283086     
  0.332675756324286       0.332671585365486       0.332667414406686     
  0.332663243447885       0.332659072489086       0.332654901530286     
  0.332650730571485       0.332646559612685       0.332642388653886     
  0.332638217695087       0.332634046736285       0.332629875777485     
  0.332625704818686       0.357426279799026       0.357422108840226     
  0.357417937881426       0.357413766922626       0.357409595963826     
  0.357405425005027       0.357401254046226       0.357397083087427     
  0.357392912128626       0.357388741169825       0.357384570211026     
  0.357380399252226       0.357376228293425       0.357372057334626     
  0.357367886375827       0.357363715417026       0.357359544458225     
  0.357355373499426       0.357351202540626       0.357347031581826     
  0.357342860623025       0.357338689664225       0.357334518705425     
  0.357330347746625       0.357326176787825       0.357322005829025     
  0.381270103703231       0.381265932744431       0.381261761785632     
  0.381257590826832       0.381253419868031       0.381249248909231     
  0.381245077950432       0.381240906991631       0.381236736032831     
  0.381232565074031       0.381228394115230       0.381224223156431     
  0.381220052197631       0.381215881238831       0.381211710280030     
  0.381207539321230       0.381203368362430       0.381199197403631     
  0.381195026444831       0.381190855486030       0.381186684527231     
  0.381182513568431       0.381178342609630       0.381174171650831     
  0.381170000692031       0.381165829733229       0.403853476063544     
  0.403849305104744       0.403845134145945       0.403840963187144     
  0.403836792228344       0.403832621269544       0.403828450310744     
  0.403824279351944       0.403820108393144       0.403815937434343     
  0.403811766475545       0.403807595516743       0.403803424557944     
  0.403799253599144       0.403795082640343       0.403790911681543     
  0.403786740722744       0.403782569763943       0.403778398805144     
  0.403774227846344       0.403770056887544       0.403765885928744     
  0.403761714969944       0.403757544011143       0.403753373052344     
  0.403749202093543       0.424789989117586       0.424785818158786     
  0.424781647199987       0.424777476241186       0.424773305282386     
  0.424769134323586       0.424764963364785       0.424760792405985     
  0.424756621447185       0.424752450488385       0.424748279529585     
  0.424744108570786       0.424739937611985       0.424735766653185     
  0.424731595694385       0.424727424735586       0.424723253776785     
  0.424719082817986       0.424714911859186       0.424710740900385     
  0.424706569941586       0.424702398982785       0.424698228023985     
  0.424694057065185       0.424689886106385       0.424685715147585     
  0.443721413322304       0.443717242363503       0.443713071404705     
  0.443708900445903       0.443704729487104       0.443700558528303     
  0.443696387569504       0.443692216610704       0.443688045651903     
  0.443683874693103       0.443679703734304       0.443675532775503     
  0.443671361816703       0.443667190857903       0.443663019899103     
  0.443658848940303       0.443654677981503       0.443650507022703     
  0.443646336063903       0.443642165105104       0.443637994146303     
  0.443633823187503       0.443629652228702       0.443625481269903     
  0.443621310311103       0.443617139352303       0.460323826760774     
  0.460319655801973       0.460315484843173       0.460311313884373     
  0.460307142925572       0.460302971966772       0.460298801007972     
  0.460294630049172       0.460290459090372       0.460286288131572     
  0.460282117172772       0.460277946213972       0.460273775255173     
  0.460269604296372       0.460265433337572       0.460261262378772     
  0.460257091419973       0.460252920461172       0.460248749502373     
  0.460244578543572       0.460240407584772       0.460236236625971     
  0.460232065667172       0.460227894708371       0.460223723749571     
  0.460219552790771       0.474313157536002       0.474308986577202     
  0.474304815618401       0.474300644659602       0.474296473700803     
  0.474292302742002       0.474288131783202       0.474283960824401     
  0.474279789865601       0.474275618906801       0.474271447948002     
  0.474267276989201       0.474263106030402       0.474258935071601     
  0.474254764112802       0.474250593154002       0.474246422195201     
  0.474242251236402       0.474238080277601       0.474233909318802     
  0.474229738360000       0.474225567401201       0.474221396442401     
  0.474217225483601       0.474213054524802       0.474208883566001     
  0.485450044319852       0.485445873361052       0.485441702402251     
  0.485437531443452       0.485433360484652       0.485429189525853     
  0.485425018567052       0.485420847608251       0.485416676649452     
  0.485412505690652       0.485408334731853       0.485404163773052     
  0.485399992814252       0.485395821855452       0.485391650896652     
  0.485387479937851       0.485383308979052       0.485379138020251     
  0.485374967061451       0.485370796102651       0.485366625143851     
  0.485362454185052       0.485358283226252       0.485354112267451     
  0.485349941308651       0.485345770349852       0.493543931891723     
  0.493539760932923       0.493535589974122       0.493531419015323     
  0.493527248056523       0.493523077097723       0.493518906138923     
  0.493514735180123       0.493510564221322       0.493506393262522     
  0.493502222303722       0.493498051344923       0.493493880386123     
  0.493489709427322       0.493485538468523       0.493481367509722     
  0.493477196550922       0.493473025592122       0.493468854633322     
  0.493464683674522       0.493460512715722       0.493456341756923     
  0.493452170798122       0.493447999839322       0.493443828880523     
  0.493439657921723       0.498456331591211       0.498452160632410     
  0.498447989673611       0.498443818714810       0.498439647756010     
  0.498435476797211       0.498431305838410       0.498427134879610     
  0.498422963920810       0.498418792962010       0.498414622003211     
  0.498410451044410       0.498406280085609       0.498402109126809     
  0.498397938168010       0.498393767209209       0.498389596250410     
  0.498385425291610       0.498381254332810       0.498377083374010     
  0.498372912415210       0.498368741456410       0.498364570497610     
  0.498360399538810       0.498356228580009       0.498352057621210     
  0.500103190897481       0.500099019938682       0.500094848979881     
  0.500090678021081       0.500086507062282       0.500082336103481     
  0.500078165144681       0.500073994185880       0.500069823227080     
  0.500065652268280       0.500061481309480       0.500057310350682     
  0.500053139391880       0.500048968433082       0.500044797474281     
  0.500040626515480       0.500036455556679       0.500032284597881     
  0.500028113639081       0.500023942680280       0.500019771721481     
  0.500015600762680       0.500011429803880       0.500007258845081     
  0.500003087886281       0.499998916927480     
  4.271993510911180E-002  4.100648530495690E-002  3.929303550080206E-002
  3.757958569664729E-002  3.586613589249227E-002  3.415268608833739E-002
  3.243923628418241E-002  3.072578648002771E-002  2.901233667587283E-002
  2.729888687171800E-002  2.558543706756310E-002  2.387198726340826E-002
  2.215853745925340E-002  2.044508765509843E-002  1.873163785094364E-002
  1.701818804678877E-002  1.530473824263377E-002  1.359128843847898E-002
  1.187783863432412E-002  1.016438883016928E-002  8.450939026014409E-003
  6.737489221859528E-003  5.024039417704675E-003  3.310589613549729E-003
  1.597139809394869E-003 -1.163099947599252E-004  4.271592624798305E-002
  4.100247644382819E-002  3.928902663967324E-002  3.757557683551852E-002
  3.586212703136350E-002  3.414867722720870E-002  3.243522742305392E-002
  3.072177761889894E-002  2.900832781474417E-002  2.729487801058926E-002
  2.558142820643439E-002  2.386797840227946E-002  2.215452859812453E-002
  2.044107879396970E-002  1.872762898981485E-002  1.701417918565989E-002
  1.530072938150523E-002  1.358727957735031E-002  1.187382977319553E-002
  1.016037996904063E-002  8.446930164885555E-003  6.733480360730832E-003
  5.020030556575815E-003  3.306580752421013E-003  1.593130948266314E-003
 -1.203188558887335E-004  4.270396825732226E-002  4.099051845316739E-002
  3.927706864901243E-002  3.756361884485759E-002  3.585016904070266E-002
  3.413671923654803E-002  3.242326943239317E-002  3.070981962823824E-002
  2.899636982408326E-002  2.728292001992848E-002  2.556947021577350E-002
  2.385602041161864E-002  2.214257060746383E-002  2.042912080330906E-002
  1.871567099915399E-002  1.700222119499917E-002  1.528877139084432E-002
  1.357532158668938E-002  1.186187178253460E-002  1.014842197837982E-002
  8.434972174225027E-003  6.721522370069961E-003  5.008072565915044E-003
  3.294622761760160E-003  1.581172957605486E-003 -1.322768465495927E-004
  4.268426574166491E-002  4.097081593750992E-002  3.925736613335518E-002
  3.754391632920022E-002  3.583046652504528E-002  3.411701672089064E-002
  3.240356691673568E-002  3.069011711258074E-002  2.897666730842602E-002
  2.726321750427114E-002  2.554976770011620E-002  2.383631789596131E-002
  2.212286809180647E-002  2.040941828765168E-002  1.869596848349669E-002
  1.698251867934194E-002  1.526906887518698E-002  1.355561907103214E-002
  1.184216926687721E-002  1.012871946272233E-002  8.415269658567703E-003
  6.701819854412642E-003  4.988370050257815E-003  3.274920246102911E-003
  1.561470441948083E-003 -1.519793622067651E-004  4.265715581651667E-002
  4.094370601236186E-002  3.923025620820686E-002  3.751680640405211E-002
  3.580335659989724E-002  3.408990679574225E-002  3.237645699158741E-002
  3.066300718743251E-002  2.894955738327759E-002  2.723610757912276E-002
  2.552265777496798E-002  2.380920797081293E-002  2.209575816665820E-002
  2.038230836250321E-002  1.866885855834814E-002  1.695540875419355E-002
  1.524195895003860E-002  1.352850914588384E-002  1.181505934172911E-002
  1.010160953757398E-002  8.388159733419148E-003  6.674709929264500E-003
  4.961260125109584E-003  3.247810320954643E-003  1.534360516799670E-003
 -1.790892873552319E-004  4.262310234021272E-002  4.090965253605780E-002
  3.919620273190300E-002  3.748275292774816E-002  3.576930312359337E-002
  3.405585331943848E-002  3.234240351528360E-002  3.062895371112868E-002
  2.891550390697408E-002  2.720205410281897E-002  2.548860429866395E-002
  2.377515449450928E-002  2.206170469035443E-002  2.034825488619948E-002
  1.863480508204469E-002  1.692135527788963E-002  1.520790547373486E-002
  1.349445566958005E-002  1.178100586542501E-002  1.006755606127040E-002
  8.354106257115284E-003  6.640656452960505E-003  4.927206648805648E-003
  3.213756844650846E-003  1.500307040495943E-003 -2.131427636590909E-004
  4.258268797717440E-002  4.086923817301952E-002  3.915578836886469E-002
  3.744233856470981E-002  3.572888876055513E-002  3.401543895640022E-002
  3.230198915224528E-002  3.058853934809034E-002  2.887508954393547E-002
  2.716163973978077E-002  2.544818993562555E-002  2.373474013147091E-002
  2.202129032731622E-002  2.030784052316122E-002  1.859439071900618E-002
  1.688094091485133E-002  1.516749111069662E-002  1.345404130654151E-002
  1.174059150238686E-002  1.002714169823192E-002  8.313691894076786E-003
  6.600242089922174E-003  4.886792285767370E-003  3.173342481612514E-003
  1.459892677457637E-003 -2.535571266971631E-004  4.253660422835837E-002
  4.082315442420346E-002  3.910970462004847E-002  3.739625481589354E-002
  3.568280501173870E-002  3.396935520758369E-002  3.225590540342908E-002
  3.054245559927402E-002  2.882900579511946E-002  2.711555599096471E-002
  2.540210618680963E-002  2.368865638265498E-002  2.197520657850014E-002
  2.026175677434500E-002  1.854830697019021E-002  1.683485716603540E-002
  1.512140736188039E-002  1.340795755772538E-002  1.169450775357061E-002
  9.981057949415815E-003  8.267608145260983E-003  6.554158341105898E-003
  4.840708536951187E-003  3.127258732796221E-003  1.413808928641415E-003
 -2.996408755135623E-004  4.248563959948345E-002  4.077218979532837E-002
  3.905873999117340E-002  3.734529018701856E-002  3.563184038286372E-002
  3.391839057870832E-002  3.220494077455407E-002  3.049149097039896E-002
  2.877804116624452E-002  2.706459136208950E-002  2.535114155793449E-002
  2.363769175377976E-002  2.192424194962489E-002  2.021079214546972E-002
  1.849734234131512E-002  1.678389253716015E-002  1.507044273300541E-002
  1.335699292885032E-002  1.164354312469560E-002  9.930093320540583E-003
  8.216643516385909E-003  6.503193712231129E-003  4.789743908076199E-003
  3.076294103921179E-003  1.362844299766479E-003 -3.506055043885788E-004
  4.243066610947944E-002  4.071721630532411E-002  3.900376650116977E-002
  3.729031669701474E-002  3.557686689286004E-002  3.386341708870530E-002
  3.214996728454986E-002  3.043651748039547E-002  2.872306767624047E-002
  2.700961787208566E-002  2.529616806793089E-002  2.358271826377539E-002
  2.186926845962107E-002  2.015581865546599E-002  1.844236885131155E-002
  1.672891904715627E-002  1.501546924300150E-002  1.330201943884646E-002
  1.158856963469177E-002  9.875119830536632E-003  8.161670026382102E-003
  6.448220222227128E-003  4.734770418072360E-003  3.021320613917312E-003
  1.307870809762625E-003 -4.055789943924876E-004  4.237262437000255E-002
  4.065917456584742E-002  3.894572476169268E-002  3.723227495753782E-002
  3.551882515338290E-002  3.380537534922823E-002  3.209192554507348E-002
  3.037847574091836E-002  2.866502593676342E-002  2.695157613260880E-002
  2.523812632845378E-002  2.352467652429885E-002  2.181122672014412E-002
  2.009777691598913E-002  1.838432711183425E-002  1.667087730767925E-002
  1.495742750352437E-002  1.324397769936979E-002  1.153052789521426E-002
  9.817078091059882E-003  8.103628286904996E-003  6.390178482750232E-003
  4.676728678595351E-003  2.963278874440392E-003  1.249829070285642E-003
 -4.636207338694003E-004  4.231250749130658E-002  4.059905768715228E-002
  3.888560788299700E-002  3.717215807884239E-002  3.545870827468746E-002
  3.374525847053263E-002  3.203180866637755E-002  3.031835886222264E-002
  2.860490905806797E-002  2.689145925391269E-002  2.517800944975804E-002
  2.346455964560289E-002  2.175110984144840E-002  2.003766003729384E-002
  1.832421023313842E-002  1.661076042898358E-002  1.489731062482893E-002
  1.318386082067411E-002  1.147041101651907E-002  9.756961212364423E-003
  8.043511408209575E-003  6.330061604054412E-003  4.616611799899472E-003
  2.903161995744862E-003  1.189712191590007E-003 -5.237376125646875E-004
  4.225134408985481E-002  4.053789428569987E-002  3.882444448154496E-002
  3.711099467739002E-002  3.539754487323533E-002  3.368409506908036E-002
  3.197064526492580E-002  3.025719546077078E-002  2.854374565661558E-002
  2.683029585246041E-002  2.511684604830569E-002  2.340339624415114E-002
  2.168994643999640E-002  1.997649663584130E-002  1.826304683168642E-002
  1.654959702753187E-002  1.483614722337705E-002  1.312269741922198E-002
  1.140924761506679E-002  9.695797810912137E-003  7.982348006757302E-003
  6.268898202601851E-003  4.555448398447368E-003  2.841998594293077E-003
  1.128548790137523E-003 -5.849010140165302E-004  4.219018068840224E-002
  4.047673088424764E-002  3.876328108009296E-002  3.704983127593740E-002
  3.533638147178297E-002  3.362293166762852E-002  3.190948186347359E-002
  3.019603205931872E-002  2.848258225516340E-002  2.676913245100864E-002
  2.505568264685394E-002  2.334223284269909E-002  2.162878303854444E-002
  1.991533323438921E-002  1.820188343023437E-002  1.648843362607944E-002
  1.477498382192444E-002  1.306153401776995E-002  1.134808421361514E-002
  9.634634409460205E-003  7.921184605305416E-003  6.207734801149833E-003
  4.494284996995493E-003  2.780835192840090E-003  1.067385388685503E-003
 -6.460644154691002E-004  4.213006380970678E-002  4.041661400555201E-002
  3.870316420139723E-002  3.698971439724194E-002  3.527626459308757E-002
  3.356281478893253E-002  3.184936498477769E-002  3.013591518062291E-002
  2.842246537646797E-002  2.670901557231327E-002  2.499556576815795E-002
  2.328211596400324E-002  2.156866615984826E-002  1.985521635569397E-002
  1.814176655153843E-002  1.642831674738385E-002  1.471486694322906E-002
  1.300141713907394E-002  1.128796733491890E-002  9.574517530764434E-003
  7.861067726609508E-003  6.147617922454496E-003  4.434168118299871E-003
  2.720718314145218E-003  1.007268509990164E-003 -7.061812941645868E-004
  4.207202207022984E-002  4.035857226607522E-002  3.864512246192046E-002
  3.693167265776540E-002  3.521822285360995E-002  3.350477304945561E-002
  3.179132324530065E-002  3.007787344114594E-002  2.836442363699105E-002
  2.665097383283581E-002  2.493752402868116E-002  2.322407422452581E-002
  2.151062442037127E-002  1.979717461621617E-002  1.808372481206175E-002
  1.637027500790682E-002  1.465682520375197E-002  1.294337539959752E-002
  1.122992559544203E-002  9.516475791287827E-003  7.803025987132371E-003
  6.089576182977478E-003  4.376126378822618E-003  2.662676574667920E-003
  9.492267705130121E-004 -7.642230336423208E-004  4.201704858022588E-002
  4.030359877607100E-002  3.859014897191711E-002  3.687669916776134E-002
  3.516324936360671E-002  3.344979955945192E-002  3.173634975529678E-002
  3.002289995114125E-002  2.830945014698708E-002  2.659600034283217E-002
  2.488255053867722E-002  2.316910073452274E-002  2.145565093036796E-002
  1.974220112621258E-002  1.802875132205810E-002  1.631530151790350E-002
  1.460185171374854E-002  1.288840190959353E-002  1.117495210543907E-002
  9.461502301283510E-003  7.748052497129060E-003  6.034602692974233E-003
  4.321152888818950E-003  2.607703084663824E-003  8.942532805089895E-004
 -8.191965236460973E-004  4.196608395135110E-002  4.025263414719635E-002
  3.853918434304163E-002  3.682573453888598E-002  3.511228473473132E-002
  3.339883493057708E-002  3.168538512642156E-002  2.997193532226717E-002
  2.825848551811205E-002  2.654503571395788E-002  2.483158590980234E-002
  2.311813610564725E-002  2.140468630149273E-002  1.969123649733746E-002
  1.797778669318228E-002  1.626433688902817E-002  1.455088708487315E-002
  1.283743728071786E-002  1.112398747656385E-002  9.410537672408308E-003
  7.697087868253743E-003  5.983638064097875E-003  4.270188259943858E-003
  2.556738455788850E-003  8.432886516342438E-004 -8.701611525209987E-004
  4.192000020253471E-002  4.020655039838000E-002  3.849310059422558E-002
  3.677965079007066E-002  3.506620098591511E-002  3.335275118176037E-002
  3.163930137760612E-002  2.992585157345052E-002  2.821240176929597E-002
  2.649895196514096E-002  2.478550216098644E-002  2.307205235683107E-002
  2.135860255267666E-002  1.964515274852128E-002  1.793170294436672E-002
  1.621825314021164E-002  1.450480333605685E-002  1.279135353190200E-002
  1.107790372774685E-002  9.364453923592283E-003  7.651004119437292E-003
  5.937554315282088E-003  4.224104511128265E-003  2.510654706973123E-003
  7.972049028177007E-004 -9.162449013367744E-004  4.187958583949609E-002
  4.016613603534218E-002  3.845268623118664E-002  3.673923642703224E-002
  3.502578662287686E-002  3.331233681872204E-002  3.159888701456703E-002
  2.988543721041220E-002  2.817198740625726E-002  2.645853760210263E-002
  2.474508779794802E-002  2.303163799379299E-002  2.131818818963791E-002
  1.960473838548268E-002  1.789128858132864E-002  1.617783877717344E-002
  1.446438897301777E-002  1.275093916886367E-002  1.103748936470854E-002
  9.324039560554269E-003  7.610589756399133E-003  5.897139952244620E-003
  4.183690148089456E-003  2.470240343934955E-003  7.567905397796299E-004
 -9.566592643755567E-004  4.184553236319249E-002  4.013208255903802E-002
  3.841863275488330E-002  3.670518295072717E-002  3.499173314657283E-002
  3.327828334241814E-002  3.156483353826413E-002  2.985138373410828E-002
  2.813793392995417E-002  2.642448412579892E-002  2.471103432164434E-002
  2.299758451748946E-002  2.128413471333431E-002  1.957068490917940E-002
  1.785723510502427E-002  1.614378530086989E-002  1.443033549671473E-002
  1.271688569256015E-002  1.100343588840521E-002  9.289986084249306E-003
  7.576536280095326E-003  5.863086475940133E-003  4.149636671785560E-003
  2.436186867630557E-003  7.227370634761950E-004 -9.907127406791245E-004
  4.181842243804418E-002  4.010497263388984E-002  3.839152282973452E-002
  3.667807302558013E-002  3.496462322142502E-002  3.325117341726997E-002
  3.153772361311471E-002  2.982427380895968E-002  2.811082400480492E-002
  2.639737420065036E-002  2.468392439649569E-002  2.297047459234104E-002
  2.125702478818565E-002  1.954357498403038E-002  1.783012517987606E-002
  1.611667537572160E-002  1.440322557156668E-002  1.268977576741176E-002
  1.097632596325682E-002  9.262876159102039E-003  7.549426354947024E-003
  5.835976550791704E-003  4.122526746637509E-003  2.409076942482718E-003
  6.956271383274610E-004 -1.017822665826888E-003  4.179871992238678E-002
  4.008527011823209E-002  3.837182031407785E-002  3.665837050992234E-002