 Title = "Wing and Wake"
 VARIABLES = "X" "Y" "Z" "GAM"
 Zone I=   26 J=   25 K=1  T="Blade"
 DATAPACKING=BLOCK
 VARLOCATION=([4]=CELLCENTERED)
 -7.102522122779127E-002 -6.936894356443393E-002 -6.771266590107659E-002
 -6.605638823771942E-002 -6.440011057436207E-002 -6.274383291100473E-002
 -6.108755524764746E-002 -5.943127758429015E-002 -5.777499992093293E-002
 -5.611872225757555E-002 -5.446244459421831E-002 -5.280616693086096E-002
 -5.114988926750366E-002 -4.949361160414635E-002 -4.783733394078908E-002
 -4.618105627743176E-002 -4.452477861407445E-002 -4.286850095071717E-002
 -4.121222328735989E-002 -3.955594562400257E-002 -3.789966796064531E-002
 -3.624339029728800E-002 -3.458711263393068E-002 -3.293083497057334E-002
 -3.127455730721609E-002 -2.961827964385880E-002 -7.144710647226202E-002
 -6.979082880890466E-002 -6.813455114554740E-002 -6.647827348219019E-002
 -6.482199581883283E-002 -6.316571815547556E-002 -6.150944049211827E-002
 -5.985316282876090E-002 -5.819688516540363E-002 -5.654060750204631E-002
 -5.488432983868906E-002 -5.322805217533171E-002 -5.157177451197446E-002
 -4.991549684861709E-002 -4.825921918525983E-002 -4.660294152190252E-002
 -4.494666385854521E-002 -4.329038619518792E-002 -4.163410853183068E-002
 -3.997783086847335E-002 -3.832155320511604E-002 -3.666527554175876E-002
 -3.500899787840146E-002 -3.335272021504420E-002 -3.169644255168685E-002
 -3.004016488832953E-002 -7.270554363217270E-002 -7.104926596881546E-002
 -6.939298830545811E-002 -6.773671064210082E-002 -6.608043297874350E-002
 -6.442415531538619E-002 -6.276787765202892E-002 -6.111159998867170E-002
 -5.945532232531427E-002 -5.779904466195705E-002 -5.614276699859978E-002
 -5.448648933524242E-002 -5.283021167188513E-002 -5.117393400852788E-002
 -4.951765634517053E-002 -4.786137868181325E-002 -4.620510101845592E-002
 -4.454882335509863E-002 -4.289254569174130E-002 -4.123626802838404E-002
 -3.957999036502678E-002 -3.792371270166939E-002 -3.626743503831210E-002
 -3.461115737495486E-002 -3.295487971159752E-002 -3.129860204824023E-002
 -7.477900049881261E-002 -7.312272283545530E-002 -7.146644517209802E-002
 -6.981016750874072E-002 -6.815388984538336E-002 -6.649761218202617E-002
 -6.484133451866882E-002 -6.318505685531146E-002 -6.152877919195426E-002
 -5.987250152859694E-002 -5.821622386523962E-002 -5.655994620188231E-002
 -5.490366853852496E-002 -5.324739087516777E-002 -5.159111321181041E-002
 -4.993483554845311E-002 -4.827855788509589E-002 -4.662228022173854E-002
 -4.496600255838117E-002 -4.330972489502390E-002 -4.165344723166664E-002
 -3.999716956830932E-002 -3.834089190495205E-002 -3.668461424159476E-002
 -3.502833657823747E-002 -3.337205891488013E-002 -7.763199965032257E-002
 -7.597572198696535E-002 -7.431944432360794E-002 -7.266316666025073E-002
 -7.100688899689350E-002 -6.935061133353612E-002 -6.769433367017884E-002
 -6.603805600682150E-002 -6.438177834346417E-002 -6.272550068010692E-002
 -6.106922301674960E-002 -5.941294535339235E-002 -5.775666769003501E-002
 -5.610039002667768E-002 -5.444411236332031E-002 -5.278783469996314E-002
 -5.113155703660583E-002 -4.947527937324857E-002 -4.781900170989124E-002
 -4.616272404653392E-002 -4.450644638317663E-002 -4.285016871981935E-002
 -4.119389105646196E-002 -3.953761339310473E-002 -3.788133572974743E-002
 -3.622505806639013E-002 -8.121572548021955E-002 -7.955944781686228E-002
 -7.790317015350502E-002 -7.624689249014761E-002 -7.459061482679029E-002
 -7.293433716343312E-002 -7.127805950007574E-002 -6.962178183671844E-002
 -6.796550417336124E-002 -6.630922651000384E-002 -6.465294884664656E-002
 -6.299667118328926E-002 -6.134039351993199E-002 -5.968411585657465E-002
 -5.802783819321739E-002 -5.637156052986011E-002 -5.471528286650276E-002
 -5.305900520314544E-002 -5.140272753978813E-002 -4.974644987643090E-002
 -4.809017221307361E-002 -4.643389454971623E-002 -4.477761688635892E-002
 -4.312133922300167E-002 -4.146506155964441E-002 -3.980878389628714E-002
 -8.546885944595749E-002 -8.381258178260011E-002 -8.215630411924281E-002
 -8.050002645588554E-002 -7.884374879252831E-002 -7.718747112917090E-002
 -7.553119346581368E-002 -7.387491580245638E-002 -7.221863813909914E-002
 -7.056236047574178E-002 -6.890608281238438E-002 -6.724980514902708E-002
 -6.559352748566986E-002 -6.393724982231259E-002 -6.228097215895522E-002
 -6.062469449559796E-002 -5.896841683224074E-002 -5.731213916888333E-002
 -5.565586150552602E-002 -5.399958384216878E-002 -5.234330617881148E-002
 -5.068702851545417E-002 -4.903075085209690E-002 -4.737447318873959E-002
 -4.571819552538230E-002 -4.406191786202500E-002 -9.031862924619104E-002
 -8.866235158283373E-002 -8.700607391947644E-002 -8.534979625611908E-002
 -8.369351859276183E-002 -8.203724092940451E-002 -8.038096326604717E-002
 -7.872468560268993E-002 -7.706840793933262E-002 -7.541213027597539E-002
 -7.375585261261811E-002 -7.209957494926071E-002 -7.044329728590344E-002
 -6.878701962254616E-002 -6.713074195918882E-002 -6.547446429583152E-002
 -6.381818663247428E-002 -6.216190896911694E-002 -6.050563130575951E-002
 -5.884935364240234E-002 -5.719307597904506E-002 -5.553679831568774E-002
 -5.388052065233045E-002 -5.222424298897314E-002 -5.056796532561586E-002
 -4.891168766225852E-002 -9.568205397502799E-002 -9.402577631167064E-002
 -9.236949864831336E-002 -9.071322098495611E-002 -8.905694332159872E-002
 -8.740066565824144E-002 -8.574438799488425E-002 -8.408811033152687E-002
 -8.243183266816967E-002 -8.077555500481237E-002 -7.911927734145500E-002
 -7.746299967809769E-002 -7.580672201474033E-002 -7.415044435138302E-002
 -7.249416668802575E-002 -7.083788902466849E-002 -6.918161136131122E-002
 -6.752533369795387E-002 -6.586905603459667E-002 -6.421277837123926E-002
 -6.255650070788191E-002 -6.090022304452471E-002 -5.924394538116741E-002
 -5.758766771781008E-002 -5.593139005445288E-002 -5.427511239109553E-002
 -0.101467363948336      -9.981108628497833E-002 -9.815480862162108E-002
 -9.649853095826372E-002 -9.484225329490654E-002 -9.318597563154926E-002
 -9.152969796819195E-002 -8.987342030483465E-002 -8.821714264147734E-002
 -8.656086497812003E-002 -8.490458731476262E-002 -8.324830965140535E-002
 -8.159203198804824E-002 -7.993575432469081E-002 -7.827947666133352E-002
 -7.662319899797622E-002 -7.496692133461905E-002 -7.331064367126161E-002
 -7.165436600790434E-002 -6.999808834454696E-002 -6.834181068118972E-002
 -6.668553301783244E-002 -6.502925535447517E-002 -6.337297769111779E-002
 -6.171670002776052E-002 -6.006042236440311E-002 -0.107575570908480     
 -0.105919293245123      -0.104263015581765      -0.102606737918408     
 -0.100950460255051      -9.929418259169348E-002 -9.763790492833621E-002
 -9.598162726497891E-002 -9.432534960162146E-002 -9.266907193826432E-002
 -9.101279427490690E-002 -8.935651661154974E-002 -8.770023894819245E-002
 -8.604396128483512E-002 -8.438768362147778E-002 -8.273140595812042E-002
 -8.107512829476311E-002 -7.941885063140597E-002 -7.776257296804857E-002
 -7.610629530469128E-002 -7.445001764133402E-002 -7.279373997797665E-002
 -7.113746231461941E-002 -6.948118465126205E-002 -6.782490698790462E-002
 -6.616862932454751E-002 -0.113902161740858      -0.112245884077500     
 -0.110589606414143      -0.108933328750786      -0.107277051087429     
 -0.105620773424071      -0.103964495760714      -0.102308218097357     
 -0.100651940433999      -9.899566277064201E-002 -9.733938510728482E-002
 -9.568310744392744E-002 -9.402682978057018E-002 -9.237055211721291E-002
 -9.071427445385549E-002 -8.905799679049817E-002 -8.740171912714098E-002
 -8.574544146378373E-002 -8.408916380042636E-002 -8.243288613706913E-002
 -8.077660847371181E-002 -7.912033081035444E-002 -7.746405314699709E-002
 -7.580777548363989E-002 -7.415149782028238E-002 -7.249522015692532E-002
 -0.120338886722265      -0.118682609058907      -0.117026331395550     
 -0.115370053732193      -0.113713776068835      -0.112057498405478     
 -0.110401220742121      -0.108744943078764      -0.107088665415406     
 -0.105432387752049      -0.103776110088692      -0.102119832425334     
 -0.100463554761977      -9.880727709861989E-002 -9.715099943526262E-002
 -9.549472177190522E-002 -9.383844410854796E-002 -9.218216644519067E-002
 -9.052588878183319E-002 -8.886961111847615E-002 -8.721333345511881E-002
 -8.555705579176144E-002 -8.390077812840419E-002 -8.224450046504692E-002
 -8.058822280168948E-002 -7.893194513833222E-002 -0.126775611703672     
 -0.125119334040314      -0.123463056376957      -0.121806778713600     
 -0.120150501050242      -0.118494223386885      -0.116837945723528     
 -0.115181668060171      -0.113525390396813      -0.111869112733456     
 -0.110212835070099      -0.108556557406741      -0.106900279743384     
 -0.105244002080027      -0.103587724416670      -0.101931446753312     
 -0.100275169089955      -9.861889142659763E-002 -9.696261376324035E-002
 -9.530633609988304E-002 -9.365005843652574E-002 -9.199378077316833E-002
 -9.033750310981120E-002 -8.868122544645368E-002 -8.702494778309647E-002
 -8.536867011973910E-002 -0.133102202536049      -0.131445924872692     
 -0.129789647209335      -0.128133369545978      -0.126477091882620     
 -0.124820814219263      -0.123164536555906      -0.121508258892549     
 -0.119851981229191      -0.118195703565833      -0.116539425902476     
 -0.114883148239119      -0.113226870575762      -0.111570592912405     
 -0.109914315249047      -0.108258037585690      -0.106601759922333     
 -0.104945482258975      -0.103289204595618      -0.101632926932261     
 -9.997664926890346E-002 -9.832037160554628E-002 -9.666409394218881E-002
 -9.500781627883147E-002 -9.335153861547429E-002 -9.169526095211701E-002
 -0.139210409496194      -0.137554131832836      -0.135897854169479     
 -0.134241576506122      -0.132585298842764      -0.130929021179407     
 -0.129272743516050      -0.127616465852693      -0.125960188189335     
 -0.124303910525978      -0.122647632862621      -0.120991355199263     
 -0.119335077535906      -0.117678799872549      -0.116022522209192     
 -0.114366244545834      -0.112709966882477      -0.111053689219120     
 -0.109397411555762      -0.107741133892405      -0.106084856229048     
 -0.104428578565690      -0.102772300902333      -0.101116023238976     
 -9.945974557561835E-002 -9.780346791226101E-002 -0.144995719469501     
 -0.143339441806144      -0.141683164142787      -0.140026886479429     
 -0.138370608816072      -0.136714331152715      -0.135058053489358     
 -0.133401775826000      -0.131745498162643      -0.130089220499286     
 -0.128432942835928      -0.126776665172571      -0.125120387509214     
 -0.123464109845857      -0.121807832182499      -0.120151554519142     
 -0.118495276855785      -0.116838999192427      -0.115182721529070     
 -0.113526443865713      -0.111870166202355      -0.110213888538998     
 -0.108557610875641      -0.106901333212284      -0.105245055548926     
 -0.103588777885569      -0.150359144198338      -0.148702866534981     
 -0.147046588871624      -0.145390311208267      -0.143734033544909     
 -0.142077755881552      -0.140421478218194      -0.138765200554837     
 -0.137108922891480      -0.135452645228123      -0.133796367564766     
 -0.132140089901408      -0.130483812238051      -0.128827534574693     
 -0.127171256911336      -0.125514979247979      -0.123858701584622     
 -0.122202423921264      -0.120546146257907      -0.118889868594550     
 -0.117233590931193      -0.115577313267835      -0.113921035604478     
 -0.112264757941120      -0.110608480277763      -0.108952202614406     
 -0.155208913998572      -0.153552636335215      -0.151896358671857     
 -0.150240081008500      -0.148583803345143      -0.146927525681785     
 -0.145271248018428      -0.143614970355071      -0.141958692691714     
 -0.140302415028356      -0.138646137364999      -0.136989859701642     
 -0.135333582038284      -0.133677304374927      -0.132021026711569     
 -0.130364749048213      -0.128708471384855      -0.127052193721498     
 -0.125395916058140      -0.123739638394783      -0.122083360731426     
 -0.120427083068069      -0.118770805404711      -0.117114527741354     
 -0.115458250077997      -0.113801972414639      -0.159462047964310     
 -0.157805770300953      -0.156149492637595      -0.154493214974238     
 -0.152836937310881      -0.151180659647523      -0.149524381984166     
 -0.147868104320809      -0.146211826657451      -0.144555548994094     
 -0.142899271330737      -0.141242993667379      -0.139586716004022     
 -0.137930438340665      -0.136274160677308      -0.134617883013950     
 -0.132961605350593      -0.131305327687236      -0.129649050023878     
 -0.127992772360521      -0.126336494697164      -0.124680217033807     
 -0.123023939370449      -0.121367661707092      -0.119711384043735     
 -0.118055106380377      -0.163045773794207      -0.161389496130849     
 -0.159733218467492      -0.158076940804135      -0.156420663140778     
 -0.154764385477420      -0.153108107814063      -0.151451830150706     
 -0.149795552487348      -0.148139274823991      -0.146482997160634     
 -0.144826719497276      -0.143170441833919      -0.141514164170562     
 -0.139857886507205      -0.138201608843847      -0.136545331180490     
 -0.134889053517133      -0.133232775853775      -0.131576498190418     
 -0.129920220527061      -0.128263942863703      -0.126607665200346     
 -0.124951387536989      -0.123295109873632      -0.121638832210274     
 -0.165898772945717      -0.164242495282360      -0.162586217619002     
 -0.160929939955645      -0.159273662292288      -0.157617384628930     
 -0.155961106965573      -0.154304829302216      -0.152648551638858     
 -0.150992273975501      -0.149335996312144      -0.147679718648786     
 -0.146023440985429      -0.144367163322072      -0.142710885658715     
 -0.141054607995357      -0.139398330332000      -0.137742052668643     
 -0.136085775005285      -0.134429497341928      -0.132773219678571     
 -0.131116942015213      -0.129460664351856      -0.127804386688499     
 -0.126148109025142      -0.124491831361784      -0.167972229812357     
 -0.166315952148999      -0.164659674485642      -0.163003396822285     
 -0.161347119158927      -0.159690841495570      -0.158034563832213     
 -0.156378286168856      -0.154722008505498      -0.153065730842141     
 -0.151409453178784      -0.149753175515426      -0.148096897852069     
 -0.146440620188712      -0.144784342525355      -0.143128064861997     
 -0.141471787198640      -0.139815509535283      -0.138159231871925     
 -0.136502954208568      -0.134846676545211      -0.133190398881853     
 -0.131534121218496      -0.129877843555139      -0.128221565891781     
 -0.126565288228424      -0.169230666972267      -0.167574389308910     
 -0.165918111645553      -0.164261833982195      -0.162605556318838     
 -0.160949278655481      -0.159293000992123      -0.157636723328766     
 -0.155980445665409      -0.154324168002052      -0.152667890338695     
 -0.151011612675337      -0.149355335011980      -0.147699057348623     
 -0.146042779685265      -0.144386502021908      -0.142730224358551     
 -0.141073946695193      -0.139417669031836      -0.137761391368479     
 -0.136105113705121      -0.134448836041764      -0.132792558378407     
 -0.131136280715050      -0.129480003051692      -0.127823725388335     
 -0.169652552216738      -0.167996274553381      -0.166339996890023     
 -0.164683719226666      -0.163027441563309      -0.161371163899952     
 -0.159714886236594      -0.158058608573237      -0.156402330909880     
 -0.154746053246522      -0.153089775583165      -0.151433497919808     
 -0.149777220256450      -0.148120942593093      -0.146464664929736     
 -0.144808387266379      -0.143152109603021      -0.141495831939664     
 -0.139839554276307      -0.138183276612950      -0.136526998949592     
 -0.134870721286235      -0.133214443622877      -0.131558165959520     
 -0.129901888296163      -0.128245610632806     
  0.100146981729572       0.100585925837768       0.101024869945963     
  0.101463814054158       0.101902758162354       0.102341702270549     
  0.102780646378744       0.103219590486939       0.103658534595135     
  0.104097478703330       0.104536422811525       0.104975366919721     
  0.105414311027916       0.105853255136111       0.106292199244306     
  0.106731143352502       0.107170087460697       0.107609031568892     
  0.108047975677087       0.108486919785283       0.108925863893478     
  0.109364808001673       0.109803752109869       0.110242696218064     
  0.110681640326259       0.111120584434454       0.101738890799249     
  0.102177834907444       0.102616779015639       0.103055723123834     
  0.103494667232030       0.103933611340225       0.104372555448420     
  0.104811499556616       0.105250443664811       0.105689387773006     
  0.106128331881201       0.106567275989397       0.107006220097592     
  0.107445164205787       0.107884108313982       0.108323052422178     
  0.108761996530373       0.109200940638568       0.109639884746764     
  0.110078828854959       0.110517772963154       0.110956717071349     
  0.111395661179545       0.111834605287740       0.112273549395935     
  0.112712493504131       0.106487380002734       0.106926324110930     
  0.107365268219125       0.107804212327320       0.108243156435515     
  0.108682100543710       0.109121044651906       0.109559988760101     
  0.109998932868296       0.110437876976492       0.110876821084687     
  0.111315765192882       0.111754709301077       0.112193653409273     
  0.112632597517468       0.113071541625663       0.113510485733859     
  0.113949429842054       0.114388373950249       0.114827318058444     
  0.115266262166640       0.115705206274835       0.116144150383030     
  0.116583094491226       0.117022038599421       0.117460982707616     
  0.114311201373228       0.114750145481423       0.115189089589618     
  0.115628033697814       0.116066977806009       0.116505921914204     
  0.116944866022399       0.117383810130595       0.117822754238790     
  0.118261698346985       0.118700642455181       0.119139586563376     
  0.119578530671571       0.120017474779766       0.120456418887962     
  0.120895362996157       0.121334307104352       0.121773251212548     
  0.122212195320743       0.122651139428938       0.123090083537133     
  0.123529027645328       0.123967971753524       0.124406915861719     
  0.124845859969915       0.125284804078110       0.125076487157907     
  0.125515431266102       0.125954375374298       0.126393319482493     
  0.126832263590688       0.127271207698883       0.127710151807079     
  0.128149095915274       0.128588040023469       0.129026984131665     
  0.129465928239860       0.129904872348055       0.130343816456250     
  0.130782760564446       0.131221704672641       0.131660648780836     
  0.132099592889032       0.132538536997227       0.132977481105422     
  0.133416425213617       0.133855369321813       0.134294313430008     
  0.134733257538203       0.135172201646398       0.135611145754594     
  0.136050089862789       0.138599040332295       0.139037984440490     
  0.139476928548686       0.139915872656881       0.140354816765076     
  0.140793760873271       0.141232704981467       0.141671649089662     
  0.142110593197857       0.142549537306053       0.142988481414248     
  0.143427425522443       0.143866369630638       0.144305313738834     
  0.144744257847029       0.145183201955224       0.145622146063419     
  0.146061090171615       0.146500034279810       0.146938978388005     
  0.147377922496201       0.147816866604396       0.148255810712591     
  0.148694754820786       0.149133698928982       0.149572643037177     
  0.154647486262418       0.155086430370613       0.155525374478809     
  0.155964318587004       0.156403262695199       0.156842206803394     
  0.157281150911590       0.157720095019785       0.158159039127980     
  0.158597983236175       0.159036927344371       0.159475871452566     
  0.159914815560761       0.160353759668957       0.160792703777152     
  0.161231647885347       0.161670591993542       0.162109536101738     
  0.162548480209933       0.162987424318128       0.163426368426323     
  0.163865312534519       0.164304256642714       0.164743200750909     
  0.165182144859105       0.165621088967300       0.172947231588942     
  0.173386175697137       0.173825119805332       0.174264063913528     
  0.174703008021723       0.175141952129918       0.175580896238113     
  0.176019840346309       0.176458784454504       0.176897728562699     
  0.177336672670894       0.177775616779090       0.178214560887285     
  0.178653504995480       0.179092449103676       0.179531393211871     
  0.179970337320066       0.180409281428262       0.180848225536457     
  0.181287169644652       0.181726113752847       0.182165057861043     
  0.182604001969238       0.183042946077433       0.183481890185628     
  0.183920834293824       0.193185162595681       0.193624106703877     
  0.194063050812072       0.194501994920267       0.194940939028462     
  0.195379883136658       0.195818827244853       0.196257771353048     
  0.196696715461244       0.197135659569439       0.197574603677634     
  0.198013547785829       0.198452491894025       0.198891436002220     
  0.199330380110415       0.199769324218611       0.200208268326806     
  0.200647212435001       0.201086156543196       0.201525100651392     
  0.201964044759587       0.202402988867782       0.202841932975977     
  0.203280877084173       0.203719821192368       0.204158765300563     
  0.215015002672097       0.215453946780292       0.215892890888488     
  0.216331834996683       0.216770779104878       0.217209723213074     
  0.217648667321269       0.218087611429464       0.218526555537659     
  0.218965499645855       0.219404443754050       0.219843387862245     
  0.220282331970440       0.220721276078636       0.221160220186831     
  0.221599164295026       0.222038108403222       0.222477052511417     
  0.222915996619612       0.223354940727807       0.223793884836003     
  0.224232828944198       0.224671773052393       0.225110717160589     
  0.225549661268784       0.225988605376979       0.238063237202106     
  0.238502181310302       0.238941125418497       0.239380069526692     
  0.239819013634888       0.240257957743083       0.240696901851278     
  0.241135845959473       0.241574790067669       0.242013734175864     
  0.242452678284059       0.242891622392255       0.243330566500450     
  0.243769510608645       0.244208454716840       0.244647398825036     
  0.245086342933231       0.245525287041426       0.245964231149622     
  0.246403175257817       0.246842119366012       0.247281063474207     
  0.247720007582403       0.248158951690598       0.248597895798793     
  0.249036839906988       0.261935504502723       0.262374448610918     
  0.262813392719114       0.263252336827309       0.263691280935504     
  0.264130225043699       0.264569169151894       0.265008113260090     
  0.265447057368285       0.265886001476480       0.266324945584676     
  0.266763889692871       0.267202833801066       0.267641777909262     
  0.268080722017457       0.268519666125652       0.268958610233848     
  0.269397554342043       0.269836498450238       0.270275442558433     
  0.270714386666628       0.271153330774824       0.271592274883019     
  0.272031218991214       0.272470163099410       0.272909107207605     
  0.286223343461790       0.286662287569985       0.287101231678181     
  0.287540175786376       0.287979119894571       0.288418064002767     
  0.288857008110962       0.289295952219157       0.289734896327352     
  0.290173840435548       0.290612784543743       0.291051728651938     
  0.291490672760134       0.291929616868329       0.292368560976524     
  0.292807505084719       0.293246449192915       0.293685393301110     
  0.294124337409305       0.294563281517500       0.295002225625696     
  0.295441169733891       0.295880113842086       0.296319057950282     
  0.296758002058477       0.297196946166672       0.310511182420858     
  0.310950126529053       0.311389070637248       0.311828014745443     
  0.312266958853639       0.312705902961834       0.313144847070029     
  0.313583791178224       0.314022735286420       0.314461679394615     
  0.314900623502810       0.315339567611006       0.315778511719201     
  0.316217455827396       0.316656399935591       0.317095344043787     
  0.317534288151982       0.317973232260178       0.318412176368373     
  0.318851120476568       0.319290064584763       0.319729008692958     
  0.320167952801154       0.320606896909349       0.321045841017544     
  0.321484785125739       0.334383449721474       0.334822393829669     
  0.335261337937865       0.335700282046060       0.336139226154255     
  0.336578170262451       0.337017114370646       0.337456058478841     
  0.337895002587036       0.338333946695232       0.338772890803427     
  0.339211834911622       0.339650779019818       0.340089723128013     
  0.340528667236208       0.340967611344403       0.341406555452599     
  0.341845499560794       0.342284443668989       0.342723387777185     
  0.343162331885380       0.343601275993575       0.344040220101770     
  0.344479164209966       0.344918108318161       0.345357052426356     
  0.357431684251484       0.357870628359679       0.358309572467874     
  0.358748516576069       0.359187460684265       0.359626404792460     
  0.360065348900655       0.360504293008850       0.360943237117046     
  0.361382181225241       0.361821125333436       0.362260069441631     
  0.362699013549827       0.363137957658022       0.363576901766217     
  0.364015845874413       0.364454789982608       0.364893734090803     
  0.365332678198999       0.365771622307193       0.366210566415389     
  0.366649510523584       0.367088454631779       0.367527398739975     
  0.367966342848170       0.368405286956365       0.379261524327899     
  0.379700468436095       0.380139412544290       0.380578356652485     
  0.381017300760680       0.381456244868876       0.381895188977071     
  0.382334133085266       0.382773077193461       0.383212021301657     
  0.383650965409852       0.384089909518047       0.384528853626243     
  0.384967797734438       0.385406741842633       0.385845685950828     
  0.386284630059024       0.386723574167218       0.387162518275414     
  0.387601462383610       0.388040406491805       0.388479350600000     
  0.388918294708195       0.389357238816390       0.389796182924586     
  0.390235127032781       0.399499455334639       0.399938399442834     
  0.400377343551029       0.400816287659225       0.401255231767420     
  0.401694175875615       0.402133119983811       0.402572064092006     
  0.403011008200201       0.403449952308396       0.403888896416591     
  0.404327840524787       0.404766784632982       0.405205728741177     
  0.405644672849373       0.406083616957568       0.406522561065763     
  0.406961505173959       0.407400449282154       0.407839393390349     
  0.408278337498545       0.408717281606740       0.409156225714935     
  0.409595169823130       0.410034113931326       0.410473058039521     
  0.417799200661163       0.418238144769358       0.418677088877553     
  0.419116032985748       0.419554977093944       0.419993921202139     
  0.420432865310334       0.420871809418530       0.421310753526725     
  0.421749697634920       0.422188641743115       0.422627585851311     
  0.423066529959506       0.423505474067701       0.423944418175896     
  0.424383362284092       0.424822306392287       0.425261250500482     
  0.425700194608678       0.426139138716873       0.426578082825068     
  0.427017026933264       0.427455971041459       0.427894915149654     
  0.428333859257849       0.428772803366044       0.433847646591286     
  0.434286590699481       0.434725534807676       0.435164478915871     
  0.435603423024066       0.436042367132262       0.436481311240457     
  0.436920255348652       0.437359199456848       0.437798143565043     
  0.438237087673238       0.438676031781434       0.439114975889629     
  0.439553919997824       0.439992864106019       0.440431808214215     
  0.440870752322410       0.441309696430605       0.441748640538801     
  0.442187584646996       0.442626528755191       0.443065472863386     
  0.443504416971582       0.443943361079777       0.444382305187972     
  0.444821249296167       0.447370199765673       0.447809143873869     
  0.448248087982064       0.448687032090259       0.449125976198455     
  0.449564920306650       0.450003864414845       0.450442808523040     
  0.450881752631236       0.451320696739431       0.451759640847626     
  0.452198584955821       0.452637529064017       0.453076473172212     
  0.453515417280408       0.453954361388603       0.454393305496798     
  0.454832249604993       0.455271193713188       0.455710137821384     
  0.456149081929579       0.456588026037774       0.457026970145970     
  0.457465914254165       0.457904858362360       0.458343802470556     
  0.458135485550353       0.458574429658548       0.459013373766744     
  0.459452317874939       0.459891261983134       0.460330206091329     
  0.460769150199525       0.461208094307720       0.461647038415915     
  0.462085982524110       0.462524926632306       0.462963870740501     
  0.463402814848696       0.463841758956891       0.464280703065087     
  0.464719647173282       0.465158591281477       0.465597535389672     
  0.466036479497868       0.466475423606063       0.466914367714258     
  0.467353311822454       0.467792255930649       0.468231200038844     
  0.468670144147040       0.469109088255235       0.465959306920847     
  0.466398251029042       0.466837195137237       0.467276139245432     