 Title = "Wing and Wake"
 VARIABLES = "X" "Y" "Z" "GAM"
 Zone I=   26 J=   25 K=1  T="Blade"
 DATAPACKING=BLOCK
 VARLOCATION=([4]=CELLCENTERED)
  0.121045029266842       0.120184821028831       0.119324612790819     
  0.118464404552808       0.117604196314796       0.116743988076785     
  0.115883779838774       0.115023571600762       0.114163363362751     
  0.113303155124740       0.112442946886728       0.111582738648717     
  0.110722530410705       0.109862322172694       0.109002113934683     
  0.108141905696672       0.107281697458660       0.106421489220649     
  0.105561280982637       0.104701072744626       0.103840864506615     
  0.102980656268603       0.102120448030592       0.101260239792580     
  0.100400031554569       9.953982331655761E-002  0.122469318711211     
  0.121609110473200       0.120748902235188       0.119888693997177     
  0.119028485759166       0.118168277521154       0.117308069283143     
  0.116447861045132       0.115587652807120       0.114727444569109     
  0.113867236331098       0.113007028093086       0.112146819855075     
  0.111286611617063       0.110426403379052       0.109566195141040     
  0.108705986903029       0.107845778665018       0.106985570427007     
  0.106125362188995       0.105265153950984       0.104404945712972     
  0.103544737474961       0.102684529236950       0.101824320998938     
  0.100964112760927       0.126717817057038       0.125857608819027     
  0.124997400581015       0.124137192343004       0.123276984104993     
  0.122416775866981       0.121556567628970       0.120696359390958     
  0.119836151152947       0.118975942914936       0.118115734676924     
  0.117255526438913       0.116395318200901       0.115535109962890     
  0.114674901724879       0.113814693486867       0.112954485248856     
  0.112094277010844       0.111234068772833       0.110373860534822     
  0.109513652296811       0.108653444058799       0.107793235820788     
  0.106933027582776       0.106072819344765       0.105212611106754     
  0.133717831319719       0.132857623081707       0.131997414843696     
  0.131137206605685       0.130276998367673       0.129416790129662     
  0.128556581891650       0.127696373653639       0.126836165415628     
  0.125975957177617       0.125115748939605       0.124255540701594     
  0.123395332463582       0.122535124225571       0.121674915987560     
  0.120814707749548       0.119954499511537       0.119094291273525     
  0.118234083035514       0.117373874797503       0.116513666559491     
  0.115653458321480       0.114793250083469       0.113933041845457     
  0.113072833607446       0.112212625369434       0.143349589314449     
  0.142489381076437       0.141629172838426       0.140768964600414     
  0.139908756362404       0.139048548124392       0.138188339886381     
  0.137328131648369       0.136467923410358       0.135607715172346     
  0.134747506934335       0.133887298696324       0.133027090458312     
  0.132166882220301       0.131306673982289       0.130446465744278     
  0.129586257506267       0.128726049268256       0.127865841030244     
  0.127005632792233       0.126145424554221       0.125285216316210     
  0.124425008078199       0.123564799840187       0.122704591602176     
  0.121844383364165       0.155448288991510       0.154588080753499     
  0.153727872515487       0.152867664277476       0.152007456039464     
  0.151147247801453       0.150287039563442       0.149426831325431     
  0.148566623087419       0.147706414849408       0.146846206611396     
  0.145985998373385       0.145125790135374       0.144265581897363     
  0.143405373659351       0.142545165421340       0.141684957183328     
  0.140824748945317       0.139964540707305       0.139104332469294     
  0.138244124231283       0.137383915993271       0.136523707755260     
  0.135663499517249       0.134803291279237       0.133943083041226     
  0.169806918245035       0.168946710007024       0.168086501769013     
  0.167226293531001       0.166366085292990       0.165505877054979     
  0.164645668816967       0.163785460578956       0.162925252340945     
  0.162065044102933       0.161204835864921       0.160344627626910     
  0.159484419388899       0.158624211150888       0.157764002912876     
  0.156903794674865       0.156043586436853       0.155183378198842     
  0.154323169960831       0.153462961722820       0.152602753484808     
  0.151742545246796       0.150882337008785       0.150022128770774     
  0.149161920532763       0.148301712294751       0.186179796947532     
  0.185319588709521       0.184459380471509       0.183599172233498     
  0.182738963995487       0.181878755757475       0.181018547519463     
  0.180158339281453       0.179298131043442       0.178437922805430     
  0.177577714567418       0.176717506329407       0.175857298091396     
  0.174997089853385       0.174136881615373       0.173276673377362     
  0.172416465139351       0.171556256901339       0.170696048663328     
  0.169835840425316       0.168975632187305       0.168115423949293     
  0.167255215711282       0.166395007473271       0.165534799235260     
  0.164674590997248       0.204286780604982       0.203426572366970     
  0.202566364128959       0.201706155890947       0.200845947652936     
  0.199985739414924       0.199125531176913       0.198265322938902     
  0.197405114700891       0.196544906462880       0.195684698224868     
  0.194824489986856       0.193964281748845       0.193104073510833     
  0.192243865272822       0.191383657034811       0.190523448796799     
  0.189663240558788       0.188803032320777       0.187942824082765     
  0.187082615844754       0.186222407606743       0.185362199368731     
  0.184501991130720       0.183641782892708       0.182781574654698     
  0.223818053706800       0.222957845468788       0.222097637230778     
  0.221237428992766       0.220377220754754       0.219517012516743     
  0.218656804278732       0.217796596040720       0.216936387802709     
  0.216076179564698       0.215215971326686       0.214355763088674     
  0.213495554850663       0.212635346612652       0.211775138374641     
  0.210914930136629       0.210054721898618       0.209194513660607     
  0.208334305422596       0.207474097184584       0.206613888946573     
  0.205753680708561       0.204893472470550       0.204033264232538     
  0.203173055994527       0.202312847756515       0.244439430755124     
  0.243579222517112       0.242719014279100       0.241858806041089     
  0.240998597803078       0.240138389565067       0.239278181327056     
  0.238417973089044       0.237557764851032       0.236697556613021     
  0.235837348375010       0.234977140136998       0.234116931898988     
  0.233256723660976       0.232396515422964       0.231536307184953     
  0.230676098946941       0.229815890708930       0.228955682470919     
  0.228095474232907       0.227235265994896       0.226375057756885     
  0.225514849518873       0.224654641280862       0.223794433042850     
  0.222934224804839       0.265798074271329       0.264937866033318     
  0.264077657795306       0.263217449557296       0.262357241319284     
  0.261497033081273       0.260636824843261       0.259776616605250     
  0.258916408367239       0.258056200129227       0.257195991891216     
  0.256335783653204       0.255475575415193       0.254615367177181     
  0.253755158939170       0.252894950701159       0.252034742463147     
  0.251174534225136       0.250314325987125       0.249454117749114     
  0.248593909511102       0.247733701273090       0.246873493035079     
  0.246013284797068       0.245153076559057       0.244292868321045     
  0.287528531943121       0.286668323705110       0.285808115467098     
  0.284947907229087       0.284087698991076       0.283227490753064     
  0.282367282515053       0.281507074277041       0.280646866039030     
  0.279786657801019       0.278926449563008       0.278066241324996     
  0.277206033086984       0.276345824848973       0.275485616610962     
  0.274625408372950       0.273765200134939       0.272904991896927     
  0.272044783658916       0.271184575420905       0.270324367182894     
  0.269464158944882       0.268603950706871       0.267743742468860     
  0.266883534230848       0.266023325992837       0.309258989614912     
  0.308398781376900       0.307538573138890       0.306678364900878     
  0.305818156662868       0.304957948424856       0.304097740186844     
  0.303237531948833       0.302377323710820       0.301517115472811     
  0.300656907234799       0.299796698996788       0.298936490758776     
  0.298076282520765       0.297216074282753       0.296355866044742     
  0.295495657806730       0.294635449568720       0.293775241330708     
  0.292915033092697       0.292054824854685       0.291194616616674     
  0.290334408378664       0.289474200140650       0.288613991902639     
  0.287753783664628       0.330617633131118       0.329757424893107     
  0.328897216655096       0.328037008417084       0.327176800179073     
  0.326316591941062       0.325456383703050       0.324596175465040     
  0.323735967227027       0.322875758989016       0.322015550751005     
  0.321155342512993       0.320295134274981       0.319434926036971     
  0.318574717798960       0.317714509560948       0.316854301322936     
  0.315994093084925       0.315133884846914       0.314273676608902     
  0.313413468370891       0.312553260132880       0.311693051894868     
  0.310832843656857       0.309972635418846       0.309112427180834     
  0.351239010179442       0.350378801941431       0.349518593703420     
  0.348658385465408       0.347798177227396       0.346937968989385     
  0.346077760751374       0.345217552513362       0.344357344275351     
  0.343497136037340       0.342636927799328       0.341776719561317     
  0.340916511323306       0.340056303085295       0.339196094847283     
  0.338335886609271       0.337475678371260       0.336615470133250     
  0.335755261895238       0.334895053657226       0.334034845419215     
  0.333174637181203       0.332314428943191       0.331454220705181     
  0.330594012467169       0.329733804229157       0.370770283281260     
  0.369910075043249       0.369049866805239       0.368189658567226     
  0.367329450329215       0.366469242091204       0.365609033853193     
  0.364748825615181       0.363888617377170       0.363028409139158     
  0.362168200901147       0.361307992663135       0.360447784425124     
  0.359587576187113       0.358727367949101       0.357867159711090     
  0.357006951473079       0.356146743235067       0.355286534997056     
  0.354426326759044       0.353566118521033       0.352705910283022     
  0.351845702045010       0.350985493806999       0.350125285568988     
  0.349265077330976       0.388877266938709       0.388017058700698     
  0.387156850462688       0.386296642224676       0.385436433986664     
  0.384576225748653       0.383716017510641       0.382855809272629     
  0.381995601034619       0.381135392796608       0.380275184558596     
  0.379414976320585       0.378554768082573       0.377694559844561     
  0.376834351606550       0.375974143368540       0.375113935130528     
  0.374253726892517       0.373393518654506       0.372533310416494     
  0.371673102178483       0.370812893940471       0.369952685702460     
  0.369092477464448       0.368232269226437       0.367372060988426     
  0.405250145641206       0.404389937403195       0.403529729165185     
  0.402669520927173       0.401809312689162       0.400949104451149     
  0.400088896213139       0.399228687975128       0.398368479737116     
  0.397508271499104       0.396648063261093       0.395787855023081     
  0.394927646785071       0.394067438547058       0.393207230309047     
  0.392347022071036       0.391486813833025       0.390626605595013     
  0.389766397357002       0.388906189118991       0.388045980880979     
  0.387185772642968       0.386325564404956       0.385465356166946     
  0.384605147928934       0.383744939690922       0.419608774894732     
  0.418748566656721       0.417888358418709       0.417028150180698     
  0.416167941942686       0.415307733704674       0.414447525466663     
  0.413587317228652       0.412727108990641       0.411866900752630     
  0.411006692514618       0.410146484276606       0.409286276038596     
  0.408426067800584       0.407565859562572       0.406705651324561     
  0.405845443086550       0.404985234848538       0.404125026610527     
  0.403264818372516       0.402404610134505       0.401544401896493     
  0.400684193658482       0.399823985420470       0.398963777182458     
  0.398103568944447       0.431707474571793       0.430847266333782     
  0.429987058095770       0.429126849857759       0.428266641619748     
  0.427406433381736       0.426546225143725       0.425686016905713     
  0.424825808667702       0.423965600429690       0.423105392191680     
  0.422245183953668       0.421384975715657       0.420524767477645     
  0.419664559239634       0.418804351001623       0.417944142763610     
  0.417083934525600       0.416223726287588       0.415363518049577     
  0.414503309811565       0.413643101573555       0.412782893335543     
  0.411922685097532       0.411062476859521       0.410202268621509     
  0.441339232566523       0.440479024328512       0.439618816090500     
  0.438758607852490       0.437898399614478       0.437038191376467     
  0.436177983138455       0.435317774900443       0.434457566662432     
  0.433597358424421       0.432737150186411       0.431876941948399     
  0.431016733710387       0.430156525472375       0.429296317234364     
  0.428436108996352       0.427575900758341       0.426715692520330     
  0.425855484282318       0.424995276044307       0.424135067806296     
  0.423274859568284       0.422414651330273       0.421554443092262     
  0.420694234854250       0.419834026616240       0.448339246829204     
  0.447479038591193       0.446618830353181       0.445758622115170     
  0.444898413877159       0.444038205639147       0.443177997401136     
  0.442317789163125       0.441457580925113       0.440597372687101     
  0.439737164449091       0.438876956211079       0.438016747973068     
  0.437156539735056       0.436296331497045       0.435436123259033     
  0.434575915021022       0.433715706783010       0.432855498545000     
  0.431995290306988       0.431135082068977       0.430274873830966     
  0.429414665592954       0.428554457354943       0.427694249116931     
  0.426834040878921       0.452587745175031       0.451727536937020     
  0.450867328699009       0.450007120460997       0.449146912222986     
  0.448286703984974       0.447426495746963       0.446566287508951     
  0.445706079270940       0.444845871032928       0.443985662794918     
  0.443125454556906       0.442265246318894       0.441405038080882     
  0.440544829842872       0.439684621604860       0.438824413366849     
  0.437964205128837       0.437103996890826       0.436243788652815     
  0.435383580414804       0.434523372176792       0.433663163938781     
  0.432802955700770       0.431942747462758       0.431082539224748     
  0.454012034619399       0.453151826381390       0.452291618143377     
  0.451431409905365       0.450571201667356       0.449710993429343     
  0.448850785191331       0.447990576953319       0.447130368715308     
  0.446270160477297       0.445409952239286       0.444549744001276     
  0.443689535763263       0.442829327525253       0.441969119287241     
  0.441108911049229       0.440248702811217       0.439388494573207     
  0.438528286335195       0.437668078097184       0.436807869859173     
  0.435947661621161       0.435087453383149       0.434227245145139     
  0.433367036907127       0.432506828669116     
 -2.054509405647633E-002 -2.202697442125402E-002 -2.350885478603145E-002
 -2.499073515080886E-002 -2.647261551558639E-002 -2.795449588036389E-002
 -2.943637624514137E-002 -3.091825660991871E-002 -3.240013697469619E-002
 -3.388201733947378E-002 -3.536389770425132E-002 -3.684577806902879E-002
 -3.832765843380610E-002 -3.980953879858381E-002 -4.129141916336111E-002
 -4.277329952813876E-002 -4.425517989291632E-002 -4.573706025769365E-002
 -4.721894062247115E-002 -4.870082098724862E-002 -5.018270135202620E-002
 -5.166458171680374E-002 -5.314646208158112E-002 -5.462834244635868E-002
 -5.611022281113606E-002 -5.759210317591348E-002 -2.137187167124220E-002
 -2.285375203601967E-002 -2.433563240079735E-002 -2.581751276557467E-002
 -2.729939313035227E-002 -2.878127349512972E-002 -3.026315385990710E-002
 -3.174503422468485E-002 -3.322691458946200E-002 -3.470879495423960E-002
 -3.619067531901713E-002 -3.767255568379461E-002 -3.915443604857213E-002
 -4.063631641334953E-002 -4.211819677812702E-002 -4.360007714290445E-002
 -4.508195750768197E-002 -4.656383787245945E-002 -4.804571823723684E-002
 -4.952759860201447E-002 -5.100947896679200E-002 -5.249135933156945E-002
 -5.397323969634696E-002 -5.545512006112430E-002 -5.693700042590177E-002
 -5.841888079067936E-002 -2.383805812132490E-002 -2.531993848610245E-002
 -2.680181885087992E-002 -2.828369921565743E-002 -2.976557958043497E-002
 -3.124745994521223E-002 -3.272934030998962E-002 -3.421122067476722E-002
 -3.569310103954475E-002 -3.717498140432225E-002 -3.865686176909968E-002
 -4.013874213387737E-002 -4.162062249865472E-002 -4.310250286343213E-002
 -4.458438322820973E-002 -4.606626359298718E-002 -4.754814395776458E-002
 -4.903002432254231E-002 -5.051190468731957E-002 -5.199378505209702E-002
 -5.347566541687443E-002 -5.495754578165200E-002 -5.643942614642958E-002
 -5.792130651120712E-002 -5.940318687598423E-002 -6.088506724076213E-002
 -2.790145627280749E-002 -2.938333663758504E-002 -3.086521700236248E-002
 -3.234709736714002E-002 -3.382897773191732E-002 -3.531085809669484E-002
 -3.679273846147241E-002 -3.827461882625005E-002 -3.975649919102734E-002
 -4.123837955580503E-002 -4.272025992058241E-002 -4.420214028535993E-002
 -4.568402065013744E-002 -4.716590101491473E-002 -4.864778137969236E-002
 -5.012966174446973E-002 -5.161154210924736E-002 -5.309342247402470E-002
 -5.457530283880221E-002 -5.605718320357980E-002 -5.753906356835704E-002
 -5.902094393313456E-002 -6.050282429791224E-002 -6.198470466268965E-002
 -6.346658502746708E-002 -6.494846539224455E-002 -3.349254025673142E-002
 -3.497442062150871E-002 -3.645630098628625E-002 -3.793818135106345E-002
 -3.942006171584131E-002 -4.090194208061883E-002 -4.238382244539625E-002
 -4.386570281017375E-002 -4.534758317495121E-002 -4.682946353972865E-002
 -4.831134390450624E-002 -4.979322426928386E-002 -5.127510463406094E-002
 -5.275698499883885E-002 -5.423886536361619E-002 -5.572074572839350E-002
 -5.720262609317121E-002 -5.868450645794865E-002 -6.016638682272593E-002
 -6.164826718750371E-002 -6.313014755228120E-002 -6.461202791705838E-002
 -6.609390828183595E-002 -6.757578864661339E-002 -6.905766901139117E-002
 -7.053954937616852E-002 -4.051564507599027E-002 -4.199752544076779E-002
 -4.347940580554515E-002 -4.496128617032238E-002 -4.644316653509987E-002
 -4.792504689987742E-002 -4.940692726465519E-002 -5.088880762943254E-002
 -5.237068799420982E-002 -5.385256835898751E-002 -5.533444872376497E-002
 -5.681632908854243E-002 -5.829820945332020E-002 -5.978008981809748E-002
 -6.126197018287484E-002 -6.274385054765264E-002 -6.422573091243011E-002
 -6.570761127720738E-002 -6.718949164198490E-002 -6.867137200676206E-002
 -7.015325237154003E-002 -7.163513273631726E-002 -7.311701310109472E-002
 -7.459889346587227E-002 -7.608077383064961E-002 -7.756265419542754E-002
 -4.885060345995383E-002 -5.033248382473168E-002 -5.181436418950919E-002
 -5.329624455428653E-002 -5.477812491906377E-002 -5.626000528384131E-002
 -5.774188564861885E-002 -5.922376601339679E-002 -6.070564637817401E-002
 -6.218752674295145E-002 -6.366940710772900E-002 -6.515128747250627E-002
 -6.663316783728383E-002 -6.811504820206153E-002 -6.959692856683897E-002
 -7.107880893161654E-002 -7.256068929639363E-002 -7.404256966117147E-002
 -7.552445002594857E-002 -7.700633039072649E-002 -7.848821075550379E-002
 -7.997009112028100E-002 -8.145197148505862E-002 -8.293385184983589E-002
 -8.441573221461365E-002 -8.589761257939106E-002 -5.835480195978602E-002
 -5.983668232456368E-002 -6.131856268934104E-002 -6.280044305411844E-002
 -6.428232341889617E-002 -6.576420378367384E-002 -6.724608414845061E-002
 -6.872796451322864E-002 -7.020984487800593E-002 -7.169172524278321E-002
 -7.317360560756066E-002 -7.465548597233802E-002 -7.613736633711547E-002
 -7.761924670189352E-002 -7.910112706667087E-002 -8.058300743144826E-002
 -8.206488779622592E-002 -8.354676816100366E-002 -8.502864852578068E-002
 -8.651052889055820E-002 -8.799240925533582E-002 -8.947428962011335E-002
 -9.095616998489064E-002 -9.243805034966840E-002 -9.391993071444572E-002
 -9.540181107922321E-002 -6.886562110409258E-002 -7.034750146886981E-002
 -7.182938183364763E-002 -7.331126219842489E-002 -7.479314256320234E-002
 -7.627502292798027E-002 -7.775690329275713E-002 -7.923878365753501E-002
 -8.072066402231222E-002 -8.220254438709000E-002 -8.368442475186748E-002
 -8.516630511664461E-002 -8.664818548142234E-002 -8.813006584619971E-002
 -8.961194621097716E-002 -9.109382657575486E-002 -9.257570694053202E-002
 -9.405758730530983E-002 -9.553946767008713E-002 -9.702134803486492E-002
 -9.850322839964210E-002 -9.998510876441974E-002 -0.101466989129197     
 -0.102948869493975      -0.104430749858752      -0.105912630223530     
 -8.020321786316485E-002 -8.168509822794280E-002 -8.316697859272015E-002
 -8.464885895749748E-002 -8.613073932227464E-002 -8.761261968705224E-002
 -8.909450005183028E-002 -9.057638041660694E-002 -9.205826078138500E-002
 -9.354014114616230E-002 -9.502202151093975E-002 -9.650390187571765E-002
 -9.798578224049463E-002 -9.946766260527240E-002 -0.100949542970049     
 -0.102431423334827      -0.103913303699605      -0.105395184064383     
 -0.106877064429160      -0.108358944793937      -0.109840825158715     
 -0.111322705523492      -0.112804585888270      -0.114286466253047     
 -0.115768346617824      -0.117250226982602      -9.217360281307942E-002
 -9.365548317785752E-002 -9.513736354263425E-002 -9.661924390741199E-002
 -9.810112427218939E-002 -9.958300463696712E-002 -0.101064885001744     
 -0.102546765366522      -0.104028645731299      -0.105510526096077     
 -0.106992406460854      -0.108474286825632      -0.109956167190409     
 -0.111438047555187      -0.112919927919964      -0.114401808284742     
 -0.115883688649519      -0.117365569014297      -0.118847449379075     
 -0.120329329743852      -0.121811210108630      -0.123293090473407     
 -0.124774970838184      -0.126256851202962      -0.127738731567739     
 -0.129220611932516      -0.104571959348526      -0.106053839713303     
 -0.107535720078081      -0.109017600442859      -0.110499480807636     
 -0.111981361172413      -0.113463241537191      -0.114945121901969     
 -0.116427002266746      -0.117908882631523      -0.119390762996301     
 -0.120872643361079      -0.122354523725856      -0.123836404090633     
 -0.125318284455411      -0.126800164820188      -0.128282045184966     
 -0.129763925549743      -0.131245805914521      -0.132727686279298     
 -0.134209566644075      -0.135691447008853      -0.137173327373631     
 -0.138655207738408      -0.140137088103186      -0.141618968467963     
 -0.117186148151709      -0.118668028516486      -0.120149908881263     
 -0.121631789246041      -0.123113669610819      -0.124595549975596     
 -0.126077430340374      -0.127559310705151      -0.129041191069929     
 -0.130523071434706      -0.132004951799484      -0.133486832164261     
 -0.134968712529038      -0.136450592893816      -0.137932473258593     
 -0.139414353623371      -0.140896233988148      -0.142378114352926     
 -0.143859994717704      -0.145341875082481      -0.146823755447258     
 -0.148305635812036      -0.149787516176814      -0.151269396541590     
 -0.152751276906369      -0.154233157271145      -0.129800336954892     
 -0.131282217319669      -0.132764097684446      -0.134245978049224     
 -0.135727858414002      -0.137209738778778      -0.138691619143556     
 -0.140173499508333      -0.141655379873111      -0.143137260237889     
 -0.144619140602666      -0.146101020967444      -0.147582901332221     
 -0.149064781696998      -0.150546662061776      -0.152028542426554     
 -0.153510422791331      -0.154992303156109      -0.156474183520886     
 -0.157956063885663      -0.159437944250441      -0.160919824615219     
 -0.162401704979997      -0.163883585344774      -0.165365465709551     
 -0.166847346074329      -0.142198693490338      -0.143680573855115     
 -0.145162454219893      -0.146644334584670      -0.148126214949448     
 -0.149608095314225      -0.151089975679003      -0.152571856043780     
 -0.154053736408558      -0.155535616773335      -0.157017497138113     
 -0.158499377502890      -0.159981257867668      -0.161463138232445     
 -0.162945018597223      -0.164426898962000      -0.165908779326777     
 -0.167390659691555      -0.168872540056333      -0.170354420421110     
 -0.171836300785887      -0.173318181150665      -0.174800061515442     
 -0.176281941880219      -0.177763822244997      -0.179245702609774     
 -0.154169078440253      -0.155650958805030      -0.157132839169807     
 -0.158614719534585      -0.160096599899362      -0.161578480264140     
 -0.163060360628917      -0.164542240993695      -0.166024121358472     
 -0.167506001723250      -0.168987882088027      -0.170469762452805     
 -0.171951642817583      -0.173433523182361      -0.174915403547137     
 -0.176397283911915      -0.177879164276692      -0.179361044641470     
 -0.180842925006248      -0.182324805371024      -0.183806685735802     
 -0.185288566100580      -0.186770446465357      -0.188252326830135     
 -0.189734207194913      -0.191216087559689      -0.165506675199325     
 -0.166988555564103      -0.168470435928879      -0.169952316293657     
 -0.171434196658435      -0.172916077023212      -0.174397957387990     
 -0.175879837752768      -0.177361718117545      -0.178843598482322     
 -0.180325478847100      -0.181807359211877      -0.183289239576654     
 -0.184771119941433      -0.186253000306209      -0.187734880670986     
 -0.189216761035764      -0.190698641400541      -0.192180521765319     
 -0.193662402130097      -0.195144282494874      -0.196626162859652     
 -0.198108043224430      -0.199589923589207      -0.201071803953985     
 -0.202553684318762      -0.176017494343631      -0.177499374708409     
 -0.178981255073186      -0.180463135437964      -0.181945015802741     
 -0.183426896167519      -0.184908776532296      -0.186390656897073     
 -0.187872537261851      -0.189354417626628      -0.190836297991406     
 -0.192318178356184      -0.193800058720961      -0.195281939085739     
 -0.196763819450516      -0.198245699815294      -0.199727580180071     
 -0.201209460544849      -0.202691340909626      -0.204173221274404     
 -0.205655101639181      -0.207136982003959      -0.208618862368736     
 -0.210100742733514      -0.211582623098291      -0.213064503463069     
 -0.185521692843463      -0.187003573208240      -0.188485453573018     
 -0.189967333937795      -0.191449214302574      -0.192931094667351     
 -0.194412975032128      -0.195894855396907      -0.197376735761683     
 -0.198858616126460      -0.200340496491238      -0.201822376856016     
 -0.203304257220793      -0.204786137585571      -0.206268017950348     
 -0.207749898315126      -0.209231778679903      -0.210713659044681     
 -0.212195539409459      -0.213677419774236      -0.215159300139013     
 -0.216641180503791      -0.218123060868567      -0.219604941233345     
 -0.221086821598123      -0.222568701962900      -0.193856651227428     
 -0.195338531592204      -0.196820411956982      -0.198302292321759     
 -0.199784172686537      -0.201266053051315      -0.202747933416092     
 -0.204229813780870      -0.205711694145647      -0.207193574510425     
 -0.208675454875202      -0.210157335239980      -0.211639215604757     
 -0.213121095969535      -0.214602976334312      -0.216084856699089     
 -0.217566737063868      -0.219048617428644      -0.220530497793422     
 -0.222012378158199      -0.223494258522977      -0.224976138887754     
 -0.226458019252532      -0.227939899617309      -0.229421779982087     
 -0.230903660346864      -0.200879756046686      -0.202361636411464     
 -0.203843516776241      -0.205325397141019      -0.206807277505797     
 -0.208289157870574      -0.209771038235350      -0.211252918600128     
 -0.212734798964905      -0.214216679329683      -0.215698559694461     
 -0.217180440059238      -0.218662320424016      -0.220144200788793     
 -0.221626081153571      -0.223107961518348      -0.224589841883125     
 -0.226071722247903      -0.227553602612680      -0.229035482977459     
 -0.230517363342236      -0.231999243707014      -0.233481124071791     
 -0.234963004436569      -0.236444884801346      -0.237926765166123     
 -0.206470840030610      -0.207952720395387      -0.209434600760164     
 -0.210916481124942      -0.212398361489720      -0.213880241854498     
 -0.215362122219275      -0.216844002584052      -0.218325882948830     
 -0.219807763313607      -0.221289643678385      -0.222771524043162     
 -0.224253404407940      -0.225735284772718      -0.227217165137495     
 -0.228699045502271      -0.230180925867049      -0.231662806231827     
 -0.233144686596604      -0.234626566961382      -0.236108447326159     
 -0.237590327690937      -0.239072208055714      -0.240554088420492     
 -0.242035968785270      -0.243517849150047      -0.210534238182093     
 -0.212016118546870      -0.213497998911647      -0.214979879276425     