 Title = "Wing and Wake"
 VARIABLES = "X" "Y" "Z" "GAM"
 Zone I=   26 J=   25 K=1  T="Blade"
 DATAPACKING=BLOCK
 VARLOCATION=([4]=CELLCENTERED)
 -4.268991472756115E-002 -4.097646606945257E-002 -3.926301741134402E-002
 -3.754956875323559E-002 -3.583612009512701E-002 -3.412267143701841E-002
 -3.240922277890992E-002 -3.069577412080142E-002 -2.898232546269296E-002
 -2.726887680458434E-002 -2.555542814647582E-002 -2.384197948836726E-002
 -2.212853083025882E-002 -2.041508217215022E-002 -1.870163351404171E-002
 -1.698818485593315E-002 -1.527473619782462E-002 -1.356128753971611E-002
 -1.184783888160758E-002 -1.013439022349904E-002 -8.420941565390567E-003
 -6.707492907282048E-003 -4.994044249173457E-003 -3.280595591064923E-003
 -1.567146932956399E-003  1.463017251521684E-004 -4.268547636968111E-002
 -4.097202771157247E-002 -3.925857905346392E-002 -3.754513039535547E-002
 -3.583168173724694E-002 -3.411823307913843E-002 -3.240478442102986E-002
 -3.069133576292129E-002 -2.897788710481279E-002 -2.726443844670425E-002
 -2.555098978859570E-002 -2.383754113048719E-002 -2.212409247237856E-002
 -2.041064381427013E-002 -1.869719515616159E-002 -1.698374649805303E-002
 -1.527029783994451E-002 -1.355684918183598E-002 -1.184340052372754E-002
 -1.012995186561899E-002 -8.416503207510377E-003 -6.703054549401951E-003
 -4.989605891293332E-003 -3.276157233184853E-003 -1.562708575076332E-003
  1.507400830322811E-004 -4.267223723757460E-002 -4.095878857946607E-002
 -3.924533992135751E-002 -3.753189126324898E-002 -3.581844260514044E-002
 -3.410499394703199E-002 -3.239154528892339E-002 -3.067809663081493E-002
 -2.896464797270631E-002 -2.725119931459780E-002 -2.553775065648931E-002
 -2.382430199838075E-002 -2.211085334027222E-002 -2.039740468216375E-002
 -1.868395602405518E-002 -1.697050736594662E-002 -1.525705870783809E-002
 -1.354361004972956E-002 -1.183016139162104E-002 -1.011671273351251E-002
 -8.403264075404003E-003 -6.689815417295412E-003 -4.976366759186903E-003
 -3.262918101078359E-003 -1.549469442969843E-003  1.639792151387160E-004
 -4.265042385646272E-002 -4.093697519835419E-002 -3.922352654024567E-002
 -3.751007788213711E-002 -3.579662922402858E-002 -3.408318056592013E-002
 -3.236973190781161E-002 -3.065628324970297E-002 -2.894283459159451E-002
 -2.722938593348599E-002 -2.551593727537740E-002 -2.380248861726886E-002
 -2.208903995916034E-002 -2.037559130105188E-002 -1.866214264294325E-002
 -1.694869398483476E-002 -1.523524532672628E-002 -1.352179666861772E-002
 -1.180834801050911E-002 -1.009489935240061E-002 -8.381450694292190E-003
 -6.668002036183575E-003 -4.954553378075074E-003 -3.241104719966536E-003
 -1.527656061858041E-003  1.857925962505347E-004 -4.262040945934404E-002
 -4.090696080123567E-002 -3.919351214312700E-002 -3.748006348501853E-002
 -3.576661482691004E-002 -3.405316616880141E-002 -3.233971751069296E-002
 -3.062626885258438E-002 -2.891282019447582E-002 -2.719937153636730E-002
 -2.548592287825879E-002 -2.377247422015027E-002 -2.205902556204175E-002
 -2.034557690393317E-002 -1.863212824582455E-002 -1.691867958771616E-002
 -1.520523092960760E-002 -1.349178227149913E-002 -1.177833361339060E-002
 -1.006488495528208E-002 -8.351436297173430E-003 -6.637987639064947E-003
 -4.924538980956413E-003 -3.211090322847866E-003 -1.497641664739353E-003
  2.158069933692295E-004 -4.258270760087492E-002 -4.086925894276642E-002
 -3.915581028465789E-002 -3.744236162654933E-002 -3.572891296844073E-002
 -3.401546431033234E-002 -3.230201565222367E-002 -3.058856699411518E-002
 -2.887511833600677E-002 -2.716166967789815E-002 -2.544822101978967E-002
 -2.373477236168118E-002 -2.202132370357261E-002 -2.030787504546408E-002
 -1.859442638735554E-002 -1.688097772924694E-002 -1.516752907113839E-002
 -1.345408041302992E-002 -1.174063175492134E-002 -1.002718309681288E-002
 -8.313734438704352E-003 -6.600285780595702E-003 -4.886837122487271E-003
 -3.173388464378677E-003 -1.459939806270260E-003  2.535088518382536E-004
 -4.253796337030654E-002 -4.082451471219808E-002 -3.911106605408952E-002
 -3.739761739598092E-002 -3.568416873787257E-002 -3.397072007976397E-002
 -3.225727142165540E-002 -3.054382276354695E-002 -2.883037410543849E-002
 -2.711692544732984E-002 -2.540347678922119E-002 -2.369002813111283E-002
 -2.197657947300425E-002 -2.026313081489577E-002 -1.854968215678704E-002
 -1.683623349867863E-002 -1.512278484057023E-002 -1.340933618246159E-002
 -1.169588752435302E-002 -9.982438866244501E-003 -8.268990208135952E-003
 -6.555541550027419E-003 -4.842092891918926E-003 -3.128644233810365E-003
 -1.415195575701943E-003  2.982530824065710E-004 -4.248694235382951E-002
 -4.077349369572100E-002 -3.906004503761255E-002 -3.734659637950396E-002
 -3.563314772139550E-002 -3.391969906328692E-002 -3.220625040517837E-002
 -3.049280174706981E-002 -2.877935308896137E-002 -2.706590443085281E-002
 -2.535245577274435E-002 -2.363900711463576E-002 -2.192555845652726E-002
 -2.021210979841869E-002 -1.849866114031018E-002 -1.678521248220151E-002
 -1.507176382409315E-002 -1.335831516598452E-002 -1.164486650787582E-002
 -9.931417849767471E-003 -8.217969191658955E-003 -6.504520533550330E-003
 -4.791071875441962E-003 -3.077623217333359E-003 -1.364174559224790E-003
  3.492740988837512E-004 -4.243051753518146E-002 -4.071706887707281E-002
 -3.900362021896425E-002 -3.729017156085590E-002 -3.557672290274715E-002
 -3.386327424463872E-002 -3.214982558653033E-002 -3.043637692842164E-002
 -2.872292827031326E-002 -2.700947961220471E-002 -2.529603095409614E-002
 -2.358258229598751E-002 -2.186913363787905E-002 -2.015568497977044E-002
 -1.844223632166194E-002 -1.672878766355346E-002 -1.501533900544492E-002
 -1.330189034733646E-002 -1.158844168922797E-002 -9.874993031119396E-003
 -8.161544373010811E-003 -6.448095714902327E-003 -4.734647056793702E-003
 -3.021198398685307E-003 -1.307749740576829E-003  4.056989175318787E-004
 -4.236965435865310E-002 -4.065620570054449E-002 -3.894275704243616E-002
 -3.722930838432752E-002 -3.551585972621912E-002 -3.380241106811063E-002
 -3.208896241000191E-002 -3.037551375189353E-002 -2.866206509378488E-002
 -2.694861643567640E-002 -2.523516777756783E-002 -2.352171911945930E-002
 -2.180827046135097E-002 -2.009482180324229E-002 -1.838137314513378E-002
 -1.666792448702518E-002 -1.495447582891671E-002 -1.324102717080813E-002
 -1.152757851269961E-002 -9.814129854591002E-003 -8.100681196482599E-003
 -6.387232538374121E-003 -4.673783880265575E-003 -2.960335222156844E-003
 -1.246886564048464E-003  4.665620940601474E-004 -4.230539421006969E-002
 -4.059194555196119E-002 -3.887849689385256E-002 -3.716504823574424E-002
 -3.545159957763555E-002 -3.373815091952720E-002 -3.202470226141853E-002
 -3.031125360331003E-002 -2.859780494520139E-002 -2.688435628709299E-002
 -2.517090762898447E-002 -2.345745897087600E-002 -2.174401031276745E-002
 -2.003056165465887E-002 -1.831711299655033E-002 -1.660366433844163E-002
 -1.489021568033313E-002 -1.317676702222471E-002 -1.146331836411608E-002
 -9.749869706007743E-003 -8.036421047899081E-003 -6.322972389790536E-003
 -4.609523731682025E-003 -2.896075073573602E-003 -1.182626415464746E-003
  5.308222426433641E-004 -4.223883659838942E-002 -4.052538794028111E-002
 -3.881193928217240E-002 -3.709849062406394E-002 -3.538504196595545E-002
 -3.367159330784689E-002 -3.195814464973846E-002 -3.024469599162975E-002
 -2.853124733352133E-002 -2.681779867541264E-002 -2.510435001730433E-002
 -2.339090135919572E-002 -2.167745270108717E-002 -1.996400404297882E-002
 -1.825055538487003E-002 -1.653710672676157E-002 -1.482365806865291E-002
 -1.311020941054451E-002 -1.139676075243599E-002 -9.683312094327530E-003
 -7.969863436219068E-003 -6.256414778110326E-003 -4.542966120001656E-003
 -2.829517461893482E-003 -1.116068803784587E-003  5.973798543235704E-004
 -4.217112034280178E-002 -4.045767168469319E-002 -3.874422302658478E-002
 -3.703077436847628E-002 -3.531732571036766E-002 -3.360387705225915E-002
 -3.189042839415062E-002 -3.017697973604197E-002 -2.846353107793339E-002
 -2.675008241982497E-002 -2.503663376171637E-002 -2.332318510360798E-002
 -2.160973644549940E-002 -1.989628778739087E-002 -1.818283912928243E-002
 -1.646939047117390E-002 -1.475594181306522E-002 -1.304249315495667E-002
 -1.132904449684811E-002 -9.615595838739740E-003 -7.902147180631057E-003
 -6.188698522522661E-003 -4.475249864414013E-003 -2.761801206305578E-003
 -1.048352548196918E-003  6.650961099113515E-004 -4.210340408721400E-002
 -4.038995542910551E-002 -3.867650677099690E-002 -3.696305811288811E-002
 -3.524960945477967E-002 -3.353616079667134E-002 -3.182271213856296E-002
 -3.010926348045437E-002 -2.839581482234564E-002 -2.668236616423704E-002
 -2.496891750612874E-002 -2.325546884802009E-002 -2.154202018991169E-002
 -1.982857153180302E-002 -1.811512287369470E-002 -1.640167421558610E-002
 -1.468822555747734E-002 -1.297477689936905E-002 -1.126132824126050E-002
 -9.547879583151944E-003 -7.834430925043287E-003 -6.120982266934712E-003
 -4.407533608826237E-003 -2.694084950717656E-003 -9.806362926091901E-004
  7.328123654993710E-004 -4.203684647553360E-002 -4.032339781742530E-002
 -3.860994915931692E-002 -3.689650050120810E-002 -3.518305184309969E-002
 -3.346960318499083E-002 -3.175615452688269E-002 -3.004270586877431E-002
 -2.832925721066529E-002 -2.661580855255675E-002 -2.490235989444845E-002
 -2.318891123633994E-002 -2.147546257823142E-002 -1.976201392012275E-002
 -1.804856526201416E-002 -1.633511660390580E-002 -1.462166794579745E-002
 -1.290821928768879E-002 -1.119477062958027E-002 -9.481321971471472E-003
 -7.767873313362993E-003 -6.054424655254753E-003 -4.340975997145956E-003
 -2.627527339037548E-003 -9.140786809289437E-004  7.993699771793721E-004
 -4.197258632695009E-002 -4.025913766884186E-002 -3.854568901073342E-002
 -3.683224035262473E-002 -3.511879169451593E-002 -3.340534303640756E-002
 -3.169189437829910E-002 -2.997844572019052E-002 -2.826499706208201E-002
 -2.655154840397353E-002 -2.483809974586500E-002 -2.312465108775627E-002
 -2.141120242964782E-002 -1.969775377153928E-002 -1.798430511343065E-002
 -1.627085645532228E-002 -1.455740779721385E-002 -1.284395913910536E-002
 -1.113051048099652E-002 -9.417061822888248E-003 -7.703613164779840E-003
 -5.990164506671058E-003 -4.276715848562327E-003 -2.563267190453712E-003
 -8.498185323454966E-004  8.636301257632182E-004 -4.191172315042201E-002
 -4.019827449231338E-002 -3.848482583420507E-002 -3.677137717609615E-002
 -3.505792851798790E-002 -3.334447985987932E-002 -3.163103120177101E-002
 -2.991758254366215E-002 -2.820413388555372E-002 -2.649068522744510E-002
 -2.477723656933667E-002 -2.306378791122813E-002 -2.135033925311984E-002
 -1.963689059501099E-002 -1.792344193690261E-002 -1.620999327879410E-002
 -1.449654462068579E-002 -1.278309596257698E-002 -1.106964730446885E-002
 -9.356198646359885E-003 -7.642749988251546E-003 -5.929301330143223E-003
 -4.215852672034423E-003 -2.502404013925915E-003 -7.889553558171346E-004
  9.244933022911687E-004 -4.185529833177394E-002 -4.014184967366560E-002
 -3.842840101555683E-002 -3.671495235744833E-002 -3.500150369933940E-002
 -3.328805504123136E-002 -3.157460638312249E-002 -2.986115772501422E-002
 -2.814770906690546E-002 -2.643426040879738E-002 -2.472081175068870E-002
 -2.300736309258006E-002 -2.129391443447141E-002 -1.958046577636295E-002
 -1.786701711825427E-002 -1.615356846014587E-002 -1.444011980203737E-002
 -1.272667114392883E-002 -1.101322248582049E-002 -9.299773827711702E-003
 -7.586325169603380E-003 -5.872876511494440E-003 -4.159427853386033E-003
 -2.445979195277563E-003 -7.325305371689504E-004  9.809181209395439E-004
 -4.180427731529692E-002 -4.009082865718843E-002 -3.837737999908002E-002
 -3.666393134097144E-002 -3.495048268286272E-002 -3.323703402475429E-002
 -3.152358536664564E-002 -2.981013670853718E-002 -2.809668805042878E-002
 -2.638323939232013E-002 -2.466979073421170E-002 -2.295634207610302E-002
 -2.124289341799444E-002 -1.952944475988600E-002 -1.781599610177718E-002
 -1.610254744366917E-002 -1.438909878556041E-002 -1.267565012745192E-002
 -1.096220146934297E-002 -9.248752811234637E-003 -7.535304153126370E-003
 -5.821855495017601E-003 -4.108406836909260E-003 -2.394958178800869E-003
 -6.815095206920260E-004  1.031939137416648E-003 -4.175953308472841E-002
 -4.004608442662012E-002 -3.833263576851145E-002 -3.661918711040287E-002
 -3.490573845229449E-002 -3.319228979418602E-002 -3.147884113607731E-002
 -2.976539247796879E-002 -2.805194381986036E-002 -2.633849516175168E-002
 -2.462504650364343E-002 -2.291159784553441E-002 -2.119814918742601E-002
 -1.948470052931763E-002 -1.777125187120925E-002 -1.605780321310026E-002
 -1.434435455499199E-002 -1.263090589688371E-002 -1.091745723877481E-002
 -9.204008580666495E-003 -7.490559922558003E-003 -5.777111264449453E-003
 -4.063662606340799E-003 -2.350213948232400E-003 -6.367652901237116E-004
  1.076683367984708E-003 -4.172183122625920E-002 -4.000838256815061E-002
 -3.829493391004262E-002 -3.658148525193344E-002 -3.486803659382516E-002
 -3.315458793571691E-002 -3.144113927760835E-002 -2.972769061949954E-002
 -2.801424196139124E-002 -2.630079330328250E-002 -2.458734464517396E-002
 -2.287389598706574E-002 -2.116044732895722E-002 -1.944699867084866E-002
 -1.773355001273991E-002 -1.602010135463136E-002 -1.430665269652284E-002
 -1.259320403841443E-002 -1.087975538030578E-002 -9.166306722197043E-003
 -7.452858064088796E-003 -5.739409405980154E-003 -4.025960747871773E-003
 -2.312512089763045E-003 -5.990634316544428E-004  1.114385226453954E-003
 -4.169181682914080E-002 -3.997836817103229E-002 -3.826491951292360E-002
 -3.655147085481518E-002 -3.483802219670661E-002 -3.312457353859780E-002
 -3.141112488048965E-002 -2.969767622238090E-002 -2.798422756427252E-002
 -2.627077890616393E-002 -2.455733024805548E-002 -2.284388158994682E-002
 -2.113043293183826E-002 -1.941698427372971E-002 -1.770353561562121E-002
 -1.599008695751288E-002 -1.427663829940436E-002 -1.256318964129589E-002
 -1.084974098318718E-002 -9.136292325078812E-003 -7.422843666970152E-003
 -5.709395008861467E-003 -3.995946350753339E-003 -2.282497692644608E-003
 -5.690490345359502E-004  1.144399623572266E-003 -4.167000344802865E-002
 -3.995655478992048E-002 -3.824310613181209E-002 -3.652965747370311E-002
 -3.481620881559470E-002 -3.310276015748619E-002 -3.138931149937766E-002
 -2.967586284126936E-002 -2.796241418316061E-002 -2.624896552505216E-002
 -2.453551686694357E-002 -2.282206820883508E-002 -2.110861955072642E-002
 -1.939517089261808E-002 -1.768172223450930E-002 -1.596827357640084E-002
 -1.425482491829232E-002 -1.254137626018360E-002 -1.082792760207532E-002
 -9.114478943966928E-003 -7.401030285858230E-003 -5.687581627749945E-003
 -3.974132969641324E-003 -2.260684311532768E-003 -5.472356534237585E-004
  1.166213004684148E-003 -4.165676431592223E-002 -3.994331565781394E-002
 -3.822986699970581E-002 -3.651641834159666E-002 -3.480296968348841E-002
 -3.308952102537963E-002 -3.137607236727103E-002 -2.966262370916305E-002
 -2.794917505105402E-002 -2.623572639294548E-002 -2.452227773483737E-002
 -2.280882907672880E-002 -2.109538041862049E-002 -1.938193176051169E-002
 -1.766848310240308E-002 -1.595503444429419E-002 -1.424158578618591E-002
 -1.252813712807750E-002 -1.081468846996904E-002 -9.101239811860212E-003
 -7.387791153751722E-003 -5.674342495642962E-003 -3.960893837534776E-003
 -2.247445179426424E-003 -5.339965213179039E-004  1.179452136790836E-003
 -4.165232595804244E-002 -3.993887729993421E-002 -3.822542864182512E-002
 -3.651197998371656E-002 -3.479853132560824E-002 -3.308508266749943E-002
 -3.137163400939134E-002 -2.965818535128265E-002 -2.794473669317412E-002
 -2.623128803506534E-002 -2.451783937695653E-002 -2.280439071884838E-002
 -2.109094206074004E-002 -1.937749340263144E-002 -1.766404474452308E-002
 -1.595059608641418E-002 -1.423714742830550E-002 -1.252369877019714E-002
 -1.081025011208850E-002 -9.096801453980445E-003 -7.383352795871650E-003
 -5.669904137763239E-003 -3.956455479654607E-003 -2.243006821546116E-003
 -5.295581634377069E-004  1.183890494671049E-003
  0.115115468902114       0.115110851079929       0.115106233257744     
  0.115101615435558       0.115096997613373       0.115092379791188     
  0.115087761969003       0.115083144146817       0.115078526324632     
  0.115073908502447       0.115069290680262       0.115064672858077     
  0.115060055035891       0.115055437213706       0.115050819391521     
  0.115046201569336       0.115041583747150       0.115036965924965     
  0.115032348102780       0.115027730280595       0.115023112458410     
  0.115018494636224       0.115013876814039       0.115009258991854     
  0.115004641169669       0.115000023347483       0.116762327106878     
  0.116757709284693       0.116753091462508       0.116748473640322     
  0.116743855818137       0.116739237995952       0.116734620173767     
  0.116730002351581       0.116725384529396       0.116720766707211     
  0.116716148885026       0.116711531062841       0.116706913240655     
  0.116702295418470       0.116697677596285       0.116693059774100     
  0.116688441951914       0.116683824129729       0.116679206307544     
  0.116674588485359       0.116669970663173       0.116665352840988     
  0.116660735018803       0.116656117196618       0.116651499374433     
  0.116646881552247       0.121674723520691       0.121670105698506     
  0.121665487876321       0.121660870054136       0.121656252231950     
  0.121651634409765       0.121647016587580       0.121642398765395     
  0.121637780943209       0.121633163121024       0.121628545298839     
  0.121623927476654       0.121619309654468       0.121614691832283     
  0.121610074010098       0.121605456187913       0.121600838365728     
  0.121596220543542       0.121591602721357       0.121586984899172     
  0.121582367076987       0.121577749254801       0.121573131432616     
  0.121568513610431       0.121563895788246       0.121559277966061     
  0.129768605678940       0.129763987856754       0.129759370034569     
  0.129754752212384       0.129750134390199       0.129745516568014     
  0.129740898745828       0.129736280923643       0.129731663101458     
  0.129727045279273       0.129722427457087       0.129717809634902     
  0.129713191812717       0.129708573990532       0.129703956168347     
  0.129699338346161       0.129694720523976       0.129690102701791     
  0.129685484879606       0.129680867057420       0.129676249235235     
  0.129671631413050       0.129667013590865       0.129662395768680     
  0.129657777946494       0.129653160124309       0.140905485013848     
  0.140900867191662       0.140896249369477       0.140891631547292     
  0.140887013725107       0.140882395902921       0.140877778080736     
  0.140873160258551       0.140868542436366       0.140863924614181     
  0.140859306791995       0.140854688969810       0.140850071147625     
  0.140845453325440       0.140840835503254       0.140836217681069     
  0.140831599858884       0.140826982036699       0.140822364214514     
  0.140817746392329       0.140813128570143       0.140808510747958     
  0.140803892925773       0.140799275103588       0.140794657281402     
  0.140790039459217       0.154894806432268       0.154890188610083     
  0.154885570787898       0.154880952965713       0.154876335143527     
  0.154871717321342       0.154867099499157       0.154862481676972     
  0.154857863854787       0.154853246032602       0.154848628210416     
  0.154844010388231       0.154839392566046       0.154834774743861     
  0.154830156921675       0.154825539099490       0.154820921277305     
  0.154816303455120       0.154811685632934       0.154807067810749     
  0.154802449988564       0.154797832166379       0.154793214344194     
  0.154788596522009       0.154783978699823       0.154779360877638     
  0.171497208766161       0.171492590943975       0.171487973121790     
  0.171483355299605       0.171478737477420       0.171474119655234     
  0.171469501833049       0.171464884010864       0.171460266188679     
  0.171455648366494       0.171451030544308       0.171446412722123     
  0.171441794899938       0.171437177077753       0.171432559255567     
  0.171427941433382       0.171423323611197       0.171418705789012     
  0.171414087966826       0.171409470144641       0.171404852322456     
  0.171400234500271       0.171395616678086       0.171390998855900     
  0.171386381033715       0.171381763211530       0.190428620308535     
  0.190424002486350       0.190419384664165       0.190414766841980     
  0.190410149019795       0.190405531197609       0.190400913375424     
  0.190396295553239       0.190391677731054       0.190387059908869     
  0.190382442086683       0.190377824264498       0.190373206442313     
  0.190368588620127       0.190363970797942       0.190359352975757     
  0.190354735153572       0.190350117331387       0.190345499509201     
  0.190340881687016       0.190336263864831       0.190331646042646     
  0.190327028220461       0.190322410398275       0.190317792576090     
  0.190313174753905       0.211365119359124       0.211360501536938     
  0.211355883714754       0.211351265892568       0.211346648070383     
  0.211342030248198       0.211337412426012       0.211332794603827     
  0.211328176781642       0.211323558959457       0.211318941137272     
  0.211314323315086       0.211309705492901       0.211305087670716     
  0.211300469848531       0.211295852026345       0.211291234204160     
  0.211286616381975       0.211281998559790       0.211277380737605     
  0.211272762915419       0.211268145093234       0.211263527271049     
  0.211258909448864       0.211254291626679       0.211249673804493     
  0.233948476614476       0.233943858792291       0.233939240970106     
  0.233934623147921       0.233930005325736       0.233925387503550     
  0.233920769681365       0.233916151859180       0.233911534036995     
  0.233906916214809       0.233902298392624       0.233897680570439     
  0.233893062748254       0.233888444926069       0.233883827103883     
  0.233879209281698       0.233874591459513       0.233869973637328     
  0.233865355815143       0.233860737992957       0.233856120170772     
  0.233851502348587       0.233846884526402       0.233842266704216     
  0.233837648882031       0.233833031059846       0.257792284570664     
  0.257787666748479       0.257783048926294       0.257778431104109     
  0.257773813281924       0.257769195459738       0.257764577637553     
  0.257759959815368       0.257755341993183       0.257750724170997     
  0.257746106348812       0.257741488526627       0.257736870704442     
  0.257732252882256       0.257727635060071       0.257723017237886     
  0.257718399415701       0.257713781593516       0.257709163771330     
  0.257704545949145       0.257699928126960       0.257695310304774     
  0.257690692482589       0.257686074660404       0.257681456838219     
  0.257676839016033       0.282488569062805       0.282483951240619     
  0.282479333418434       0.282474715596249       0.282470097774064     
  0.282465479951879       0.282460862129693       0.282456244307508     
  0.282451626485323       0.282447008663138       0.282442390840953     
  0.282437773018767       0.282433155196582       0.282428537374397     
  0.282423919552211       0.282419301730026       0.282414683907841     
  0.282410066085656       0.282405448263471       0.282400830441286     
  0.282396212619100       0.282391594796915       0.282386976974730     
  0.282382359152545       0.282377741330359       0.282373123508174     
  0.307614769816134       0.307610151993948       0.307605534171763     
  0.307600916349578       0.307596298527393       0.307591680705208     
  0.307587062883023       0.307582445060837       0.307577827238652     
  0.307573209416467       0.307568591594281       0.307563973772096     
  0.307559355949911       0.307554738127726       0.307550120305541     
  0.307545502483355       0.307540884661170       0.307536266838985     
  0.307531649016800       0.307527031194614       0.307522413372430     
  0.307517795550244       0.307513177728059       0.307508559905874     
  0.307503942083688       0.307499324261503       0.332740970569463     
  0.332736352747277       0.332731734925092       0.332727117102907     
  0.332722499280722       0.332717881458537       0.332713263636351     
  0.332708645814166       0.332704027991980       0.332699410169796     
  0.332694792347610       0.332690174525425       0.332685556703240     
  0.332680938881055       0.332676321058870       0.332671703236684     
  0.332667085414499       0.332662467592314       0.332657849770129     
  0.332653231947943       0.332648614125758       0.332643996303573     
  0.332639378481388       0.332634760659202       0.332630142837017     
  0.332625525014832       0.357437255061603       0.357432637239418     
  0.357428019417233       0.357423401595047       0.357418783772862     
  0.357414165950677       0.357409548128492       0.357404930306307     
  0.357400312484122       0.357395694661936       0.357391076839751     
  0.357386459017566       0.357381841195380       0.357377223373196     
  0.357372605551010       0.357367987728825       0.357363369906639     
  0.357358752084455       0.357354134262269       0.357349516440084     
  0.357344898617899       0.357340280795714       0.357335662973528     
  0.357331045151343       0.357326427329158       0.357321809506972     
  0.381281063017791       0.381276445195606       0.381271827373421     
  0.381267209551235       0.381262591729050       0.381257973906865     
  0.381253356084680       0.381248738262495       0.381244120440309     
  0.381239502618124       0.381234884795939       0.381230266973754     
  0.381225649151568       0.381221031329384       0.381216413507198     
  0.381211795685013       0.381207177862828       0.381202560040643     
  0.381197942218458       0.381193324396272       0.381188706574086     
  0.381184088751901       0.381179470929716       0.381174853107531     
  0.381170235285346       0.381165617463160       0.403864420273144     
  0.403859802450959       0.403855184628773       0.403850566806588     
  0.403845948984403       0.403841331162217       0.403836713340033     
  0.403832095517847       0.403827477695662       0.403822859873477     
  0.403818242051292       0.403813624229106       0.403809006406921     
  0.403804388584736       0.403799770762551       0.403795152940365     
  0.403790535118180       0.403785917295994       0.403781299473810     
  0.403776681651624       0.403772063829439       0.403767446007254     
  0.403762828185069       0.403758210362883       0.403753592540699     
  0.403748974718513       0.424800919323732       0.424796301501547     
  0.424791683679362       0.424787065857177       0.424782448034991     
  0.424777830212806       0.424773212390621       0.424768594568435     
  0.424763976746250       0.424759358924065       0.424754741101880     
  0.424750123279695       0.424745505457509       0.424740887635324     
  0.424736269813139       0.424731651990954       0.424727034168769     
  0.424722416346584       0.424717798524398       0.424713180702213     
  0.424708562880028       0.424703945057842       0.424699327235658     
  0.424694709413472       0.424690091591287       0.424685473769101     
  0.443732330866107       0.443727713043922       0.443723095221737     
  0.443718477399551       0.443713859577366       0.443709241755181     
  0.443704623932995       0.443700006110810       0.443695388288625     
  0.443690770466440       0.443686152644255       0.443681534822070     
  0.443676916999884       0.443672299177699       0.443667681355514     
  0.443663063533329       0.443658445711144       0.443653827888958     
  0.443649210066773       0.443644592244587       0.443639974422402     
  0.443635356600217       0.443630738778032       0.443626120955847     
  0.443621503133662       0.443616885311476       0.460334733199999     
  0.460330115377814       0.460325497555629       0.460320879733443     
  0.460316261911258       0.460311644089073       0.460307026266887     
  0.460302408444702       0.460297790622517       0.460293172800332     
  0.460288554978147       0.460283937155962       0.460279319333777     
  0.460274701511591       0.460270083689405       0.460265465867221     
  0.460260848045036       0.460256230222850       0.460251612400665     
  0.460246994578480       0.460242376756294       0.460237758934109     
  0.460233141111924       0.460228523289739       0.460223905467553     
  0.460219287645368       0.474324054618420       0.474319436796235     
  0.474314818974050       0.474310201151864       0.474305583329679     
  0.474300965507494       0.474296347685308       0.474291729863123     
  0.474287112040938       0.474282494218752       0.474277876396568     
  0.474273258574382       0.474268640752197       0.474264022930012     
  0.474259405107827       0.474254787285642       0.474250169463456     
  0.474245551641271       0.474240933819086       0.474236315996901     
  0.474231698174715       0.474227080352530       0.474222462530345     
  0.474217844708160       0.474213226885975       0.474208609063789     
  0.485460933953328       0.485456316131142       0.485451698308958     
  0.485447080486772       0.485442462664587       0.485437844842402     
  0.485433227020217       0.485428609198031       0.485423991375846     
  0.485419373553661       0.485414755731476       0.485410137909290     
  0.485405520087105       0.485400902264920       0.485396284442735     
  0.485391666620550       0.485387048798364       0.485382430976179     
  0.485377813153994       0.485373195331808       0.485368577509623     
  0.485363959687438       0.485359341865253       0.485354724043068     
  0.485350106220883       0.485345488398697       0.493554816111577     
  0.493550198289391       0.493545580467206       0.493540962645021     