 Title = "Wing and Wake"
 VARIABLES = "X" "Y" "Z" "GAM"
 Zone I=   26 J=   25 K=1  T="Blade"
 DATAPACKING=BLOCK
 VARLOCATION=([4]=CELLCENTERED)
  5.119804947116422E-002  5.240653374867444E-002  5.361501802618440E-002
  5.482350230369437E-002  5.603198658120441E-002  5.724047085871436E-002
  5.844895513622450E-002  5.965743941373436E-002  6.086592369124442E-002
  6.207440796875441E-002  6.328289224626453E-002  6.449137652377457E-002
  6.569986080128429E-002  6.690834507879447E-002  6.811682935630452E-002
  6.932531363381457E-002  7.053379791132472E-002  7.174228218883461E-002
  7.295076646634466E-002  7.415925074385463E-002  7.536773502136462E-002
  7.657621929887472E-002  7.778470357638471E-002  7.899318785389470E-002
  8.020167213140467E-002  8.141015640891465E-002  5.236554101769485E-002
  5.357402529520490E-002  5.478250957271496E-002  5.599099385022487E-002
  5.719947812773495E-002  5.840796240524498E-002  5.961644668275506E-002
  6.082493096026514E-002  6.203341523777490E-002  6.324189951528499E-002
  6.445038379279508E-002  6.565886807030513E-002  6.686735234781516E-002
  6.807583662532510E-002  6.928432090283498E-002  7.049280518034504E-002
  7.170128945785506E-002  7.290977373536511E-002  7.411825801287512E-002
  7.532674229038527E-002  7.653522656789515E-002  7.774371084540510E-002
  7.895219512291528E-002  8.016067940042514E-002  8.136916367793509E-002
  8.257764795544527E-002  5.584803955323537E-002  5.705652383074537E-002
  5.826500810825544E-002  5.947349238576544E-002  6.068197666327554E-002
  6.189046094078533E-002  6.309894521829547E-002  6.430742949580547E-002
  6.551591377331552E-002  6.672439805082547E-002  6.793288232833536E-002
  6.914136660584551E-002  7.034985088335535E-002  7.155833516086549E-002
  7.276681943837553E-002  7.397530371588569E-002  7.518378799339552E-002
  7.639227227090567E-002  7.760075654841557E-002  7.880924082592553E-002
  8.001772510343559E-002  8.122620938094555E-002  8.243469365845560E-002
  8.364317793596572E-002  8.485166221347556E-002  8.606014649098578E-002
  6.158595856231183E-002  6.279444283982191E-002  6.400292711733174E-002
  6.521141139484181E-002  6.641989567235171E-002  6.762837994986193E-002
  6.883686422737197E-002  7.004534850488199E-002  7.125383278239195E-002
  7.246231705990212E-002  7.367080133741205E-002  7.487928561492223E-002
  7.608776989243199E-002  7.729625416994196E-002  7.850473844745216E-002
  7.971322272496191E-002  8.092170700247203E-002  8.213019127998213E-002
  8.333867555749216E-002  8.454715983500205E-002  8.575564411251198E-002
  8.696412839002202E-002  8.817261266753215E-002  8.938109694504216E-002
  9.058958122255224E-002  9.179806550006202E-002  6.948112065982742E-002
  7.068960493733711E-002  7.189808921484732E-002  7.310657349235708E-002
  7.431505776986741E-002  7.552354204737721E-002  7.673202632488721E-002
  7.794051060239725E-002  7.914899487990726E-002  8.035747915741746E-002
  8.156596343492743E-002  8.277444771243755E-002  8.398293198994727E-002
  8.519141626745751E-002  8.639990054496746E-002  8.760838482247740E-002
  8.881686909998744E-002  9.002535337749751E-002  9.123383765500731E-002
  9.244232193251767E-002  9.365080621002764E-002  9.485929048753741E-002
  9.606777476504755E-002  9.727625904255739E-002  9.848474332006765E-002
  9.969322759757768E-002  7.939843743334057E-002  8.060692171085064E-002
  8.181540598836058E-002  8.302389026587055E-002  8.423237454338056E-002
  8.544085882089064E-002  8.664934309840065E-002  8.785782737591084E-002
  8.906631165342059E-002  9.027479593093081E-002  9.148328020844050E-002
  9.269176448595062E-002  9.390024876346090E-002  9.510873304097080E-002
  9.631721731848081E-002  9.752570159599082E-002  9.873418587350082E-002
  9.994267015101084E-002  0.101151154428521       0.102359638706031     
  0.103568122983541       0.104776607261051       0.105985091538561     
  0.107193575816071       0.108402060093581       0.109610544371091     
  9.116822084325743E-002  9.237670512076745E-002  9.358518939827767E-002
  9.479367367578752E-002  9.600215795329735E-002  9.721064223080740E-002
  9.841912650831768E-002  9.962761078582773E-002  0.100836095063338     
  0.102044579340848       0.103253063618358       0.104461547895867     
  0.105670032173378       0.106878516450888       0.108087000728398     
  0.109295485005908       0.110503969283418       0.111712453560928     
  0.112920937838437       0.114129422115948       0.115337906393458     
  0.116546390670968       0.117754874948478       0.118963359225988     
  0.120171843503498       0.121380327781008       0.104589086632234     
  0.105797570909744       0.107006055187254       0.108214539464764     
  0.109423023742274       0.110631508019784       0.111839992297294     
  0.113048476574804       0.114256960852314       0.115465445129824     
  0.116673929407334       0.117882413684844       0.119090897962354     
  0.120299382239864       0.121507866517374       0.122716350794884     
  0.123924835072394       0.125133319349904       0.126341803627414     
  0.127550287904924       0.128758772182434       0.129967256459944     
  0.131175740737454       0.132384225014964       0.133592709292474     
  0.134801193569984       0.119431400065653       0.120639884343163     
  0.121848368620673       0.123056852898183       0.124265337175693     
  0.125473821453203       0.126682305730713       0.127890790008223     
  0.129099274285733       0.130307758563243       0.131516242840753     
  0.132724727118263       0.133933211395773       0.135141695673283     
  0.136350179950793       0.137558664228303       0.138767148505813     
  0.139975632783323       0.141184117060833       0.142392601338343     
  0.143601085615853       0.144809569893363       0.146018054170873     
  0.147226538448383       0.148435022725893       0.149643507003403     
  0.135441205045603       0.136649689323113       0.137858173600623     
  0.139066657878133       0.140275142155643       0.141483626433153     
  0.142692110710663       0.143900594988173       0.145109079265683     
  0.146317563543193       0.147526047820703       0.148734532098213     
  0.149943016375723       0.151151500653233       0.152359984930743     
  0.153568469208253       0.154776953485763       0.155985437763273     
  0.157193922040783       0.158402406318293       0.159610890595803     
  0.160819374873313       0.162027859150823       0.163236343428333     
  0.164444827705843       0.165653311983353       0.152344569370119     
  0.153553053647630       0.154761537925139       0.155970022202649     
  0.157178506480159       0.158386990757669       0.159595475035180     
  0.160803959312690       0.162012443590199       0.163220927867710     
  0.164429412145219       0.165637896422729       0.166846380700239     
  0.168054864977750       0.169263349255259       0.170471833532770     
  0.171680317810280       0.172888802087790       0.174097286365300     
  0.175305770642810       0.176514254920320       0.177722739197829     
  0.178931223475340       0.180139707752849       0.181348192030360     
  0.182556676307870       0.169852271789113       0.171060756066622     
  0.172269240344133       0.173477724621643       0.174686208899153     
  0.175894693176663       0.177103177454173       0.178311661731683     
  0.179520146009193       0.180728630286703       0.181937114564213     
  0.183145598841723       0.184354083119233       0.185562567396742     
  0.186771051674253       0.187979535951763       0.189188020229273     
  0.190396504506783       0.191604988784293       0.192813473061803     
  0.194021957339312       0.195230441616823       0.196438925894333     
  0.197647410171843       0.198855894449353       0.200064378726863     
  0.187664750660141       0.188873234937652       0.190081719215162     
  0.191290203492672       0.192498687770182       0.193707172047692     
  0.194915656325202       0.196124140602711       0.197332624880222     
  0.198541109157732       0.199749593435242       0.200958077712752     
  0.202166561990261       0.203375046267772       0.204583530545282     
  0.205792014822792       0.207000499100302       0.208208983377812     
  0.209417467655322       0.210625951932832       0.211834436210342     
  0.213042920487852       0.214251404765362       0.215459889042872     
  0.216668373320382       0.217876857597891       0.205477229531171     
  0.206685713808680       0.207894198086190       0.209102682363700     
  0.210311166641210       0.211519650918720       0.212728135196230     
  0.213936619473740       0.215145103751250       0.216353588028761     
  0.217562072306270       0.218770556583780       0.219979040861291     
  0.221187525138800       0.222396009416310       0.223604493693820     
  0.224812977971331       0.226021462248841       0.227229946526351     
  0.228438430803860       0.229646915081370       0.230855399358881     
  0.232063883636391       0.233272367913901       0.234480852191410     
  0.235689336468921       0.222984931950164       0.224193416227674     
  0.225401900505184       0.226610384782694       0.227818869060204     
  0.229027353337714       0.230235837615224       0.231444321892734     
  0.232652806170244       0.233861290447753       0.235069774725264     
  0.236278259002774       0.237486743280284       0.238695227557793     
  0.239903711835304       0.241112196112814       0.242320680390324     
  0.243529164667834       0.244737648945344       0.245946133222854     
  0.247154617500364       0.248363101777874       0.249571586055384     
  0.250780070332894       0.251988554610404       0.253197038887914     
  0.239888296274680       0.241096780552190       0.242305264829701     
  0.243513749107210       0.244722233384721       0.245930717662231     
  0.247139201939741       0.248347686217251       0.249556170494760     
  0.250764654772271       0.251973139049780       0.253181623327291     
  0.254390107604800       0.255598591882311       0.256807076159820     
  0.258015560437331       0.259224044714841       0.260432528992351     
  0.261641013269861       0.262849497547370       0.264057981824880     
  0.265266466102390       0.266474950379901       0.267683434657411     
  0.268891918934921       0.270100403212430       0.255898101254630     
  0.257106585532141       0.258315069809650       0.259523554087160     
  0.260732038364670       0.261940522642180       0.263149006919690     
  0.264357491197201       0.265565975474710       0.266774459752220     
  0.267982944029731       0.269191428307240       0.270399912584750     
  0.271608396862261       0.272816881139770       0.274025365417280     
  0.275233849694790       0.276442333972300       0.277650818249810     
  0.278859302527321       0.280067786804830       0.281276271082340     
  0.282484755359851       0.283693239637361       0.284901723914871     
  0.286110208192380       0.270740414688049       0.271948898965559     
  0.273157383243070       0.274365867520580       0.275574351798090     
  0.276782836075600       0.277991320353110       0.279199804630619     
  0.280408288908130       0.281616773185639       0.282825257463149     
  0.284033741740660       0.285242226018169       0.286450710295679     
  0.287659194573190       0.288867678850700       0.290076163128210     
  0.291284647405720       0.292493131683229       0.293701615960740     
  0.294910100238250       0.296118584515760       0.297327068793270     
  0.298535553070780       0.299744037348290       0.300952521625800     
  0.284161280477025       0.285369764754535       0.286578249032046     
  0.287786733309555       0.288995217587066       0.290203701864576     
  0.291412186142086       0.292620670419596       0.293829154697106     
  0.295037638974616       0.296246123252126       0.297454607529636     
  0.298663091807146       0.299871576084656       0.301080060362166     
  0.302288544639676       0.303497028917186       0.304705513194696     
  0.305913997472206       0.307122481749716       0.308330966027226     
  0.309539450304736       0.310747934582245       0.311956418859756     
  0.313164903137266       0.314373387414776       0.295931063886943     
  0.297139548164453       0.298348032441963       0.299556516719473     
  0.300765000996982       0.301973485274492       0.303181969552003     
  0.304390453829513       0.305598938107023       0.306807422384533     
  0.308015906662043       0.309224390939553       0.310432875217063     
  0.311641359494573       0.312849843772082       0.314058328049593     
  0.315266812327103       0.316475296604612       0.317683780882123     
  0.318892265159633       0.320100749437142       0.321309233714652     
  0.322517717992163       0.323726202269672       0.324934686547182     
  0.326143170824693       0.305848380660456       0.307056864937966     
  0.308265349215476       0.309473833492987       0.310682317770496     
  0.311890802048006       0.313099286325516       0.314307770603026     
  0.315516254880536       0.316724739158046       0.317933223435556     
  0.319141707713066       0.320350191990576       0.321558676268086     
  0.322767160545597       0.323975644823106       0.325184129100616     
  0.326392613378126       0.327601097655636       0.328809581933147     
  0.330018066210656       0.331226550488166       0.332435034765677     
  0.333643519043186       0.334852003320696       0.336060487598206     
  0.313743542757971       0.314952027035481       0.316160511312991     
  0.317368995590501       0.318577479868011       0.319785964145522     
  0.320994448423032       0.322202932700541       0.323411416978052     
  0.324619901255562       0.325828385533072       0.327036869810582     
  0.328245354088091       0.329453838365602       0.330662322643112     
  0.331870806920621       0.333079291198131       0.334287775475641     
  0.335496259753151       0.336704744030661       0.337913228308172     
  0.339121712585682       0.340330196863192       0.341538681140701     
  0.342747165418212       0.343955649695722       0.319481461767048     
  0.320689946044558       0.321898430322067       0.323106914599578     
  0.324315398877088       0.325523883154598       0.326732367432108     
  0.327940851709618       0.329149335987128       0.330357820264638     
  0.331566304542148       0.332774788819658       0.333983273097168     
  0.335191757374678       0.336400241652188       0.337608725929698     
  0.338817210207208       0.340025694484718       0.341234178762228     
  0.342442663039738       0.343651147317248       0.344859631594758     
  0.346068115872268       0.347276600149778       0.348485084427288     
  0.349693568704798       0.322963960302589       0.324172444580098     
  0.325380928857608       0.326589413135118       0.327797897412628     
  0.329006381690138       0.330214865967649       0.331423350245158     
  0.332631834522668       0.333840318800179       0.335048803077689     
  0.336257287355198       0.337465771632708       0.338674255910218     
  0.339882740187729       0.341091224465238       0.342299708742749     
  0.343508193020259       0.344716677297769       0.345925161575279     
  0.347133645852789       0.348342130130299       0.349550614407808     
  0.350759098685319       0.351967582962828       0.353176067240339     
  0.324131451849119       0.325339936126629       0.326548420404139     
  0.327756904681649       0.328965388959159       0.330173873236669     
  0.331382357514178       0.332590841791689       0.333799326069198     
  0.335007810346709       0.336216294624219       0.337424778901729     
  0.338633263179238       0.339841747456749       0.341050231734259     
  0.342258716011769       0.343467200289279       0.344675684566789     
  0.345884168844300       0.347092653121809       0.348301137399319     
  0.349509621676828       0.350718105954339       0.351926590231849     
  0.353135074509360       0.354343558786869     
  0.111591933984263       0.110377235100068       0.109162536215872     
  0.107947837331676       0.106733138447480       0.105518439563284     
  0.104303740679088       0.103089041794892       0.101874342910696     
  0.100659644026500       9.944494514230463E-002  9.823024625810872E-002
  9.701554737391267E-002  9.580084848971679E-002  9.458614960552092E-002
  9.337145072132506E-002  9.215675183712910E-002  9.094205295293323E-002
  8.972735406873729E-002  8.851265518454143E-002  8.729795630034563E-002
  8.608325741614967E-002  8.486855853195387E-002  8.365385964775778E-002
  8.243916076356191E-002  8.122446187936599E-002  0.112753452444900     
  0.111538753560704       0.110324054676508       0.109109355792312     
  0.107894656908116       0.106679958023921       0.105465259139725     
  0.104250560255529       0.103035861371333       0.101821162487137     
  0.100606463602941       9.939176471874515E-002  9.817706583454924E-002
  9.696236695035330E-002  9.574766806615727E-002  9.453296918196138E-002
  9.331827029776561E-002  9.210357141356967E-002  9.088887252937393E-002
  8.967417364517807E-002  8.845947476098184E-002  8.724477587678607E-002
  8.603007699259015E-002  8.481537810839425E-002  8.360067922419839E-002
  8.238598034000247E-002  0.116218133923914       0.115003435039718     
  0.113788736155522       0.112574037271326       0.111359338387130     
  0.110144639502934       0.108929940618739       0.107715241734543     
  0.106500542850347       0.105285843966151       0.104071145081955     
  0.102856446197759       0.101641747313563       0.100427048429367     
  9.921234954517119E-002  9.799765066097536E-002  9.678295177677938E-002
  9.556825289258354E-002  9.435355400838751E-002  9.313885512419172E-002
  9.192415623999591E-002  9.070945735579972E-002  8.949475847160394E-002
  8.828005958740814E-002  8.706536070321212E-002  8.585066181901634E-002
  0.121926696760608       0.120711997876412       0.119497298992216     
  0.118282600108020       0.117067901223824       0.115853202339629     
  0.114638503455433       0.113423804571237       0.112209105687041     
  0.110994406802845       0.109779707918649       0.108565009034453     
  0.107350310150257       0.106135611266061       0.104920912381866     
  0.103706213497669       0.102491514613474       0.101276815729278     
  0.100062116845082       9.884741796088595E-002  9.763271907669015E-002
  9.641802019249410E-002  9.520332130829842E-002  9.398862242410246E-002
  9.277392353990659E-002  9.155922465571054E-002  0.129781465862134     
  0.128566766977938       0.127352068093743       0.126137369209547     
  0.124922670325351       0.123707971441155       0.122493272556959     
  0.121278573672763       0.120063874788567       0.118849175904371     
  0.117634477020176       0.116419778135980       0.115205079251783     
  0.113990380367588       0.112775681483392       0.111560982599196     
  0.110346283715000       0.109131584830804       0.107916885946608     
  0.106702187062412       0.105487488178217       0.104272789294020     
  0.103058090409825       0.101843391525629       0.100628692641433     
  9.941399375723693E-002  0.139648043951412       0.138433345067216     
  0.137218646183020       0.136003947298824       0.134789248414628     
  0.133574549530432       0.132359850646236       0.131145151762041     
  0.129930452877845       0.128715753993649       0.127501055109453     
  0.126286356225257       0.125071657341061       0.123856958456865     
  0.122642259572669       0.121427560688473       0.120212861804278     
  0.118998162920082       0.117783464035886       0.116568765151690     
  0.115354066267494       0.114139367383298       0.112924668499102     
  0.111709969614906       0.110495270730710       0.109280571846514     
  0.151357611141801       0.150142912257605       0.148928213373409     
  0.147713514489213       0.146498815605017       0.145284116720822     
  0.144069417836626       0.142854718952430       0.141640020068234     
  0.140425321184038       0.139210622299842       0.137995923415646     
  0.136781224531450       0.135566525647255       0.134351826763058     
  0.133137127878863       0.131922428994667       0.130707730110471     
  0.129493031226275       0.128278332342079       0.127063633457883     
  0.125848934573687       0.124634235689491       0.123419536805295     
  0.122204837921100       0.120990139036904       0.164709813492169     
  0.163495114607973       0.162280415723777       0.161065716839582     
  0.159851017955386       0.158636319071190       0.157421620186994     
  0.156206921302798       0.154992222418602       0.153777523534406     
  0.152562824650210       0.151348125766014       0.150133426881818     
  0.148918727997622       0.147704029113427       0.146489330229231     
  0.145274631345035       0.144059932460839       0.142845233576643     
  0.141630534692447       0.140415835808251       0.139201136924055     
  0.137986438039859       0.136771739155664       0.135557040271468     
  0.134342341387272       0.179476191118371       0.178261492234175     
  0.177046793349979       0.175832094465783       0.174617395581587     
  0.173402696697391       0.172187997813196       0.170973298929000     
  0.169758600044804       0.168543901160608       0.167329202276412     
  0.166114503392216       0.164899804508020       0.163685105623824     
  0.162470406739628       0.161255707855432       0.160041008971237     
  0.158826310087041       0.157611611202845       0.156396912318649     
  0.155182213434453       0.153967514550257       0.152752815666061     
  0.151538116781865       0.150323417897669       0.149108719013474     
  0.195404087205209       0.194189388321013       0.192974689436818     
  0.191759990552622       0.190545291668426       0.189330592784230     
  0.188115893900034       0.186901195015838       0.185686496131642     
  0.184471797247447       0.183257098363250       0.182042399479054     
  0.180827700594859       0.179613001710663       0.178398302826467     
  0.177183603942271       0.175968905058075       0.174754206173879     
  0.173539507289683       0.172324808405487       0.171110109521291     
  0.169895410637095       0.168680711752900       0.167466012868703     
  0.166251313984508       0.165036615100312       0.212220971034591     
  0.211006272150395       0.209791573266199       0.208576874382003     
  0.207362175497807       0.206147476613612       0.204932777729416     
  0.203718078845220       0.202503379961024       0.201288681076828     
  0.200073982192632       0.198859283308436       0.197644584424241     
  0.196429885540044       0.195215186655848       0.194000487771653     
  0.192785788887457       0.191571090003261       0.190356391119065     
  0.189141692234869       0.187926993350673       0.186712294466477     
  0.185497595582281       0.184282896698086       0.183068197813889     
  0.181853498929693       0.229639101061674       0.228424402177478     
  0.227209703293283       0.225995004409087       0.224780305524891     
  0.223565606640695       0.222350907756499       0.221136208872304     
  0.219921509988108       0.218706811103911       0.217492112219716     
  0.216277413335520       0.215062714451324       0.213848015567128     
  0.212633316682932       0.211418617798736       0.210203918914540     
  0.208989220030344       0.207774521146148       0.206559822261953     
  0.205345123377756       0.204130424493560       0.202915725609365     
  0.201701026725169       0.200486327840973       0.199271628956777     
  0.247360448252479       0.246145749368283       0.244931050484087     
  0.243716351599891       0.242501652715695       0.241286953831499     
  0.240072254947304       0.238857556063107       0.237642857178912     
  0.236428158294715       0.235213459410519       0.233998760526324     
  0.232784061642128       0.231569362757932       0.230354663873736     
  0.229139964989540       0.227925266105344       0.226710567221148     
  0.225495868336952       0.224281169452756       0.223066470568561     
  0.221851771684364       0.220637072800169       0.219422373915973     
  0.218207675031777       0.216992976147581       0.265081795443283     
  0.263867096559086       0.262652397674891       0.261437698790694     
  0.260222999906499       0.259008301022303       0.257793602138107     
  0.256578903253911       0.255364204369714       0.254149505485520     
  0.252934806601323       0.251720107717127       0.250505408832932     
  0.249290709948735       0.248076011064540       0.246861312180344     
  0.245646613296148       0.244431914411952       0.243217215527756     
  0.242002516643560       0.240787817759364       0.239573118875168     
  0.238358419990973       0.237143721106776       0.235929022222580     
  0.234714323338385       0.282499925470366       0.281285226586170     
  0.280070527701975       0.278855828817778       0.277641129933582     
  0.276426431049387       0.275211732165191       0.273997033280995     
  0.272782334396799       0.271567635512603       0.270352936628407     
  0.269138237744211       0.267923538860015       0.266708839975819     
  0.265494141091623       0.264279442207427       0.263064743323231     
  0.261850044439035       0.260635345554840       0.259420646670644     
  0.258205947786448       0.256991248902252       0.255776550018056     
  0.254561851133860       0.253347152249664       0.252132453365468     
  0.299316809299748       0.298102110415552       0.296887411531356     
  0.295672712647160       0.294458013762964       0.293243314878768     
  0.292028615994572       0.290813917110377       0.289599218226180     
  0.288384519341985       0.287169820457788       0.285955121573592     
  0.284740422689397       0.283525723805201       0.282311024921005     
  0.281096326036809       0.279881627152613       0.278666928268418     
  0.277452229384221       0.276237530500026       0.275022831615829     
  0.273808132731634       0.272593433847438       0.271378734963242     
  0.270164036079046       0.268949337194849       0.315244705386586     
  0.314030006502390       0.312815307618195       0.311600608733998     
  0.310385909849803       0.309171210965607       0.307956512081411     
  0.306741813197214       0.305527114313019       0.304312415428822     
  0.303097716544627       0.301883017660431       0.300668318776235     
  0.299453619892039       0.298238921007844       0.297024222123648     
  0.295809523239452       0.294594824355255       0.293380125471060     
  0.292165426586864       0.290950727702668       0.289736028818472     
  0.288521329934276       0.287306631050080       0.286091932165884     
  0.284877233281688       0.330011083012788       0.328796384128592     
  0.327581685244397       0.326366986360200       0.325152287476004     
  0.323937588591809       0.322722889707612       0.321508190823416     
  0.320293491939220       0.319078793055025       0.317864094170829     
  0.316649395286633       0.315434696402437       0.314219997518241     
  0.313005298634045       0.311790599749850       0.310575900865653     
  0.309361201981458       0.308146503097262       0.306931804213066     
  0.305717105328870       0.304502406444674       0.303287707560478     
  0.302073008676282       0.300858309792086       0.299643610907890     
  0.343363285363155       0.342148586478960       0.340933887594765     
  0.339719188710568       0.338504489826373       0.337289790942176     
  0.336075092057980       0.334860393173785       0.333645694289589     
  0.332430995405393       0.331216296521197       0.330001597637001     
  0.328786898752805       0.327572199868609       0.326357500984413     
  0.325142802100217       0.323928103216021       0.322713404331826     
  0.321498705447630       0.320284006563433       0.319069307679238     
  0.317854608795042       0.316639909910846       0.315425211026651     
  0.314210512142454       0.312995813258258       0.355072852553545     
  0.353858153669350       0.352643454785153       0.351428755900958     
  0.350214057016761       0.348999358132565       0.347784659248369     
  0.346569960364173       0.345355261479978       0.344140562595782     
  0.342925863711586       0.341711164827390       0.340496465943194     
  0.339281767058998       0.338067068174802       0.336852369290606     
  0.335637670406410       0.334422971522215       0.333208272638019     
  0.331993573753823       0.330778874869627       0.329564175985430     
  0.328349477101236       0.327134778217039       0.325920079332843     
  0.324705380448647       0.364939430642823       0.363724731758627     
  0.362510032874431       0.361295333990234       0.360080635106039     
  0.358865936221843       0.357651237337647       0.356436538453451     
  0.355221839569255       0.354007140685059       0.352792441800864     
  0.351577742916667       0.350363044032472       0.349148345148276     
  0.347933646264080       0.346718947379884       0.345504248495688     
  0.344289549611492       0.343074850727296       0.341860151843101     
  0.340645452958904       0.339430754074709       0.338216055190513     
  0.337001356306317       0.335786657422121       0.334571958537925     
  0.372794199744348       0.371579500860153       0.370364801975957     
  0.369150103091762       0.367935404207566       0.366720705323370     
  0.365506006439173       0.364291307554977       0.363076608670781     
  0.361861909786586       0.360647210902390       0.359432512018194     
  0.358217813133998       0.357003114249802       0.355788415365606     
  0.354573716481411       0.353359017597215       0.352144318713018     
  0.350929619828823       0.349714920944627       0.348500222060431     
  0.347285523176235       0.346070824292040       0.344856125407843     
  0.343641426523647       0.342426727639452       0.378502762581043     
  0.377288063696847       0.376073364812651       0.374858665928456     