 Title = "Wing and Wake"
 VARIABLES = "X" "Y" "Z" "GAM"
 Zone I=   26 J=   25 K=1  T="Blade"
 DATAPACKING=BLOCK
 VARLOCATION=([4]=CELLCENTERED)
  0.122238480576972       0.121791050191009       0.121343619805045     
  0.120896189419082       0.120448759033118       0.120001328647154     
  0.119553898261191       0.119106467875227       0.118659037489264     
  0.118211607103300       0.117764176717337       0.117316746331374     
  0.116869315945410       0.116421885559446       0.115974455173483     
  0.115527024787519       0.115079594401556       0.114632164015592     
  0.114184733629629       0.113737303243665       0.113289872857702     
  0.112842442471738       0.112395012085775       0.111947581699811     
  0.111500151313847       0.111052720927884       0.123828205637361     
  0.123380775251398       0.122933344865435       0.122485914479471     
  0.122038484093507       0.121591053707544       0.121143623321581     
  0.120696192935617       0.120248762549653       0.119801332163690     
  0.119353901777726       0.118906471391763       0.118459041005799     
  0.118011610619836       0.117564180233872       0.117116749847908     
  0.116669319461945       0.116221889075982       0.115774458690018     
  0.115327028304055       0.114879597918091       0.114432167532128     
  0.113984737146164       0.113537306760200       0.113089876374237     
  0.112642445988273       0.128570180181992       0.128122749796028     
  0.127675319410064       0.127227889024101       0.126780458638138     
  0.126333028252174       0.125885597866210       0.125438167480247     
  0.124990737094283       0.124543306708320       0.124095876322356     
  0.123648445936393       0.123201015550429       0.122753585164466     
  0.122306154778502       0.121858724392539       0.121411294006575     
  0.120963863620611       0.120516433234648       0.120069002848685     
  0.119621572462721       0.119174142076757       0.118726711690794     
  0.118279281304830       0.117831850918867       0.117384420532903     
  0.136383267711680       0.135935837325716       0.135488406939753     
  0.135040976553789       0.134593546167825       0.134146115781862     
  0.133698685395898       0.133251255009935       0.132803824623972     
  0.132356394238008       0.131908963852044       0.131461533466081     
  0.131014103080117       0.130566672694154       0.130119242308190     
  0.129671811922227       0.129224381536263       0.128776951150300     
  0.128329520764336       0.127882090378373       0.127434659992409     
  0.126987229606445       0.126539799220482       0.126092368834519     
  0.125644938448555       0.125197508062591       0.147133784132596     
  0.146686353746632       0.146238923360669       0.145791492974705     
  0.145344062588742       0.144896632202778       0.144449201816815     
  0.144001771430851       0.143554341044888       0.143106910658924     
  0.142659480272961       0.142212049886998       0.141764619501034     
  0.141317189115070       0.140869758729106       0.140422328343143     
  0.139974897957180       0.139527467571216       0.139080037185252     
  0.138632606799289       0.138185176413326       0.137737746027362     
  0.137290315641399       0.136842885255435       0.136395454869472     
  0.135948024483508       0.160637785128172       0.160190354742209     
  0.159742924356245       0.159295493970281       0.158848063584318     
  0.158400633198355       0.157953202812391       0.157505772426428     
  0.157058342040464       0.156610911654501       0.156163481268537     
  0.155716050882574       0.155268620496611       0.154821190110647     
  0.154373759724683       0.153926329338720       0.153478898952756     
  0.153031468566792       0.152584038180829       0.152136607794865     
  0.151689177408902       0.151241747022938       0.150794316636975     
  0.150346886251011       0.149899455865048       0.149452025479084     
  0.176664213497358       0.176216783111395       0.175769352725431     
  0.175321922339467       0.174874491953504       0.174427061567541     
  0.173979631181577       0.173532200795614       0.173084770409650     
  0.172637340023686       0.172189909637723       0.171742479251759     
  0.171295048865796       0.170847618479833       0.170400188093869     
  0.169952757707905       0.169505327321941       0.169057896935978     
  0.168610466550014       0.168163036164051       0.167715605778087     
  0.167268175392124       0.166820745006160       0.166373314620197     
  0.165925884234234       0.165478453848270       0.194938852607391     
  0.194491422221428       0.194043991835464       0.193596561449500     
  0.193149131063537       0.192701700677573       0.192254270291609     
  0.191806839905646       0.191359409519683       0.190911979133719     
  0.190464548747755       0.190017118361792       0.189569687975828     
  0.189122257589865       0.188674827203902       0.188227396817938     
  0.187779966431975       0.187332536046011       0.186885105660047     
  0.186437675274084       0.185990244888121       0.185542814502157     
  0.185095384116193       0.184647953730230       0.184200523344266     
  0.183753092958303       0.215149018316411       0.214701587930447     
  0.214254157544484       0.213806727158520       0.213359296772557     
  0.212911866386593       0.212464436000630       0.212017005614666     
  0.211569575228703       0.211122144842739       0.210674714456776     
  0.210227284070812       0.209779853684849       0.209332423298885     
  0.208884992912921       0.208437562526958       0.207990132140994     
  0.207542701755031       0.207095271369067       0.206647840983104     
  0.206200410597140       0.205752980211177       0.205305549825213     
  0.204858119439250       0.204410689053286       0.203963258667323     
  0.236948909085820       0.236501478699857       0.236054048313894     
  0.235606617927930       0.235159187541966       0.234711757156003     
  0.234264326770039       0.233816896384075       0.233369465998112     
  0.232922035612149       0.232474605226185       0.232027174840221     
  0.231579744454258       0.231132314068295       0.230684883682331     
  0.230237453296368       0.229790022910404       0.229342592524441     
  0.228895162138477       0.228447731752513       0.228000301366550     
  0.227552870980586       0.227105440594623       0.226658010208659     
  0.226210579822695       0.225763149436732       0.259965522740483     
  0.259518092354520       0.259070661968556       0.258623231582593     
  0.258175801196628       0.257728370810666       0.257280940424702     
  0.256833510038738       0.256386079652774       0.255938649266812     
  0.255491218880848       0.255043788494884       0.254596358108921     
  0.254148927722957       0.253701497336994       0.253254066951031     
  0.252806636565066       0.252359206179103       0.251911775793139     
  0.251464345407176       0.251016915021213       0.250569484635249     
  0.250122054249285       0.249674623863322       0.249227193477358     
  0.248779763091394       0.283805038639357       0.283357608253393     
  0.282910177867429       0.282462747481466       0.282015317095503     
  0.281567886709539       0.281120456323575       0.280673025937613     
  0.280225595551649       0.279778165165685       0.279330734779722     
  0.278883304393758       0.278435874007794       0.277988443621831     
  0.277541013235867       0.277093582849903       0.276646152463940     
  0.276198722077977       0.275751291692014       0.275303861306050     
  0.274856430920086       0.274409000534122       0.273961570148160     
  0.273514139762196       0.273066709376233       0.272619278990269     
  0.308059556055850       0.307612125669887       0.307164695283922     
  0.306717264897959       0.306269834511996       0.305822404126032     
  0.305374973740069       0.304927543354104       0.304480112968142     
  0.304032682582178       0.303585252196215       0.303137821810251     
  0.302690391424287       0.302242961038324       0.301795530652360     
  0.301348100266396       0.300900669880433       0.300453239494470     
  0.300005809108506       0.299558378722542       0.299110948336579     
  0.298663517950615       0.298216087564652       0.297768657178689     
  0.297321226792725       0.296873796406761       0.332314073472342     
  0.331866643086378       0.331419212700415       0.330971782314452     
  0.330524351928488       0.330076921542524       0.329629491156561     
  0.329182060770598       0.328734630384633       0.328287199998671     
  0.327839769612707       0.327392339226744       0.326944908840780     
  0.326497478454816       0.326050048068853       0.325602617682889     
  0.325155187296925       0.324707756910963       0.324260326524999     
  0.323812896139035       0.323365465753071       0.322918035367108     
  0.322470604981146       0.322023174595181       0.321575744209217     
  0.321128313823254       0.356153589371216       0.355706158985252     
  0.355258728599289       0.354811298213325       0.354363867827362     
  0.353916437441399       0.353469007055435       0.353021576669472     
  0.352574146283508       0.352126715897544       0.351679285511581     
  0.351231855125617       0.350784424739653       0.350336994353690     
  0.349889563967727       0.349442133581763       0.348994703195799     
  0.348547272809836       0.348099842423873       0.347652412037909     
  0.347204981651945       0.346757551265982       0.346310120880019     
  0.345862690494055       0.345415260108092       0.344967829722127     
  0.379170203025879       0.378722772639915       0.378275342253952     
  0.377827911867989       0.377380481482025       0.376933051096061     
  0.376485620710098       0.376038190324134       0.375590759938171     
  0.375143329552207       0.374695899166243       0.374248468780280     
  0.373801038394317       0.373353608008354       0.372906177622389     
  0.372458747236425       0.372011316850462       0.371563886464500     
  0.371116456078536       0.370669025692572       0.370221595306608     
  0.369774164920645       0.369326734534680       0.368879304148718     
  0.368431873762754       0.367984443376790       0.400970093795288     
  0.400522663409325       0.400075233023362       0.399627802637397     
  0.399180372251434       0.398732941865471       0.398285511479507     
  0.397838081093543       0.397390650707580       0.396943220321616     
  0.396495789935654       0.396048359549689       0.395600929163726     
  0.395153498777763       0.394706068391799       0.394258638005835     
  0.393811207619872       0.393363777233908       0.392916346847945     
  0.392468916461981       0.392021486076018       0.391574055690054     
  0.391126625304091       0.390679194918127       0.390231764532164     
  0.389784334146200       0.421180259504308       0.420732829118345     
  0.420285398732382       0.419837968346418       0.419390537960454     
  0.418943107574491       0.418495677188527       0.418048246802563     
  0.417600816416600       0.417153386030636       0.416705955644673     
  0.416258525258710       0.415811094872745       0.415363664486782     
  0.414916234100819       0.414468803714856       0.414021373328892     
  0.413573942942929       0.413126512556966       0.412679082171001     
  0.412231651785038       0.411784221399074       0.411336791013111     
  0.410889360627147       0.410441930241184       0.409994499855220     
  0.439454898614341       0.439007468228377       0.438560037842415     
  0.438112607456450       0.437665177070488       0.437217746684523     
  0.436770316298561       0.436322885912597       0.435875455526633     
  0.435428025140669       0.434980594754706       0.434533164368742     
  0.434085733982779       0.433638303596815       0.433190873210852     
  0.432743442824888       0.432296012438925       0.431848582052961     
  0.431401151666998       0.430953721281035       0.430506290895071     
  0.430058860509107       0.429611430123143       0.429163999737180     
  0.428716569351216       0.428269138965253       0.455481326983528     
  0.455033896597564       0.454586466211600       0.454139035825637     
  0.453691605439672       0.453244175053709       0.452796744667745     
  0.452349314281782       0.451901883895818       0.451454453509855     
  0.451007023123891       0.450559592737928       0.450112162351965     
  0.449664731966001       0.449217301580037       0.448769871194074     
  0.448322440808111       0.447875010422147       0.447427580036184     
  0.446980149650220       0.446532719264256       0.446085288878292     
  0.445637858492329       0.445190428106365       0.444742997720401     
  0.444295567334438       0.468985327979103       0.468537897593140     
  0.468090467207176       0.467643036821212       0.467195606435249     
  0.466748176049285       0.466300745663322       0.465853315277358     
  0.465405884891395       0.464958454505431       0.464511024119468     
  0.464063593733504       0.463616163347541       0.463168732961577     
  0.462721302575614       0.462273872189650       0.461826441803686     
  0.461379011417723       0.460931581031759       0.460484150645797     
  0.460036720259832       0.459589289873869       0.459141859487905     
  0.458694429101942       0.458246998715979       0.457799568330015     
  0.479735844400019       0.479288414014056       0.478840983628092     
  0.478393553242130       0.477946122856165       0.477498692470203     
  0.477051262084238       0.476603831698274       0.476156401312311     
  0.475708970926348       0.475261540540385       0.474814110154421     
  0.474366679768457       0.473919249382494       0.473471818996530     
  0.473024388610566       0.472576958224603       0.472129527838639     
  0.471682097452676       0.471234667066712       0.470787236680749     
  0.470339806294786       0.469892375908822       0.469444945522858     
  0.468997515136894       0.468550084750932       0.487548931929708     
  0.487101501543744       0.486654071157780       0.486206640771817     
  0.485759210385854       0.485311779999890       0.484864349613926     
  0.484416919227963       0.483969488841999       0.483522058456035     
  0.483074628070072       0.482627197684109       0.482179767298146     
  0.481732336912182       0.481284906526218       0.480837476140254     
  0.480390045754291       0.479942615368327       0.479495184982364     
  0.479047754596400       0.478600324210437       0.478152893824474     
  0.477705463438510       0.477258033052547       0.476810602666583     
  0.476363172280620       0.492290906474338       0.491843476088374     
  0.491396045702411       0.490948615316447       0.490501184930484     
  0.490053754544520       0.489606324158556       0.489158893772593     
  0.488711463386629       0.488264033000666       0.487816602614703     
  0.487369172228739       0.486921741842775       0.486474311456811     
  0.486026881070848       0.485579450684884       0.485132020298922     
  0.484684589912957       0.484237159526994       0.483789729141031     
  0.483342298755067       0.482894868369104       0.482447437983140     
  0.482000007597177       0.481552577211213       0.481105146825250     
  0.493880631534726       0.493433201148765       0.492985770762800     
  0.492538340376836       0.492090909990874       0.491643479604909     
  0.491196049218945       0.490748618832981       0.490301188447018     
  0.489853758061055       0.489406327675091       0.488958897289129     
  0.488511466903164       0.488064036517202       0.487616606131238     
  0.487169175745274       0.486721745359309       0.486274314973347     
  0.485826884587384       0.485379454201420       0.484932023815456     
  0.484484593429493       0.484037163043529       0.483589732657566     
  0.483142302271603       0.482694871885639     
  1.147840869778050E-002  9.824403353782943E-003  8.170398009785513E-003
  6.516392665788107E-003  4.862387321790519E-003  3.208381977793029E-003
  1.554376633795553E-003 -9.962871020179630E-005 -1.753634054199267E-003
 -3.407639398196742E-003 -5.061644742194288E-003 -6.715650086191725E-003
 -8.369655430189081E-003 -1.002366077418677E-002 -1.167766611818410E-002
 -1.333167146218167E-002 -1.498567680617924E-002 -1.663968215017660E-002
 -1.829368749417407E-002 -1.994769283817151E-002 -2.160169818216903E-002
 -2.325570352616656E-002 -2.490970887016397E-002 -2.656371421416155E-002
 -2.821771955815894E-002 -2.987172490215637E-002  1.104836698121211E-002
  9.394361637214708E-003  7.740356293217029E-003  6.086350949219770E-003
  4.432345605222077E-003  2.778340261224699E-003  1.124334917227290E-003
 -5.296704267703781E-004 -2.183675770767572E-003 -3.837681114765149E-003
 -5.491686458762632E-003 -7.145691802760197E-003 -8.799697146757695E-003
 -1.045370249075507E-002 -1.210770783475254E-002 -1.376171317875004E-002
 -1.541571852274741E-002 -1.706972386674490E-002 -1.872372921074233E-002
 -2.037773455473988E-002 -2.203173989873744E-002 -2.368574524273482E-002
 -2.533975058673242E-002 -2.699375593072980E-002 -2.864776127472715E-002
 -3.030176661872480E-002  9.765599964507590E-003  8.111594620510077E-003
  6.457589276512563E-003  4.803583932515090E-003  3.149578588517539E-003
  1.495573244520287E-003 -1.584320994771198E-004 -1.812437443474724E-003
 -3.466442787472259E-003 -5.120448131469668E-003 -6.774453475467180E-003
 -8.428458819464753E-003 -1.008246416346207E-002 -1.173646950745948E-002
 -1.339047485145712E-002 -1.504448019545454E-002 -1.669848553945201E-002
 -1.835249088344964E-002 -2.000649622744693E-002 -2.166050157144435E-002
 -2.331450691544174E-002 -2.496851225943940E-002 -2.662251760343690E-002
 -2.827652294743442E-002 -2.993052829143161E-002 -3.158453363542941E-002
  7.652056146972887E-003  5.998050802975287E-003  4.344045458977923E-003
  2.690040114980388E-003  1.036034770982958E-003 -6.179705730144576E-004
 -2.271975917011994E-003 -3.925981261009593E-003 -5.579986605006865E-003
 -7.233991949004491E-003 -8.887997293001921E-003 -1.054200263699944E-002
 -1.219600798099690E-002 -1.385001332499423E-002 -1.550401866899182E-002
 -1.715802401298916E-002 -1.881202935698680E-002 -2.046603470098424E-002
 -2.212004004498174E-002 -2.377404538897921E-002 -2.542805073297647E-002
 -2.708205607697405E-002 -2.873606142097158E-002 -3.039006676496905E-002
 -3.204407210896647E-002 -3.369807745296392E-002  4.743898849311088E-003
  3.089893505313772E-003  1.435888161316218E-003 -2.181171826810955E-004
 -1.872122526678759E-003 -3.526127870676269E-003 -5.180133214673696E-003
 -6.834138558671211E-003 -8.488143902668752E-003 -1.014214924666616E-002
 -1.179615459066362E-002 -1.345015993466130E-002 -1.510416527865850E-002
 -1.675817062265623E-002 -1.841217596665377E-002 -2.006618131065097E-002
 -2.172018665464861E-002 -2.337419199864602E-002 -2.502819734264328E-002
 -2.668220268664104E-002 -2.833620803063847E-002 -2.999021337463571E-002
 -3.164421871863327E-002 -3.329822406263074E-002 -3.495222940662840E-002
 -3.660623475062583E-002  1.090887449178697E-003 -5.631178948188759E-004
 -2.217123238816210E-003 -3.871128582813558E-003 -5.525133926811002E-003
 -7.179139270808524E-003 -8.833144614806136E-003 -1.048714995880354E-002
 -1.214115530280080E-002 -1.379516064679846E-002 -1.544916599079598E-002
 -1.710317133479344E-002 -1.875717667879099E-002 -2.041118202278834E-002
 -2.206518736678577E-002 -2.371919271078348E-002 -2.537319805478094E-002
 -2.702720339877823E-002 -2.868120874277588E-002 -3.033521408677298E-002
 -3.198921943077086E-002 -3.364322477476812E-002 -3.529723011876563E-002
 -3.695123546276315E-002 -3.860524080676054E-002 -4.025924615075830E-002
 -3.244474015561838E-003 -4.898479359559421E-003 -6.552484703556839E-003
 -8.206490047554289E-003 -9.860495391551555E-003 -1.151450073554908E-002
 -1.316850607954661E-002 -1.482251142354436E-002 -1.647651676754169E-002
 -1.813052211153906E-002 -1.978452745553675E-002 -2.143853279953399E-002
 -2.309253814353139E-002 -2.474654348752908E-002 -2.640054883152661E-002
 -2.805455417552411E-002 -2.970855951952135E-002 -3.136256486351905E-002
 -3.301657020751626E-002 -3.467057555151395E-002 -3.632458089551146E-002
 -3.797858623950871E-002 -3.963259158350620E-002 -4.128659692750358E-002
 -4.294060227150119E-002 -4.459460761549860E-002 -8.188006308259471E-003
 -9.842011652257119E-003 -1.149601699625459E-002 -1.315002234025204E-002
 -1.480402768424955E-002 -1.645803302824717E-002 -1.811203837224420E-002
 -1.976604371624202E-002 -2.142004906023933E-002 -2.307405440423660E-002
 -2.472805974823419E-002 -2.638206509223151E-002 -2.803607043622890E-002
 -2.969007578022678E-002 -3.134408112422422E-002 -3.299808646822151E-002
 -3.465209181221917E-002 -3.630609715621683E-002 -3.796010250021400E-002
 -3.961410784421156E-002 -4.126811318820903E-002 -4.292211853220666E-002
 -4.457612387620384E-002 -4.623012922020162E-002 -4.788413456419897E-002
 -4.953813990819653E-002 -1.365512422078023E-002 -1.530912956477766E-002
 -1.696313490877536E-002 -1.861714025277271E-002 -2.027114559677014E-002
 -2.192515094076815E-002 -2.357915628476496E-002 -2.523316162876270E-002
 -2.688716697275994E-002 -2.854117231675755E-002 -3.019517766075505E-002
 -3.184918300475244E-002 -3.350318834874988E-002 -3.515719369274749E-002
 -3.681119903674492E-002 -3.846520438074243E-002 -4.011920972473972E-002
 -4.177321506873750E-002 -4.342722041273478E-002 -4.508122575673253E-002
 -4.673523110072960E-002 -4.838923644472724E-002 -5.004324178872462E-002
 -5.169724713272224E-002 -5.335125247671946E-002 -5.500525782071744E-002
 -1.955228384986938E-002 -2.120628919386746E-002 -2.286029453786450E-002
 -2.451429988186205E-002 -2.616830522585929E-002 -2.782231056985671E-002
 -2.947631591385473E-002 -3.113032125785163E-002 -3.278432660184943E-002
 -3.443833194584674E-002 -3.609233728984415E-002 -3.774634263384216E-002
 -3.940034797783919E-002 -4.105435332183684E-002 -4.270835866583388E-002
 -4.436236400983180E-002 -4.601636935382917E-002 -4.767037469782693E-002
 -4.932438004182409E-002 -5.097838538582188E-002 -5.263239072981885E-002
 -5.428639607381643E-002 -5.594040141781390E-002 -5.759440676181148E-002
 -5.924841210580861E-002 -6.090241744980648E-002 -2.577858315927161E-002
 -2.743258850326952E-002 -2.908659384726659E-002 -3.074059919126421E-002
 -3.239460453526170E-002 -3.404860987925908E-002 -3.570261522325630E-002
 -3.735662056725413E-002 -3.901062591125155E-002 -4.066463125524893E-002
 -4.231863659924643E-002 -4.397264194324398E-002 -4.562664728724142E-002
 -4.728065263123891E-002 -4.893465797523636E-002 -5.058866331923398E-002
 -5.224266866323141E-002 -5.389667400722872E-002 -5.555067935122679E-002
 -5.720468469522390E-002 -5.885869003922144E-002 -6.051269538321858E-002
 -6.216670072721606E-002 -6.382070607121364E-002 -6.547471141521104E-002
 -6.712871675920853E-002 -3.222748844154730E-002 -3.388149378554402E-002
 -3.553549912954187E-002 -3.718950447353925E-002 -3.884350981753684E-002
 -4.049751516153421E-002 -4.215152050553187E-002 -4.380552584952952E-002
 -4.545953119352677E-002 -4.711353653752450E-002 -4.876754188152191E-002
 -5.042154722551958E-002 -5.207555256951651E-002 -5.372955791351380E-002
 -5.538356325751170E-002 -5.703756860150928E-002 -5.869157394550666E-002
 -6.034557928950413E-002 -6.199958463350179E-002 -6.365358997749898E-002
 -6.530759532149616E-002 -6.696160066549392E-002 -6.861560600949175E-002
 -7.026961135348903E-002 -7.192361669748644E-002 -7.357762204148359E-002
 -3.878865713934107E-002 -4.044266248333863E-002 -4.209666782733597E-002
 -4.375067317133356E-002 -4.540467851533109E-002 -4.705868385932852E-002
 -4.871268920332586E-002 -5.036669454732319E-002 -5.202069989132117E-002
 -5.367470523531882E-002 -5.532871057931633E-002 -5.698271592331352E-002
 -5.863672126731061E-002 -6.029072661130842E-002 -6.194473195530573E-002
 -6.359873729930300E-002 -6.525274264330042E-002 -6.690674798729820E-002
 -6.856075333129596E-002 -7.021475867529321E-002 -7.186876401929071E-002
 -7.352276936328854E-002 -7.517677470728579E-002 -7.683078005128276E-002
 -7.848478539528082E-002 -8.013879073927732E-002 -4.534982583713553E-002
 -4.700383118113272E-002 -4.865783652512978E-002 -5.031184186912835E-002
 -5.196584721312522E-002 -5.361985255712229E-002 -5.527385790111992E-002
 -5.692786324511726E-002 -5.858186858911495E-002 -6.023587393311280E-002
 -6.188987927710977E-002 -6.354388462110740E-002 -6.519788996510469E-002
 -6.685189530910225E-002 -6.850590065310003E-002 -7.015990599709743E-002
 -7.181391134109480E-002 -7.346791668509245E-002 -7.512192202908965E-002
 -7.677592737308696E-002 -7.842993271708434E-002 -8.008393806108269E-002
 -8.173794340507988E-002 -8.339194874907743E-002 -8.504595409307453E-002
 -8.669995943707207E-002 -5.179873111941057E-002 -5.345273646340799E-002
 -5.510674180740552E-002 -5.676074715140299E-002 -5.841475249540022E-002
 -6.006875783939802E-002 -6.172276318339542E-002 -6.337676852739289E-002
 -6.503077387139033E-002 -6.668477921538739E-002 -6.833878455938547E-002
 -6.999278990338288E-002 -7.164679524738052E-002 -7.330080059137731E-002
 -7.495480593537575E-002 -7.660881127937275E-002 -7.826281662336972E-002
 -7.991682196736777E-002 -8.157082731136532E-002 -8.322483265536249E-002
 -8.487883799935991E-002 -8.653284334335759E-002 -8.818684868735477E-002
 -8.984085403135197E-002 -9.149485937534999E-002 -9.314886471934694E-002
 -5.802503042881284E-002 -5.967903577281015E-002 -6.133304111680739E-002
 -6.298704646080514E-002 -6.464105180480294E-002 -6.629505714879992E-002
 -6.794906249279763E-002 -6.960306783679490E-002 -7.125707318079248E-002
 -7.291107852479028E-002 -7.456508386878725E-002 -7.621908921278550E-002
 -7.787309455678280E-002 -7.952709990078061E-002 -8.118110524477727E-002
 -8.283511058877498E-002 -8.448911593277217E-002 -8.614312127676982E-002
 -8.779712662076775E-002 -8.945113196476434E-002 -9.110513730876237E-002
 -9.275914265275989E-002 -9.441314799675715E-002 -9.606715334075470E-002
 -9.772115868475229E-002 -9.937516402874974E-002 -6.392219005790221E-002
 -6.557619540189968E-002 -6.723020074589631E-002 -6.888420608989439E-002
 -7.053821143389181E-002 -7.219221677788916E-002 -7.384622212188698E-002
 -7.550022746588492E-002 -7.715423280988208E-002 -7.880823815387909E-002
 -8.046224349787699E-002 -8.211624884187389E-002 -8.377025418587128E-002
 -8.542425952986955E-002 -8.707826487386645E-002 -8.873227021786352E-002
 -9.038627556186106E-002 -9.204028090585860E-002 -9.369428624985592E-002
 -9.534829159385404E-002 -9.700229693785115E-002 -9.865630228184864E-002
 -0.100310307625847      -0.101964312969844      -0.103618318313842     
 -0.105272323657839      -6.938930797042256E-002 -7.104331331442008E-002
 -7.269731865841746E-002 -7.435132400241573E-002 -7.600532934641270E-002
 -7.765933469040991E-002 -7.931334003440781E-002 -8.096734537840455E-002
 -8.262135072240248E-002 -8.427535606639934E-002 -8.592936141039745E-002
 -8.758336675439549E-002 -8.923737209839222E-002 -9.089137744239016E-002
 -9.254538278638777E-002 -9.419938813038488E-002 -9.585339347438221E-002
 -9.750739881838046E-002 -9.916140416237675E-002 -0.100815409506375     
 -0.102469414850372      -0.104123420194370      -0.105777425538367     
 -0.107431430882365      -0.109085436226362      -0.110739441570360     
 -7.433284026312070E-002 -7.598684560711771E-002 -7.764085095111500E-002
 -7.929485629511235E-002 -8.094886163911087E-002 -8.260286698310794E-002
 -8.425687232710505E-002 -8.591087767110329E-002 -8.756488301510033E-002
 -8.921888835909765E-002 -9.087289370309500E-002 -9.252689904709303E-002
 -9.418090439108988E-002 -9.583490973508775E-002 -9.748891507908510E-002
 -9.914292042308259E-002 -0.100796925767080      -0.102450931111078     
 -0.104104936455075      -0.105758941799073      -0.107412947143070     
 -0.109066952487068      -0.110720957831064      -0.112374963175062     
 -0.114028968519060      -0.115682973863057      -7.866820172786167E-002
 -8.032220707185821E-002 -8.197621241585641E-002 -8.363021775985319E-002
 -8.528422310385088E-002 -8.693822844784845E-002 -8.859223379184621E-002
 -9.024623913584345E-002 -9.190024447984121E-002 -9.355424982383836E-002
 -9.520825516783553E-002 -9.686226051183337E-002 -9.851626585583112E-002
 -0.100170271199829      -0.101824276543825      -0.103478281887823     
 -0.105132287231822      -0.106786292575818      -0.108440297919816     
 -0.110094303263813      -0.111748308607811      -0.113402313951808     
 -0.115056319295805      -0.116710324639802      -0.118364329983800     
 -0.120018335327798      -8.232121312799351E-002 -8.397521847199085E-002
 -8.562922381598799E-002 -8.728322915998668E-002 -8.893723450398403E-002
 -9.059123984798101E-002 -9.224524519197731E-002 -9.389925053597588E-002
 -9.555325587997271E-002 -9.720726122397065E-002 -9.886126656796801E-002
 -0.100515271911965      -0.102169277255963      -0.103823282599961     
 -0.105477287943958      -0.107131293287955      -0.108785298631953     
 -0.110439303975950      -0.112093309319948      -0.113747314663947     
 -0.115401320007943      -0.117055325351941      -0.118709330695938     
 -0.120363336039936      -0.122017341383933      -0.123671346727930     
 -8.522937042565536E-002 -8.688337576965247E-002 -8.853738111364989E-002
 -9.019138645764734E-002 -9.184539180164490E-002 -9.349939714564288E-002
 -9.515340248964070E-002 -9.680740783363770E-002 -9.846141317763529E-002
 -0.100115418521633      -0.101769423865630      -0.103423429209627     
 -0.105077434553625      -0.106731439897623      -0.108385445241620     
 -0.110039450585617      -0.111693455929615      -0.113347461273612     
 -0.115001466617609      -0.116655471961607      -0.118309477305605     
 -0.119963482649603      -0.121617487993600      -0.123271493337597     
 -0.124925498681595      -0.126579504025592      -8.734291424319023E-002
 -8.899691958718750E-002 -9.065092493118422E-002 -9.230493027518218E-002