 Title = "Wing and Wake"
 VARIABLES = "X" "Y" "Z" "GAM" "skew"
 Zone I=   17 J=   20 K=1  T="Blade 01"
 DATAPACKING=BLOCK
 VARLOCATION=([4]=CELLCENTERED,[5]=CELLCENTERED)
 -0.221663389895089      -0.222945346372700      -0.226247273857757     
 -0.231211479631006      -0.237987540569030      -0.246850225223239     
 -0.257876833540091      -0.270737092178080      -0.284664269726169     
 -0.298568610849387      -0.311369581437880      -0.322310953790681     
 -0.331067286214961      -0.337733685419691      -0.342607807512594     
 -0.346067152300400      -0.348454094645645      -0.227471095821214     
 -0.228753052298826      -0.232054979783882      -0.237019185557132     
 -0.243795246495155      -0.252657931149364      -0.263684539466217     
 -0.276544798104206      -0.290471975652295      -0.304376316775512     
 -0.317177287364006      -0.328118659716807      -0.336874992141087     
 -0.343541391345816      -0.348415513438719      -0.351874858226525     
 -0.354261800571770      -0.235684515813589      -0.236966472291200     
 -0.240268399776257      -0.245232605549507      -0.252008666487530     
 -0.260871351141738      -0.271897959458591      -0.284758218096579     
 -0.298685395644670      -0.312589736767887      -0.325390707356380     
 -0.336332079709182      -0.345088412133461      -0.351754811338190     
 -0.356628933431094      -0.360088278218900      -0.362475220564145     
 -0.247150746589873      -0.248432703067484      -0.251734630552541     
 -0.256698836325790      -0.263474897263815      -0.272337581918022     
 -0.283364190234876      -0.296224448872864      -0.310151626420954     
 -0.324055967544171      -0.336856938132664      -0.347798310485466     
 -0.356554642909745      -0.363221042114475      -0.368095164207378     
 -0.371554508995184      -0.373941451340429      -0.262872225416432     
 -0.264154181894044      -0.267456109379100      -0.272420315152350     
 -0.279196376090374      -0.288059060744582      -0.299085669061435     
 -0.311945927699423      -0.325873105247514      -0.339777446370730     
 -0.352578416959223      -0.363519789312025      -0.372276121736305     
 -0.378942520941035      -0.383816643033937      -0.387275987821744     
 -0.389662930166988      -0.283903846607670      -0.285185803085280     
 -0.288487730570337      -0.293451936343587      -0.300227997281610     
 -0.309090681935819      -0.320117290252672      -0.332977548890660     
 -0.346904726438749      -0.360809067561967      -0.373610038150461     
 -0.384551410503262      -0.393307742927541      -0.399974142132270     
 -0.404848264225173      -0.408307609012980      -0.410694551358226     
 -0.311131152820968      -0.312413109298577      -0.315715036783634     
 -0.320679242556884      -0.327455303494908      -0.336317988149117     
 -0.347344596465968      -0.360204855103957      -0.374132032652046     
 -0.388036373775264      -0.400837344363758      -0.411778716716559     
 -0.420535049140839      -0.427201448345569      -0.432075570438472     
 -0.435534915226277      -0.437921857571522      -0.344920598840937     
 -0.346202555318548      -0.349504482803606      -0.354468688576854     
 -0.361244749514879      -0.370107434169087      -0.381134042485939     
 -0.393994301123928      -0.407921478672017      -0.421825819795235     
 -0.434626790383728      -0.445568162736531      -0.454324495160809     
 -0.460990894365538      -0.465865016458441      -0.469324361246248     
 -0.471711303591493      -0.384721419506446      -0.386003375984056     
 -0.389305303469113      -0.394269509242363      -0.401045570180385     
 -0.409908254834595      -0.420934863151447      -0.433795121789436     
 -0.447722299337525      -0.461626640460742      -0.474427611049236     
 -0.485368983402037      -0.494125315826318      -0.500791715031047     
 -0.505665837123948      -0.509125181911757      -0.511512124257001     
 -0.428820063039281      -0.430102019516890      -0.433403947001949     
 -0.438368152775198      -0.445144213713221      -0.454006898367430     
 -0.465033506684282      -0.477893765322271      -0.491820942870360     
 -0.505725283993577      -0.518526254582071      -0.529467626934872     
 -0.538223959359153      -0.544890358563882      -0.549764480656785     
 -0.553223825444592      -0.555610767789835      -0.474487341524716     
 -0.475769298002327      -0.479071225487383      -0.484035431260633     
 -0.490811492198655      -0.499674176852865      -0.510700785169718     
 -0.523561043807707      -0.537488221355795      -0.551392562479013     
 -0.564193533067506      -0.575134905420309      -0.583891237844588     
 -0.590557637049317      -0.595431759142221      -0.598891103930025     
 -0.601278046275271      -0.518585985057550      -0.519867941535162     
 -0.523169869020218      -0.528134074793470      -0.534910135731492     
 -0.543772820385700      -0.554799428702554      -0.567659687340541     
 -0.581586864888630      -0.595491206011849      -0.608292176600342     
 -0.619233548953144      -0.627989881377423      -0.634656280582153     
 -0.639530402675055      -0.642989747462862      -0.645376689808108     
 -0.558386805723059      -0.559668762200669      -0.562970689685727     
 -0.567934895458976      -0.574710956397001      -0.583573641051208     
 -0.594600249368061      -0.607460508006049      -0.621387685554140     
 -0.635292026677357      -0.648092997265849      -0.659034369618652     
 -0.667790702042930      -0.674457101247660      -0.679331223340564     
 -0.682790568128369      -0.685177510473615      -0.592176251743030     
 -0.593458208220639      -0.596760135705697      -0.601724341478948     
 -0.608500402416970      -0.617363087071179      -0.628389695388031     
 -0.641249954026020      -0.655177131574110      -0.669081472697328     
 -0.681882443285821      -0.692823815638621      -0.701580148062901     
 -0.708246547267632      -0.713120669360535      -0.716580014148339     
 -0.718966956493585      -0.619403557956327      -0.620685514433938     
 -0.623987441918995      -0.628951647692244      -0.635727708630266     
 -0.644590393284477      -0.655617001601329      -0.668477260239318     
 -0.682404437787408      -0.696308778910625      -0.709109749499117     
 -0.720051121851920      -0.728807454276198      -0.735473853480927     
 -0.740347975573831      -0.743807320361637      -0.746194262706883     
 -0.640435179147564      -0.641717135625175      -0.645019063110230     
 -0.649983268883480      -0.656759329821504      -0.665622014475713     
 -0.676648622792567      -0.689508881430553      -0.703436058978643     
 -0.717340400101859      -0.730141370690354      -0.741082743043156     
 -0.749839075467435      -0.756505474672164      -0.761379596765067     
 -0.764838941552874      -0.767225883898121      -0.656156657974123     
 -0.657438614451733      -0.660740541936791      -0.665704747710040     
 -0.672480808648064      -0.681343493302273      -0.692370101619126     
 -0.705230360257114      -0.719157537805204      -0.733061878928420     
 -0.745862849516914      -0.756804221869716      -0.765560554293994     
 -0.772226953498724      -0.777101075591626      -0.780560420379432     
 -0.782947362724678      -0.667622888750407      -0.668904845228019     
 -0.672206772713075      -0.677170978486325      -0.683947039424348     
 -0.692809724078557      -0.703836332395409      -0.716696591033397     
 -0.730623768581489      -0.744528109704705      -0.757329080293198     
 -0.768270452645998      -0.777026785070280      -0.783693184275011     
 -0.788567306367912      -0.792026651155719      -0.794413593500963     
 -0.675836308742783      -0.677118265220391      -0.680420192705451     
 -0.685384398478699      -0.692160459416724      -0.701023144070931     
 -0.712049752387784      -0.724910011025771      -0.738837188573862     
 -0.752741529697078      -0.765542500285572      -0.776483872638372     
 -0.785240205062652      -0.791906604267384      -0.796780726360285     
 -0.800240071148092      -0.802627013493337      -0.681644014668907     
 -0.682925971146518      -0.686227898631574      -0.691192104404823     
 -0.697968165342847      -0.706830849997055      -0.717857458313908     
 -0.730717716951897      -0.744644894499987      -0.758549235623206     
 -0.771350206211697      -0.782291578564498      -0.791047910988777     
 -0.797714310193508      -0.802588432286412      -0.806047777074218     
 -0.808434719419463     
 -0.374115123339686      -0.372936338750409      -0.369900150469240     
 -0.365335464096730      -0.359104740706945      -0.350955325128140     
 -0.340816138515415      -0.328990873803766      -0.316184555841714     
 -0.303399236428509      -0.291628488262696      -0.281567677821574     
 -0.273516055242660      -0.267386168007220      -0.262904315378283     
 -0.259723378742698      -0.257528537575151      -0.380431142652959     
 -0.379252358063683      -0.376216169782515      -0.371651483410004     
 -0.365420760020219      -0.357271344441413      -0.347132157828689     
 -0.335306893117040      -0.322500575154989      -0.309715255741782     
 -0.297944507575969      -0.287883697134847      -0.279832074555933     
 -0.273702187320493      -0.269220334691556      -0.266039398055972     
 -0.263844556888424      -0.389363433640095      -0.388184649050819     
 -0.385148460769649      -0.380583774397140      -0.374353051007354     
 -0.366203635428549      -0.356064448815824      -0.344239184104175     
 -0.331432866142123      -0.318647546728917      -0.306876798563105     
 -0.296815988121984      -0.288764365543069      -0.282634478307629     
 -0.278152625678692      -0.274971689043107      -0.272776847875560     
 -0.401833234273023      -0.400654449683747      -0.397618261402578     
 -0.393053575030069      -0.386822851640284      -0.378673436061477     
 -0.368534249448754      -0.356708984737104      -0.343902666775052     
 -0.331117347361846      -0.319346599196034      -0.309285788754912     
 -0.301234166175997      -0.295104278940558      -0.290622426311621     
 -0.287441489676036      -0.285246648508488      -0.418930719091442     
 -0.417751934502166      -0.414715746220997      -0.410151059848487     
 -0.403920336458702      -0.395770920879897      -0.385631734267172     
 -0.373806469555522      -0.361000151593471      -0.348214832180264     
 -0.336444084014452      -0.326383273573330      -0.318331650994416     
 -0.312201763758976      -0.307719911130039      -0.304538974494454     
 -0.302344133326907      -0.441803110931352      -0.440624326342075     
 -0.437588138060906      -0.433023451688396      -0.426792728298610     
 -0.418643312719805      -0.408504126107081      -0.396678861395431     
 -0.383872543433379      -0.371087224020173      -0.359316475854362     
 -0.349255665413239      -0.341204042834325      -0.335074155598885     
 -0.330592302969948      -0.327411366334363      -0.325216525166817     
 -0.471413458645070      -0.470234674055794      -0.467198485774624     
 -0.462633799402114      -0.456403076012330      -0.448253660433524     
 -0.438114473820799      -0.426289209109151      -0.413482891147097     
 -0.400697571733892      -0.388926823568079      -0.378866013126957     
 -0.370814390548043      -0.364684503312604      -0.360202650683668     
 -0.357021714048082      -0.354826872880535      -0.508160290588973     
 -0.506981505999698      -0.503945317718528      -0.499380631346019     
 -0.493149907956233      -0.485000492377428      -0.474861305764704     
 -0.463036041053055      -0.450229723091001      -0.437444403677796     
 -0.425673655511983      -0.415612845070863      -0.407561222491948     
 -0.401431335256507      -0.396949482627571      -0.393768545991986     
 -0.391573704824438      -0.551444636457222      -0.550265851867946     
 -0.547229663586776      -0.542664977214266      -0.536434253824481     
 -0.528284838245675      -0.518145651632951      -0.506320386921302     
 -0.493514068959250      -0.480728749546043      -0.468958001380231     
 -0.458897190939109      -0.450845568360195      -0.444715681124755     
 -0.440233828495817      -0.437052891860235      -0.434858050692686     
 -0.599402967644346      -0.598224183055070      -0.595187994773901     
 -0.590623308401391      -0.584392585011606      -0.576243169432799     
 -0.566103982820076      -0.554278718108426      -0.541472400146374     
 -0.528687080733168      -0.516916332567355      -0.506855522126233     
 -0.498803899547320      -0.492674012311880      -0.488192159682943     
 -0.485011223047359      -0.482816381879810      -0.649067226917727     
 -0.647888442328451      -0.644852254047281      -0.640287567674774     
 -0.634056844284986      -0.625907428706181      -0.615768242093458     
 -0.603942977381809      -0.591136659419756      -0.578351340006550     
 -0.566580591840738      -0.556519781399615      -0.548468158820702     
 -0.542338271585262      -0.537856418956325      -0.534675482320740     
 -0.532480641153192      -0.697025558104852      -0.695846773515577     
 -0.692810585234407      -0.688245898861898      -0.682015175472111     
 -0.673865759893305      -0.663726573280582      -0.651901308568932     
 -0.639094990606881      -0.626309671193675      -0.614538923027862     
 -0.604478112586741      -0.596426490007826      -0.590296602772387     
 -0.585814750143450      -0.582633813507865      -0.580438972340318     
 -0.740309903973099      -0.739131119383823      -0.736094931102655     
 -0.731530244730143      -0.725299521340360      -0.717150105761554     
 -0.707010919148830      -0.695185654437181      -0.682379336475129     
 -0.669594017061923      -0.657823268896110      -0.647762458454987     
 -0.639710835876075      -0.633580948640633      -0.629099096011697     
 -0.625918159376111      -0.623723318208565      -0.777056735917004     
 -0.775877951327728      -0.772841763046558      -0.768277076674051     
 -0.762046353284264      -0.753896937705458      -0.743757751092733     
 -0.731932486381085      -0.719126168419032      -0.706340849005826     
 -0.694570100840013      -0.684509290398891      -0.676457667819979     
 -0.670327780584539      -0.665845927955601      -0.662664991320015     
 -0.660470150152468      -0.806667083630723      -0.805488299041447     
 -0.802452110760278      -0.797887424387766      -0.791656700997981     
 -0.783507285419177      -0.773368098806452      -0.761542834094803     
 -0.748736516132752      -0.735951196719545      -0.724180448553733     
 -0.714119638112611      -0.706068015533696      -0.699938128298256     
 -0.695456275669319      -0.692275339033734      -0.690080497866187     
 -0.829539475470631      -0.828360690881355      -0.825324502600186     
 -0.820759816227677      -0.814529092837891      -0.806379677259086     
 -0.796240490646363      -0.784415225934710      -0.771608907972660     
 -0.758823588559452      -0.747052840393640      -0.736992029952520     
 -0.728940407373605      -0.722810520138165      -0.718328667509229     
 -0.715147730873644      -0.712952889706098      -0.846636960289051     
 -0.845458175699772      -0.842421987418604      -0.837857301046094     
 -0.831626577656309      -0.823477162077504      -0.813337975464781     
 -0.801512710753131      -0.788706392791080      -0.775921073377872     
 -0.764150325212060      -0.754089514770939      -0.746037892192023     
 -0.739908004956583      -0.735426152327647      -0.732245215692061     
 -0.730050374524513      -0.859106760921978      -0.857927976332703     
 -0.854891788051532      -0.850327101679023      -0.844096378289238     
 -0.835946962710432      -0.825807776097709      -0.813982511386058     
 -0.801176193424007      -0.788390874010802      -0.776620125844988     
 -0.766559315403866      -0.758507692824953      -0.752377805589515     
 -0.747895952960576      -0.744715016324992      -0.742520175157443     
 -0.868039051909116      -0.866860267319837      -0.863824079038671     
 -0.859259392666158      -0.853028669276374      -0.844879253697569     
 -0.834740067084844      -0.822914802373193      -0.810108484411143     
 -0.797323164997936      -0.785552416832122      -0.775491606391002     
 -0.767439983812086      -0.761310096576649      -0.756828243947711     
 -0.753647307312127      -0.751452466144579      -0.874355071222387     
 -0.873176286633112      -0.870140098351942      -0.865575411979433     
 -0.859344688589647      -0.851195273010841      -0.841056086398117     
 -0.829230821686469      -0.816424503724417      -0.803639184311212     
 -0.791868436145397      -0.781807625704274      -0.773756003125361     
 -0.767626115889922      -0.763144263260986      -0.759963326625401     
 -0.757768485457853     
  0.000000000000000E+000 -3.282172018590466E-004 -1.033620650049141E-003
 -2.198955220658941E-003 -4.476742922393904E-003 -7.979640656267073E-003
 -1.263026983295655E-002 -1.826709190868895E-002 -2.441396652989334E-002
 -3.056244072773302E-002 -3.622807327755116E-002 -4.107753596790794E-002
 -4.495244726653555E-002 -4.790767994332594E-002 -5.006842939802218E-002
 -5.160152297946802E-002 -5.266055883330620E-002  0.000000000000000E+000
 -3.282172018590466E-004 -1.033620650049141E-003 -2.198955220658941E-003
 -4.476742922393904E-003 -7.979640656267073E-003 -1.263026983295655E-002
 -1.826709190868895E-002 -2.441396652989334E-002 -3.056244072773302E-002
 -3.622807327755116E-002 -4.107753596790794E-002 -4.495244726653555E-002
 -4.790767994332594E-002 -5.006842939802218E-002 -5.160152297946802E-002
 -5.266055883330620E-002  0.000000000000000E+000 -3.282172018590466E-004
 -1.033620650049141E-003 -2.198955220658941E-003 -4.476742922393904E-003
 -7.979640656267073E-003 -1.263026983295655E-002 -1.826709190868895E-002
 -2.441396652989334E-002 -3.056244072773302E-002 -3.622807327755116E-002
 -4.107753596790794E-002 -4.495244726653555E-002 -4.790767994332594E-002
 -5.006842939802218E-002 -5.160152297946802E-002 -5.266055883330620E-002
  0.000000000000000E+000 -3.282172018590466E-004 -1.033620650049141E-003
 -2.198955220658941E-003 -4.476742922393904E-003 -7.979640656267073E-003
 -1.263026983295655E-002 -1.826709190868895E-002 -2.441396652989334E-002
 -3.056244072773302E-002 -3.622807327755116E-002 -4.107753596790794E-002
 -4.495244726653555E-002 -4.790767994332594E-002 -5.006842939802218E-002
 -5.160152297946802E-002 -5.266055883330620E-002  0.000000000000000E+000
 -3.282172018590466E-004 -1.033620650049141E-003 -2.198955220658941E-003
 -4.476742922393904E-003 -7.979640656267073E-003 -1.263026983295655E-002
 -1.826709190868895E-002 -2.441396652989334E-002 -3.056244072773302E-002
 -3.622807327755116E-002 -4.107753596790794E-002 -4.495244726653555E-002
 -4.790767994332594E-002 -5.006842939802218E-002 -5.160152297946802E-002
 -5.266055883330620E-002  0.000000000000000E+000 -3.282172018590466E-004
 -1.033620650049141E-003 -2.198955220658941E-003 -4.476742922393904E-003
 -7.979640656267073E-003 -1.263026983295655E-002 -1.826709190868895E-002
 -2.441396652989334E-002 -3.056244072773302E-002 -3.622807327755116E-002
 -4.107753596790794E-002 -4.495244726653555E-002 -4.790767994332594E-002
 -5.006842939802218E-002 -5.160152297946802E-002 -5.266055883330620E-002
  0.000000000000000E+000 -3.282172018590466E-004 -1.033620650049141E-003
 -2.198955220658941E-003 -4.476742922393904E-003 -7.979640656267073E-003
 -1.263026983295655E-002 -1.826709190868895E-002 -2.441396652989334E-002
 -3.056244072773302E-002 -3.622807327755116E-002 -4.107753596790794E-002
 -4.495244726653555E-002 -4.790767994332594E-002 -5.006842939802218E-002
 -5.160152297946802E-002 -5.266055883330620E-002  0.000000000000000E+000
 -3.282172018590466E-004 -1.033620650049141E-003 -2.198955220658941E-003
 -4.476742922393904E-003 -7.979640656267073E-003 -1.263026983295655E-002
 -1.826709190868895E-002 -2.441396652989334E-002 -3.056244072773302E-002
 -3.622807327755116E-002 -4.107753596790794E-002 -4.495244726653555E-002
 -4.790767994332594E-002 -5.006842939802218E-002 -5.160152297946802E-002
 -5.266055883330620E-002  0.000000000000000E+000 -3.282172018590466E-004
 -1.033620650049141E-003 -2.198955220658941E-003 -4.476742922393904E-003
 -7.979640656267073E-003 -1.263026983295655E-002 -1.826709190868895E-002
 -2.441396652989334E-002 -3.056244072773302E-002 -3.622807327755116E-002
 -4.107753596790794E-002 -4.495244726653555E-002 -4.790767994332594E-002
 -5.006842939802218E-002 -5.160152297946802E-002 -5.266055883330620E-002
  0.000000000000000E+000 -3.282172018590466E-004 -1.033620650049141E-003
 -2.198955220658941E-003 -4.476742922393904E-003 -7.979640656267073E-003
 -1.263026983295655E-002 -1.826709190868895E-002 -2.441396652989334E-002
 -3.056244072773302E-002 -3.622807327755116E-002 -4.107753596790794E-002
 -4.495244726653555E-002 -4.790767994332594E-002 -5.006842939802218E-002
 -5.160152297946802E-002 -5.266055883330620E-002  0.000000000000000E+000
 -3.282172018590466E-004 -1.033620650049141E-003 -2.198955220658941E-003
 -4.476742922393904E-003 -7.979640656267073E-003 -1.263026983295655E-002
 -1.826709190868895E-002 -2.441396652989334E-002 -3.056244072773302E-002
 -3.622807327755116E-002 -4.107753596790794E-002 -4.495244726653555E-002
 -4.790767994332594E-002 -5.006842939802218E-002 -5.160152297946802E-002
 -5.266055883330620E-002  0.000000000000000E+000 -3.282172018590466E-004
 -1.033620650049141E-003 -2.198955220658941E-003 -4.476742922393904E-003
 -7.979640656267073E-003 -1.263026983295655E-002 -1.826709190868895E-002
 -2.441396652989334E-002 -3.056244072773302E-002 -3.622807327755116E-002
 -4.107753596790794E-002 -4.495244726653555E-002 -4.790767994332594E-002
 -5.006842939802218E-002 -5.160152297946802E-002 -5.266055883330620E-002
  0.000000000000000E+000 -3.282172018590466E-004 -1.033620650049141E-003
 -2.198955220658941E-003 -4.476742922393904E-003 -7.979640656267073E-003
 -1.263026983295655E-002 -1.826709190868895E-002 -2.441396652989334E-002
 -3.056244072773302E-002 -3.622807327755116E-002 -4.107753596790794E-002
 -4.495244726653555E-002 -4.790767994332594E-002 -5.006842939802218E-002
 -5.160152297946802E-002 -5.266055883330620E-002  0.000000000000000E+000
 -3.282172018590466E-004 -1.033620650049141E-003 -2.198955220658941E-003
 -4.476742922393904E-003 -7.979640656267073E-003 -1.263026983295655E-002
 -1.826709190868895E-002 -2.441396652989334E-002 -3.056244072773302E-002
 -3.622807327755116E-002 -4.107753596790794E-002 -4.495244726653555E-002
 -4.790767994332594E-002 -5.006842939802218E-002 -5.160152297946802E-002
 -5.266055883330620E-002  0.000000000000000E+000 -3.282172018590466E-004
 -1.033620650049141E-003 -2.198955220658941E-003 -4.476742922393904E-003
 -7.979640656267073E-003 -1.263026983295655E-002 -1.826709190868895E-002
 -2.441396652989334E-002 -3.056244072773302E-002 -3.622807327755116E-002
 -4.107753596790794E-002 -4.495244726653555E-002 -4.790767994332594E-002
 -5.006842939802218E-002 -5.160152297946802E-002 -5.266055883330620E-002
  0.000000000000000E+000 -3.282172018590466E-004 -1.033620650049141E-003
 -2.198955220658941E-003 -4.476742922393904E-003 -7.979640656267073E-003
 -1.263026983295655E-002 -1.826709190868895E-002 -2.441396652989334E-002
 -3.056244072773302E-002 -3.622807327755116E-002 -4.107753596790794E-002
 -4.495244726653555E-002 -4.790767994332594E-002 -5.006842939802218E-002
 -5.160152297946802E-002 -5.266055883330620E-002  0.000000000000000E+000
 -3.282172018590466E-004 -1.033620650049141E-003 -2.198955220658941E-003
 -4.476742922393904E-003 -7.979640656267073E-003 -1.263026983295655E-002
 -1.826709190868895E-002 -2.441396652989334E-002 -3.056244072773302E-002
 -3.622807327755116E-002 -4.107753596790794E-002 -4.495244726653555E-002
 -4.790767994332594E-002 -5.006842939802218E-002 -5.160152297946802E-002
 -5.266055883330620E-002  0.000000000000000E+000 -3.282172018590466E-004
 -1.033620650049141E-003 -2.198955220658941E-003 -4.476742922393904E-003
 -7.979640656267073E-003 -1.263026983295655E-002 -1.826709190868895E-002
 -2.441396652989334E-002 -3.056244072773302E-002 -3.622807327755116E-002
 -4.107753596790794E-002 -4.495244726653555E-002 -4.790767994332594E-002
 -5.006842939802218E-002 -5.160152297946802E-002 -5.266055883330620E-002
  0.000000000000000E+000 -3.282172018590466E-004 -1.033620650049141E-003
 -2.198955220658941E-003 -4.476742922393904E-003 -7.979640656267073E-003
 -1.263026983295655E-002 -1.826709190868895E-002 -2.441396652989334E-002
 -3.056244072773302E-002 -3.622807327755116E-002 -4.107753596790794E-002
 -4.495244726653555E-002 -4.790767994332594E-002 -5.006842939802218E-002
 -5.160152297946802E-002 -5.266055883330620E-002  0.000000000000000E+000
 -3.282172018590466E-004 -1.033620650049141E-003 -2.198955220658941E-003
 -4.476742922393904E-003 -7.979640656267073E-003 -1.263026983295655E-002
 -1.826709190868895E-002 -2.441396652989334E-002 -3.056244072773302E-002
 -3.622807327755116E-002 -4.107753596790794E-002 -4.495244726653555E-002
 -4.790767994332594E-002 -5.006842939802218E-002 -5.160152297946802E-002
 -5.266055883330620E-002
  0.192540174337932       0.377585002952544       0.562597763948590     
  0.796361522964412        1.02588181908869        1.23179825616693     
   1.41353349384209        1.55902938613385        1.67191103850029     
   1.75368837811828        1.80776961106841        1.83841323570590     
   1.85359112987056        1.85880565208440        1.86106148585974     
   1.86462787749725       0.277527115400361       0.565746038042243     
  0.863600811006446        1.22494725621449        1.58897508199715     
   1.92300916380369        2.21910626948822        2.45913702895992     
   2.64709645286670        2.78646092035918        2.88425347049868     
   2.94952796780450        2.99570414469151        3.03032608715892     
   3.05654116548680        3.07229336654132       0.355801420221694     
  0.733641421191543        1.12670710933887        1.59659005757079     
   2.07969476902442        2.53394559611996        2.94166617908111     
   3.27754261536204        3.54407937670094        3.74649131068088     
   3.89523628826304        4.00228073787762        4.08117723303121     
   4.13657515152963        4.17137642794853        4.18837097337059     
  0.436721498685827       0.904611787435862        1.38998969225064     
   1.96375495741338        2.56189070350948        3.13644368277570     
   3.66080943773116        4.10079856355419        4.45506364202415     
   4.72845958093911        4.93228046838169        5.07824015598993     
   5.17985249183283        5.24455977367202        5.28112402943917     
   5.29753520144136       0.523626823231760        1.08682662852080     
   1.66805892787335        2.34827398582352        3.06294636454483     
   3.76005599325736        4.40593389137640        4.95685310966246     
   5.40509596558154        5.75191299145952        6.00728135863809     
   6.18390781810767        6.29999829829195        6.36948428308176     
   6.40675664615811        6.42289480711804       0.617502628476282     
   1.28281290934008        1.96586085961909        2.75839563367767     
   3.59402165535523        4.41653149176526        5.18604320561334     
   5.84913429725655        6.39053181782767        6.80664033758794     
   7.10704261194474        7.30844163770052        7.43601837289136     
   7.50990002468259        7.54856176943386        7.56503384020047     
  0.716993583013594        1.48996607263103        2.28008934325970     
   3.19066154279063        4.15151672201397        5.10111037819535     
   5.99321950131862        6.76480293321514        7.39383388411092     
   7.87317603872767        8.21386851076239        8.43780616662254     
   8.57684458077148        8.65604987393162        8.69700837973652     
   8.71432854278140       0.818672026260214        1.70129790895870     
   2.60064468732436        3.63216530475881        4.72000615102018     
   5.79606124867151        6.80756784846408        7.68231777321393     
   8.39321635410072        8.93133209396030        9.31013924351376     
   9.55647439423591        9.70790984652346        9.79349803119120     
   9.83750603487068        9.85605523435109       0.918215271876665     
   1.90794438569321        2.91444350714378        4.06562393167643     
   5.27841111859200        6.47737621388996        7.60340942846039     
   8.57587454577886        9.36412422309672        9.95848912702275     
   10.3749409492251        10.6444837804129        10.8095269864244     
   10.9025133102067        10.9502180522187        10.9703098897095     
   1.01106918280385        2.10049311844825        3.20724212161975     
   4.47145357691189        5.80189187501453        7.11566862755744     
   8.34803714937121        9.41108047393189        10.2719061440054     
   10.9205786714264        11.3749972145760        11.6692121340856     
   11.8495118980916        11.9511894319663        12.0033978456178     
   12.0254167990426        1.09080610024426        2.26550801591899     
   3.45836466267829        4.82059809450909        6.25243339066632     
   7.66403443634757        8.98642601253198        10.1264593342349     
   11.0507104700410        11.7493950545338        12.2412931609441     
   12.5617735501662        12.7594919210674        12.8717028473094     
   12.9296199058384        12.9541485408034        1.14628455131241     
   2.37964626458949        3.63211831772353        5.06349917950203     
   6.56532594221299        8.04186458874901        9.42218370606056     
   10.6113953049928        11.5784933908829        12.3149429825278     
   12.8391378157377        13.1852112820817        13.4017037424453     
   13.5262051845418        13.5911749790945        13.6189099373140     
   1.16399617504570        2.41460270676066        3.68544733554939     
   5.14089172406478        6.66338689523346        8.15250739678908     
   9.53826301087494        10.7289846019506        11.7008412563181     
   12.4492070492589        12.9912786493989        13.3567190886945     