 Title = "Wing and Wake"
 VARIABLES = "X" "Y" "Z" "GAM" "skew"
 Zone I=   17 J=   20 K=1  T="Blade 01"
 DATAPACKING=BLOCK
 VARLOCATION=([4]=CELLCENTERED,[5]=CELLCENTERED)
  0.221663386408998       0.222945342897593       0.226247270410942     
  0.231211476226726       0.237987537222809       0.246850221952956     
  0.257876830364288       0.270737089112467       0.284664266779889     
  0.298568608022243       0.311369578720419       0.322310951166969     
  0.331067283666276       0.337733682928125       0.342607805062791     
  0.346067149880238       0.348454092245935       0.227471092276269     
  0.228753048764865       0.232054976278213       0.237019182093998     
  0.243795243090081       0.252657927820228       0.263684536231559     
  0.276544794979738       0.290471972647160       0.304376313889514     
  0.317177284587690       0.328118657034241       0.336874989533547     
  0.343541388795396       0.348415510930062       0.351874855747509     
  0.354261798113206       0.235684512185411       0.236966468674006     
  0.240268396187355       0.245232602003139       0.252008662999222     
  0.260871347729369       0.271897956140701       0.284758214888879     
  0.298685392556302       0.312589733798656       0.325390704496832     
  0.336332076943382       0.345088409442688       0.351754808704537     
  0.356628930839203       0.360088275656650       0.362475218022347     
  0.247150742845499       0.248432699334094       0.251734626847443     
  0.256698832663227       0.263474893659310       0.272337578389457     
  0.283364186800789       0.296224445548968       0.310151623216390     
  0.324055964458743       0.336856935156919       0.347798307603470     
  0.356554640102776       0.363221039364626       0.368095161499291     
  0.371554506316738       0.373941448682435       0.262872221512740     
  0.264154178001335       0.267456105514684       0.272420311330468     
  0.279196372326551       0.288059057056698       0.299085665468030     
  0.311945924216208       0.325873101883631       0.339777443125984     
  0.352578413824160       0.363519786270711       0.372276118770017     
  0.378942518031866       0.383816640166532       0.387275984983979     
  0.389662927349676       0.283903842490847       0.285185798979441     
  0.288487726492790       0.293451932308574       0.300227993304657     
  0.309090678034804       0.320117286446136       0.332977545194315     
  0.346904722861736       0.360809064104091       0.373610034802267     
  0.384551407248817       0.393307739748123       0.399974139009972     
  0.404848261144638       0.408307605962085       0.410694548327783     
  0.311131148428228       0.312413104916823       0.315715032430171     
  0.320679238245956       0.327455299242039       0.336317983972186     
  0.347344592383517       0.360204851131697       0.374132028799118     
  0.388036370041472       0.400837340739648       0.411778713186198     
  0.420535045685505       0.427201444947354       0.432075567082020     
  0.435534911899467       0.437921854265164       0.344920594105782     
  0.346202550594378       0.349504478107727       0.354468683923511     
  0.361244744919594       0.370107429649740       0.381134038061072     
  0.393994296809252       0.407921474476673       0.421825815719027     
  0.434626786417203       0.445568158863754       0.454324491363060     
  0.460990890624909       0.465865012759574       0.469324357577022     
  0.471711299942719       0.384721414367958       0.386003370856552     
  0.389305298369901       0.394269504185685       0.401045565181768     
  0.409908249911915       0.420934858323247       0.433795117071426     
  0.447722294738848       0.461626635981201       0.474427606679378     
  0.485368979125928       0.494125311625234       0.500791710887084     
  0.505665833021749       0.509125177839197       0.511512120204893     
  0.428820057453906       0.430102013942500       0.433403941455849     
  0.438368147271634       0.445144208267716       0.454006892997864     
  0.465033501409195       0.477893760157375       0.491820937824796     
  0.505725279067150       0.518526249765326       0.529467622211876     
  0.538223954711183       0.544890353973032       0.549764476107698     
  0.553223820925145       0.555610763290841       0.474487335476558     
  0.475769291965153       0.479071219478502       0.484035425294286     
  0.490811486290369       0.499674171020516       0.510700779431848     
  0.523561038180027       0.537488215847448       0.551392557089803     
  0.564193527787978       0.575134900234529       0.583891232733835     
  0.590557631995684       0.595431754130350       0.598891098947797     
  0.601278041313494       0.518585978562506       0.519867935051102     
  0.523169862564450       0.528134068380235       0.534910129376317     
  0.543772814106464       0.554799422517796       0.567659681265975     
  0.581586858933397       0.595491200175751       0.608292170873927     
  0.619233543320477       0.627989875819783       0.634656275081633     
  0.639530397216298       0.642989742033746       0.645376684399443     
  0.558386798824681       0.559668755313276       0.562970682826624     
  0.567934888642409       0.574710949638493       0.583573634368638     
  0.594600242779971       0.607460501528149       0.621387679195571     
  0.635292020437926       0.648092991136101       0.659034363582652     
  0.667790696081958       0.674457095343807       0.679331217478473     
  0.682790562295920       0.685177504661617       0.592176244502236     
  0.593458200990830       0.596760128504180       0.601724334319965     
  0.608500395316047       0.617363080046194       0.628389688457525     
  0.641249947205705       0.655177124873126       0.669081466115481     
  0.681882436813657       0.692823809260206       0.701580141759513     
  0.708246541021363       0.713120663156029       0.716580007973475     
  0.718966950339172       0.619403550439618       0.620685506928213     
  0.623987434441560       0.628951640257346       0.635727701253428     
  0.644590385983575       0.655616994394907       0.668477253143087     
  0.682404430810508       0.696308772052862       0.709109742751038     
  0.720051115197588       0.728807447696894       0.735473846958743     
  0.740347969093409       0.743807313910856       0.746194256276554     
  0.640435171417724       0.641717127906319       0.645019055419667     
  0.649983261235452       0.656759322231535       0.665622006961682     
  0.676648615373014       0.689508874121192       0.703436051788614     
  0.717340393030967       0.730141363729144       0.741082736175695     
  0.749839068675000       0.756505467936851       0.761379590071515     
  0.764838934888963       0.767225877254660       0.656156650084965     
  0.657438606573559       0.660740534086908       0.665704739902693     
  0.672480800898776       0.681343485628923       0.692370094040255     
  0.705230352788433       0.719157530455856       0.733061871698209     
  0.745862842396385       0.756804214842935       0.765560547342241     
  0.772226946604091       0.777101068738755       0.780560413556204     
  0.782947355921901       0.667622880745052       0.668904837233649     
  0.672206764746996       0.677170970562781       0.683947031558864     
  0.692809716289010       0.703836324700342       0.716696583448521     
  0.730623761115944       0.744528102358297       0.757329073056473     
  0.768270445503024       0.777026778002329       0.783693177264180     
  0.788567299398846       0.792026644216292       0.794413586581989     
  0.675836300654194       0.677118257142789       0.680420184656138     
  0.685384390471922       0.692160451468006       0.701023136198152     
  0.712049744609484       0.724910003357662       0.738837181025084     
  0.752741522267438       0.765542492965614       0.776483865412164     
  0.785240197911470       0.791906597173321       0.796780719307986     
  0.800240064125432       0.802627006491130       0.681644006521465     
  0.682925963010060       0.686227890523409       0.691192096339192     
  0.697968157335276       0.706830842065423       0.717857450476754     
  0.730717709224933       0.744644886892356       0.758549228134710     
  0.771350198832885       0.782291571279434       0.791047903778742     
  0.797714303040592       0.802588425175258       0.806047769992705     
  0.808434712358401     
  0.374115125405196       0.372936340827865       0.369900152577464     
  0.365335466251212       0.359104742924568       0.350955327428347     
  0.340816140918371       0.328990876326556       0.316184558494281     
  0.303399239210639       0.291628491164109       0.281567680824941     
  0.273516058327620       0.267386171154300       0.262904318570781     
  0.259723381967431       0.257528540822126       0.380431144772587     
  0.379252360195256       0.376216171944855       0.371651485618603     
  0.365420762291959       0.357271346795738       0.347132160285762     
  0.335306895693947       0.322500577861672       0.309715258578030     
  0.297944510531500       0.287883700192332       0.279832077695012     
  0.273702190521690       0.269220337938172       0.266039401334822     
  0.263844560189516       0.389363435836257       0.388184651258926     
  0.385148463008525       0.380583776682273       0.374353053355629     
  0.366203637859407       0.356064451349432       0.344239186757617     
  0.331432868925342       0.318647549641700       0.306876801595170     
  0.296815991256002       0.288764368758682       0.282634481585360     
  0.278152629001842       0.274971692398492       0.272776851253187     
  0.401833236576030       0.400654451998700       0.397618263748299     
  0.393053577422047       0.386822854095402       0.378673438599181     
  0.368534252089206       0.356708987497391       0.343902669665116     
  0.331117350381474       0.319346602334944       0.309285791995776     
  0.301234169498455       0.295104282325135       0.290622429741616     
  0.287441493138266       0.285246651992960       0.418930721540945     
  0.417751936963615       0.414715748713214       0.410151062386961     
  0.403920339060317       0.395770923564096       0.385631737054121     
  0.373806472462305       0.361000154630030       0.348214835346388     
  0.336444087299859       0.326383276960691       0.318331654463370     
  0.312201767290049       0.307719914706530       0.304538978103181     
  0.302344136957875       0.441803113576832       0.440624328999501     
  0.437588140749100       0.433023454422848       0.426792731096203     
  0.418643315599983       0.408504129090007       0.396678864498192     
  0.383872546665916       0.371087227382275       0.359316479335745     
  0.349255668996577       0.341204046499256       0.335074159325935     
  0.330592306742417       0.327411370139067       0.325216528993762     
  0.471413461544261       0.470234676966931       0.467198488716529     
  0.462633802390277       0.456403079063633       0.448253663567412     
  0.438114477057436       0.426289212465622       0.413482894633345     
  0.400697575349703       0.388926827303174       0.378866016964006     
  0.370814394466685       0.364684507293365       0.360202654709846     
  0.357021718106496       0.354826876961190       0.508160293803022     
  0.506981509225692       0.503945320975291       0.499380634649038     
  0.493149911322394       0.485000495826173       0.474861309316198     
  0.463036044724384       0.450229726892107       0.437444407608465     
  0.425673659561935       0.415612849222769       0.407561226725447     
  0.401431339552126       0.396949486968607       0.393768550365257     
  0.391573709219952       0.551444640042144       0.550265855464813     
  0.547229667214411       0.542664980888159       0.536434257561515     
  0.528284842065294       0.518145655555319       0.506320390963504     
  0.493514073131228       0.480728753847586       0.468958005801056     
  0.458897195461888       0.450845572964567       0.444715685791247     
  0.440233833207728       0.437052896604379       0.434858055459073     
  0.599402971640189       0.598224187062858       0.595187998812458     
  0.590623312486205       0.584392589159561       0.576243173663340     
  0.566103987153364       0.554278722561550       0.541472404729274     
  0.528687085445631       0.516916337399102       0.506855527059934     
  0.498803904562614       0.492674017389293       0.488192164805774     
  0.485011228202424       0.482816387057118       0.649067231339109     
  0.647888446761778       0.644852258511377       0.640287572185126     
  0.634056848858481       0.625907433362260       0.615768246852285     
  0.603942982260470       0.591136664428194       0.578351345144552     
  0.566580597098023       0.556519786758854       0.548468164261534     
  0.542338277088213       0.537856424504694       0.534675487901344     
  0.532480646756039       0.697025562937155       0.695846778359825     
  0.692810590109423       0.688245903783171       0.682015180456527     
  0.673865764960306       0.663726578450330       0.651901313858515     
  0.639094996026240       0.626309676742598       0.614538928696068     
  0.604478118356901       0.596426495859580       0.590296608686259     
  0.585814756102741       0.582633819499390       0.580438978354085     
  0.740309909176275       0.739131124598945       0.736094936348544     
  0.731530250022291       0.725299526695648       0.717150111199426     
  0.707010924689451       0.695185660097637       0.682379342265361     
  0.669594022981718       0.657823274935188       0.647762464596021     
  0.639710842098700       0.633580954925379       0.629099102341861     
  0.625918165738510       0.623723324593205       0.777056741435038     
  0.775877956857707       0.772841768607305       0.768277082281055     
  0.762046358954409       0.753896943458188       0.743757756948212     
  0.731932492356398       0.719126174524122       0.706340855240480     
  0.694570107193950       0.684509296854782       0.676457674357462     
  0.670327787184141       0.665845934600622       0.662664997997272     
  0.660470156851967       0.806667089402466       0.805488304825136     
  0.802452116574735       0.797887430248482       0.791656706921838     
  0.783507291425617       0.773368104915641       0.761542840323828     
  0.748736522491551       0.735951203207909       0.724180455161380     
  0.714119644822211       0.706068022324891       0.699938135151569     
  0.695456282568051       0.692275345964701       0.690080504819396     
  0.829539481438352       0.828360696861022       0.825324508610620     
  0.820759822284370       0.814529098957724       0.806379683461504     
  0.796240496951529       0.784415232359713       0.771608914527438     
  0.758823595243795       0.747052847197265       0.736992036858098     
  0.728940414360777       0.722810527187457       0.718328674603938     
  0.715147738000589       0.712952896855283       0.846636966403267     
  0.845458181825937       0.842421993575536       0.837857307249284     
  0.831626583922640       0.823477168426419       0.813337981916443     
  0.801512717324628       0.788706399492353       0.775921080208710     
  0.764150332162181       0.754089521823013       0.746037899325692     
  0.739908012152371       0.735426159568852       0.732245222965503     
  0.730050381820197       0.859106767143041       0.857927982565711     
  0.854891794315309       0.850327107989058       0.844096384662412     
  0.835946969166192       0.825807782656215       0.813982518064401     
  0.801176200232127       0.788390880948484       0.776620132901954     
  0.766559322562787       0.758507700065466       0.752377812892145     
  0.747895960308627       0.744715023705277       0.742520182559971     
  0.868039058206712       0.866860273629381       0.863824085378980     
  0.859259399052727       0.853028675726084       0.844879260229863     
  0.834740073719886       0.822914809128071       0.810108491295797     
  0.797323172012154       0.785552423965623       0.775491613626456     
  0.767439991129136       0.761310103955815       0.756828251372296     
  0.753647314768946       0.751452473623640       0.874355077574102     
  0.873176292996772       0.870140104746370       0.865575418420118     
  0.859344695093475       0.851195279597252       0.841056093087277     
  0.829230828495463       0.816424510663189       0.803639191379546     
  0.791868443333015       0.781807632993847       0.773756010496527     
  0.767626123323206       0.763144270739689       0.759963334136337     
  0.757768492991032     
  0.000000000000000E+000 -3.282172018590466E-004 -1.033620650049141E-003
 -2.198955220658941E-003 -4.476742922393904E-003 -7.979640656267073E-003
 -1.263026983295655E-002 -1.826709190868895E-002 -2.441396652989334E-002
 -3.056244072773302E-002 -3.622807327755116E-002 -4.107753596790794E-002
 -4.495244726653555E-002 -4.790767994332594E-002 -5.006842939802218E-002
 -5.160152297946802E-002 -5.266055883330620E-002  0.000000000000000E+000
 -3.282172018590466E-004 -1.033620650049141E-003 -2.198955220658941E-003
 -4.476742922393904E-003 -7.979640656267073E-003 -1.263026983295655E-002
 -1.826709190868895E-002 -2.441396652989334E-002 -3.056244072773302E-002
 -3.622807327755116E-002 -4.107753596790794E-002 -4.495244726653555E-002
 -4.790767994332594E-002 -5.006842939802218E-002 -5.160152297946802E-002
 -5.266055883330620E-002  0.000000000000000E+000 -3.282172018590466E-004
 -1.033620650049141E-003 -2.198955220658941E-003 -4.476742922393904E-003
 -7.979640656267073E-003 -1.263026983295655E-002 -1.826709190868895E-002
 -2.441396652989334E-002 -3.056244072773302E-002 -3.622807327755116E-002
 -4.107753596790794E-002 -4.495244726653555E-002 -4.790767994332594E-002
 -5.006842939802218E-002 -5.160152297946802E-002 -5.266055883330620E-002
  0.000000000000000E+000 -3.282172018590466E-004 -1.033620650049141E-003
 -2.198955220658941E-003 -4.476742922393904E-003 -7.979640656267073E-003
 -1.263026983295655E-002 -1.826709190868895E-002 -2.441396652989334E-002
 -3.056244072773302E-002 -3.622807327755116E-002 -4.107753596790794E-002
 -4.495244726653555E-002 -4.790767994332594E-002 -5.006842939802218E-002
 -5.160152297946802E-002 -5.266055883330620E-002  0.000000000000000E+000
 -3.282172018590466E-004 -1.033620650049141E-003 -2.198955220658941E-003
 -4.476742922393904E-003 -7.979640656267073E-003 -1.263026983295655E-002
 -1.826709190868895E-002 -2.441396652989334E-002 -3.056244072773302E-002
 -3.622807327755116E-002 -4.107753596790794E-002 -4.495244726653555E-002
 -4.790767994332594E-002 -5.006842939802218E-002 -5.160152297946802E-002
 -5.266055883330620E-002  0.000000000000000E+000 -3.282172018590466E-004
 -1.033620650049141E-003 -2.198955220658941E-003 -4.476742922393904E-003
 -7.979640656267073E-003 -1.263026983295655E-002 -1.826709190868895E-002
 -2.441396652989334E-002 -3.056244072773302E-002 -3.622807327755116E-002
 -4.107753596790794E-002 -4.495244726653555E-002 -4.790767994332594E-002
 -5.006842939802218E-002 -5.160152297946802E-002 -5.266055883330620E-002
  0.000000000000000E+000 -3.282172018590466E-004 -1.033620650049141E-003
 -2.198955220658941E-003 -4.476742922393904E-003 -7.979640656267073E-003
 -1.263026983295655E-002 -1.826709190868895E-002 -2.441396652989334E-002
 -3.056244072773302E-002 -3.622807327755116E-002 -4.107753596790794E-002
 -4.495244726653555E-002 -4.790767994332594E-002 -5.006842939802218E-002
 -5.160152297946802E-002 -5.266055883330620E-002  0.000000000000000E+000
 -3.282172018590466E-004 -1.033620650049141E-003 -2.198955220658941E-003
 -4.476742922393904E-003 -7.979640656267073E-003 -1.263026983295655E-002
 -1.826709190868895E-002 -2.441396652989334E-002 -3.056244072773302E-002
 -3.622807327755116E-002 -4.107753596790794E-002 -4.495244726653555E-002
 -4.790767994332594E-002 -5.006842939802218E-002 -5.160152297946802E-002
 -5.266055883330620E-002  0.000000000000000E+000 -3.282172018590466E-004
 -1.033620650049141E-003 -2.198955220658941E-003 -4.476742922393904E-003
 -7.979640656267073E-003 -1.263026983295655E-002 -1.826709190868895E-002
 -2.441396652989334E-002 -3.056244072773302E-002 -3.622807327755116E-002
 -4.107753596790794E-002 -4.495244726653555E-002 -4.790767994332594E-002
 -5.006842939802218E-002 -5.160152297946802E-002 -5.266055883330620E-002
  0.000000000000000E+000 -3.282172018590466E-004 -1.033620650049141E-003
 -2.198955220658941E-003 -4.476742922393904E-003 -7.979640656267073E-003
 -1.263026983295655E-002 -1.826709190868895E-002 -2.441396652989334E-002
 -3.056244072773302E-002 -3.622807327755116E-002 -4.107753596790794E-002
 -4.495244726653555E-002 -4.790767994332594E-002 -5.006842939802218E-002
 -5.160152297946802E-002 -5.266055883330620E-002  0.000000000000000E+000
 -3.282172018590466E-004 -1.033620650049141E-003 -2.198955220658941E-003
 -4.476742922393904E-003 -7.979640656267073E-003 -1.263026983295655E-002
 -1.826709190868895E-002 -2.441396652989334E-002 -3.056244072773302E-002
 -3.622807327755116E-002 -4.107753596790794E-002 -4.495244726653555E-002
 -4.790767994332594E-002 -5.006842939802218E-002 -5.160152297946802E-002
 -5.266055883330620E-002  0.000000000000000E+000 -3.282172018590466E-004
 -1.033620650049141E-003 -2.198955220658941E-003 -4.476742922393904E-003
 -7.979640656267073E-003 -1.263026983295655E-002 -1.826709190868895E-002
 -2.441396652989334E-002 -3.056244072773302E-002 -3.622807327755116E-002
 -4.107753596790794E-002 -4.495244726653555E-002 -4.790767994332594E-002
 -5.006842939802218E-002 -5.160152297946802E-002 -5.266055883330620E-002
  0.000000000000000E+000 -3.282172018590466E-004 -1.033620650049141E-003
 -2.198955220658941E-003 -4.476742922393904E-003 -7.979640656267073E-003
 -1.263026983295655E-002 -1.826709190868895E-002 -2.441396652989334E-002
 -3.056244072773302E-002 -3.622807327755116E-002 -4.107753596790794E-002
 -4.495244726653555E-002 -4.790767994332594E-002 -5.006842939802218E-002
 -5.160152297946802E-002 -5.266055883330620E-002  0.000000000000000E+000
 -3.282172018590466E-004 -1.033620650049141E-003 -2.198955220658941E-003
 -4.476742922393904E-003 -7.979640656267073E-003 -1.263026983295655E-002
 -1.826709190868895E-002 -2.441396652989334E-002 -3.056244072773302E-002
 -3.622807327755116E-002 -4.107753596790794E-002 -4.495244726653555E-002
 -4.790767994332594E-002 -5.006842939802218E-002 -5.160152297946802E-002
 -5.266055883330620E-002  0.000000000000000E+000 -3.282172018590466E-004
 -1.033620650049141E-003 -2.198955220658941E-003 -4.476742922393904E-003
 -7.979640656267073E-003 -1.263026983295655E-002 -1.826709190868895E-002
 -2.441396652989334E-002 -3.056244072773302E-002 -3.622807327755116E-002
 -4.107753596790794E-002 -4.495244726653555E-002 -4.790767994332594E-002
 -5.006842939802218E-002 -5.160152297946802E-002 -5.266055883330620E-002
  0.000000000000000E+000 -3.282172018590466E-004 -1.033620650049141E-003
 -2.198955220658941E-003 -4.476742922393904E-003 -7.979640656267073E-003
 -1.263026983295655E-002 -1.826709190868895E-002 -2.441396652989334E-002
 -3.056244072773302E-002 -3.622807327755116E-002 -4.107753596790794E-002
 -4.495244726653555E-002 -4.790767994332594E-002 -5.006842939802218E-002
 -5.160152297946802E-002 -5.266055883330620E-002  0.000000000000000E+000
 -3.282172018590466E-004 -1.033620650049141E-003 -2.198955220658941E-003
 -4.476742922393904E-003 -7.979640656267073E-003 -1.263026983295655E-002
 -1.826709190868895E-002 -2.441396652989334E-002 -3.056244072773302E-002
 -3.622807327755116E-002 -4.107753596790794E-002 -4.495244726653555E-002
 -4.790767994332594E-002 -5.006842939802218E-002 -5.160152297946802E-002
 -5.266055883330620E-002  0.000000000000000E+000 -3.282172018590466E-004
 -1.033620650049141E-003 -2.198955220658941E-003 -4.476742922393904E-003
 -7.979640656267073E-003 -1.263026983295655E-002 -1.826709190868895E-002
 -2.441396652989334E-002 -3.056244072773302E-002 -3.622807327755116E-002
 -4.107753596790794E-002 -4.495244726653555E-002 -4.790767994332594E-002
 -5.006842939802218E-002 -5.160152297946802E-002 -5.266055883330620E-002
  0.000000000000000E+000 -3.282172018590466E-004 -1.033620650049141E-003
 -2.198955220658941E-003 -4.476742922393904E-003 -7.979640656267073E-003
 -1.263026983295655E-002 -1.826709190868895E-002 -2.441396652989334E-002
 -3.056244072773302E-002 -3.622807327755116E-002 -4.107753596790794E-002
 -4.495244726653555E-002 -4.790767994332594E-002 -5.006842939802218E-002
 -5.160152297946802E-002 -5.266055883330620E-002  0.000000000000000E+000
 -3.282172018590466E-004 -1.033620650049141E-003 -2.198955220658941E-003
 -4.476742922393904E-003 -7.979640656267073E-003 -1.263026983295655E-002
 -1.826709190868895E-002 -2.441396652989334E-002 -3.056244072773302E-002
 -3.622807327755116E-002 -4.107753596790794E-002 -4.495244726653555E-002
 -4.790767994332594E-002 -5.006842939802218E-002 -5.160152297946802E-002
 -5.266055883330620E-002
  0.203059516210698       0.397884117943055       0.589920765974253     
  0.828970598289479        1.06282500300005        1.27243189220524     
   1.45735281604026        1.60569722824041        1.72121063783756     
   1.80545372531303        1.86177172594150        1.89429677664905     
   1.91091171418763        1.91714134359487        1.92014254618023     
   1.92432870236026       0.290725583917792       0.592190459207679     
  0.900692746316459        1.27062257440384        1.64173859601361     
   1.98168834913079        2.28277211380218        2.52716383175706     
   2.71909903512014        2.86217689617315        2.96336768046219     
   3.03157876303998        3.08013642768945        3.11658991813281     
   3.14415773326920        3.16085959583855       0.370057785132243     
  0.762550748396092        1.16798543283581        1.64842788152068     
   2.14058382662883        2.60244156442066        3.01648980078850     
   3.35777852125665        3.62916313876265        3.83605952661181     
   3.98888499231720        4.09940652458340        4.18098807721679     
   4.23822009408332        4.27418034205544        4.29197441659090     
  0.450667959366808       0.933035191996833        1.43089996084098     
   2.01565263843049        2.62347964846217        3.20629576614994     
   3.73748796698301        4.18317402543041        4.54239660525251     
   4.82024199916641        5.02793091662348        5.17691594820263     
   5.28054124099561        5.34634970953405        5.38349159502869     
   5.40042340699892       0.535568456331094        1.11118631289535     
   1.70316625271357        2.39287194100097        3.11591196015116     
   3.82006444255254        4.47155188580228        5.02686581434640     
   5.47864699238431        5.82836835304848        6.08595023175044     
   6.26394122932363        6.38056019818705        6.44999493623927     
   6.48709238184565        6.50342292989457       0.625027757304891     
   1.29805871936259        1.98756263488790        2.78544202974550     
   3.62529101773645        4.45069243578613        5.22168681031263     
   5.88509847456342        6.42607236738379        6.84134741313378     
   7.14062519986776        7.34064480548785        7.46669144980166     
   7.53910604093667        7.57673242791633        7.59303838751317     
  0.716480849716456        1.48854727409493        2.27708783813214     
   3.18502307777651        4.14190006286472        5.08599871267289     
   5.97122828672374        6.73509472336027        7.35634713683888     
   7.82853421346730        8.16306286470358        8.38191861516735     
   8.51688830336838        8.59298635350814        8.63195728080547     
   8.64872839594428       0.804718804198466        1.67198855126869     
   2.55623693045992        3.57163821762884        4.64161293568189     
   5.69800362508750        6.68866389971064        7.54262343174116     
   8.23430054092488        8.75599750783940        9.12173355740803     
   9.35822235286118        9.50249083974437        9.58305727126857     
   9.62400771977826        9.64158900623120       0.883210575156390     
   1.83497537717744        2.80528068620787        3.91937936194129     
   5.09283503833174        6.25043246940414        7.33450493989804     
   8.26676178641013        9.01915531030919        9.58394052746472     
   9.97771707196623        10.2309127656629        10.3846414284656     
   10.4701019237346        10.5133815147049        10.5319712752571     
  0.945395126392149        1.96399277062435        3.00404269664797     
   4.20108470501143        5.46163209894756        6.70340271254799     
   7.86421532037980        8.85991028274173        9.66153250528333     
   10.2619094927363        10.6796963947652        10.9478680196130     
   11.1105280996096        11.2008203477316        11.2464899028840     
   11.2661569184189       0.985081349084782        2.04618883164719     
   3.13295677310592        4.38961342979906        5.71300729366240     
   7.01437308726851        8.22853690647090        9.26751338436314     
   10.1031218251295        10.7292224773035        11.1656514740934     
   11.4464191684799        11.6172247629262        11.7122337008915     
   11.7603705760040        11.7812018052039       0.996512176075555     
   2.06947703199262        3.17325881281629        4.45825848036934     
   5.81149177431362        7.13878689161580        8.37408682785317     
   9.42858830314111        10.2772708285839        10.9158010890785     
   11.3640362557798        11.6548548745261        11.8334593608991     
   11.9336511199324        11.9847877707106        12.0070964438992     
  0.975188602210245        2.02426054043670        3.10969873194498     
   4.38468341470472        5.72632142694339        7.03623985093079     
   8.24996235863231        9.28187745634209        10.1137290118020     
   10.7448235181404        11.1941443966294        11.4907146880570     