 Title = "Wing and Wake"
 VARIABLES = "X" "Y" "Z" "GAM" "skew"
 Zone I=   17 J=   20 K=1  T="Blade 01"
 DATAPACKING=BLOCK
 VARLOCATION=([4]=CELLCENTERED,[5]=CELLCENTERED)
 -0.430513849158921      -0.429910303138185      -0.428359101543295     
 -0.426024476766164      -0.422821316478709      -0.418619247494846     
 -0.413384201104881      -0.407273511467556      -0.400654849546592     
 -0.394046760924447      -0.387962931966231      -0.382762736937990     
 -0.378601189331784      -0.375432782779831      -0.373116208874660     
 -0.371472061910629      -0.370337574355281      -0.438573982144173     
 -0.437970436123437      -0.436419234528547      -0.434084609751417     
 -0.430881449463962      -0.426679380480098      -0.421444334090133     
 -0.415333644452809      -0.408714982531845      -0.402106893909699     
 -0.396023064951483      -0.390822869923243      -0.386661322317037     
 -0.383492915765084      -0.381176341859913      -0.379532194895881     
 -0.378397707340533      -0.449972847418062      -0.449369301397326     
 -0.447818099802435      -0.445483475025306      -0.442280314737850     
 -0.438078245753987      -0.432843199364022      -0.426732509726697     
 -0.420113847805733      -0.413505759183588      -0.407421930225372     
 -0.402221735197132      -0.398060187590925      -0.394891781038973     
 -0.392575207133801      -0.390931060169770      -0.389796572614422     
 -0.465886074787358      -0.465282528766623      -0.463731327171732     
 -0.461396702394602      -0.458193542107147      -0.453991473123284     
 -0.448756426733319      -0.442645737095994      -0.436027075175030     
 -0.429418986552884      -0.423335157594668      -0.418134962566428     
 -0.413973414960222      -0.410805008408269      -0.408488434503097     
 -0.406844287539067      -0.405709799983718      -0.487704880987043     
 -0.487101334966308      -0.485550133371418      -0.483215508594287     
 -0.480012348306832      -0.475810279322969      -0.470575232933004     
 -0.464464543295679      -0.457845881374715      -0.451237792752570     
 -0.445153963794354      -0.439953768766113      -0.435792221159907     
 -0.432623814607954      -0.430307240702783      -0.428663093738752     
 -0.427528606183403      -0.516893284438095      -0.516289738417360     
 -0.514738536822470      -0.512403912045340      -0.509200751757884     
 -0.504998682774021      -0.499763636384056      -0.493652946746731     
 -0.487034284825767      -0.480426196203622      -0.474342367245406     
 -0.469142172217166      -0.464980624610959      -0.461812218059007     
 -0.459495644153835      -0.457851497189804      -0.456717009634456     
 -0.554680271537798      -0.554076725517062      -0.552525523922172     
 -0.550190899145041      -0.546987738857586      -0.542785669873723     
 -0.537550623483758      -0.531439933846433      -0.524821271925469     
 -0.518213183303324      -0.512129354345108      -0.506929159316867     
 -0.502767611710661      -0.499599205158709      -0.497282631253537     
 -0.495638484289506      -0.494503996734158      -0.601574420773873     
 -0.600970874753137      -0.599419673158246      -0.597085048381117     
 -0.593881888093662      -0.589679819109798      -0.584444772719833     
 -0.578334083082508      -0.571715421161544      -0.565107332539399     
 -0.559023503581183      -0.553823308552943      -0.549661760946736     
 -0.546493354394784      -0.544176780489612      -0.542532633525581     
 -0.541398145970233      -0.656811361412186      -0.656207815391450     
 -0.654656613796560      -0.652321989019430      -0.649118828731975     
 -0.644916759748111      -0.639681713358146      -0.633571023720822     
 -0.626952361799858      -0.620344273177712      -0.614260444219496     
 -0.609060249191256      -0.604898701585049      -0.601730295033097     
 -0.599413721127926      -0.597769574163894      -0.596635086608546     
 -0.718012967668619      -0.717409421647884      -0.715858220052994     
 -0.713523595275864      -0.710320434988409      -0.706118366004545     
 -0.700883319614580      -0.694772629977255      -0.688153968056291     
 -0.681545879434146      -0.675462050475930      -0.670261855447690     
 -0.666100307841483      -0.662931901289531      -0.660615327384359     
 -0.658971180420328      -0.657836692864980      -0.781391579180502     
 -0.780788033159766      -0.779236831564876      -0.776902206787745     
 -0.773699046500291      -0.769496977516428      -0.764261931126462     
 -0.758151241489138      -0.751532579568173      -0.744924490946027     
 -0.738840661987812      -0.733640466959572      -0.729478919353366     
 -0.726310512801413      -0.723993938896241      -0.722349791932210     
 -0.721215304376862      -0.842593185436936      -0.841989639416200     
 -0.840438437821310      -0.838103813044180      -0.834900652756725     
 -0.830698583772861      -0.825463537382896      -0.819352847745571     
 -0.812734185824608      -0.806126097202462      -0.800042268244245     
 -0.794842073216006      -0.790680525609799      -0.787512119057846     
 -0.785195545152675      -0.783551398188644      -0.782416910633295     
 -0.897830126075249      -0.897226580054513      -0.895675378459623     
 -0.893340753682493      -0.890137593395038      -0.885935524411175     
 -0.880700478021209      -0.874589788383885      -0.867971126462920     
 -0.861363037840776      -0.855279208882559      -0.850079013854319     
 -0.845917466248112      -0.842749059696160      -0.840432485790989     
 -0.838788338826957      -0.837653851271609      -0.944724275311323     
 -0.944120729290588      -0.942569527695697      -0.940234902918568     
 -0.937031742631113      -0.932829673647249      -0.927594627257284     
 -0.921483937619960      -0.914865275698996      -0.908257187076850     
 -0.902173358118634      -0.896973163090394      -0.892811615484188     
 -0.889643208932236      -0.887326635027064      -0.885682488063032     
 -0.884548000507685      -0.982511262411025      -0.981907716390290     
 -0.980356514795400      -0.978021890018270      -0.974818729730815     
 -0.970616660746952      -0.965381614356986      -0.959270924719662     
 -0.952652262798698      -0.946044174176552      -0.939960345218335     
 -0.934760150190096      -0.930598602583889      -0.927430196031937     
 -0.925113622126764      -0.923469475162734      -0.922334987607385     
  -1.01169966586208       -1.01109611984134       -1.00954491824645     
  -1.00721029346932       -1.00400713318187      -0.999805064198004     
 -0.994570017808038      -0.988459328170714      -0.981840666249749     
 -0.975232577627605      -0.969148748669387      -0.963948553641148     
 -0.959787006034941      -0.956618599482989      -0.954302025577817     
 -0.952657878613786      -0.951523391058439       -1.03351847206176     
  -1.03291492604103       -1.03136372444614       -1.02902909966901     
  -1.02582593938155       -1.02162387039769       -1.01638882400772     
  -1.01027813437040       -1.00365947244944      -0.997051383827290     
 -0.990967554869072      -0.985767359840833      -0.981605812234627     
 -0.978437405682674      -0.976120831777504      -0.974476684813473     
 -0.973342197258124       -1.04943169943106       -1.04882815341032     
  -1.04727695181543       -1.04494232703830       -1.04173916675085     
  -1.03753709776699       -1.03230205137702       -1.02619136173970     
  -1.01957269981873       -1.01296461119659       -1.00688078223837     
  -1.00168058721013      -0.997519039603923      -0.994350633051971     
 -0.992034059146800      -0.990389912182768      -0.989255424627419     
  -1.06083056470495       -1.06022701868421       -1.05867581708932     
  -1.05634119231219       -1.05313803202474       -1.04893596304087     
  -1.04370091665091       -1.03759022701358       -1.03097156509262     
  -1.02436347647048       -1.01827964751226       -1.01307945248402     
  -1.00891790487781       -1.00574949832586       -1.00343292442069     
  -1.00178877745666       -1.00065428990131       -1.06889069769020     
  -1.06828715166947       -1.06673595007458       -1.06440132529744     
  -1.06119816500999       -1.05699609602613       -1.05176104963616     
  -1.04565035999884       -1.03903169807787       -1.03242360945573     
  -1.02633978049751       -1.02113958546927       -1.01697803786307     
  -1.01380963131111       -1.01149305740594       -1.00984891044191     
  -1.00871442288656     
  6.127486934804770E-002  6.292834910582838E-002  6.717803404992251E-002
  7.357399173727902E-002  8.234939661821630E-002  9.386142017053453E-002
  0.108203397318026       0.124944294075296       0.143076835975860     
  0.161180411177997       0.177847720192726       0.192094218256330     
  0.203495229101395       0.212175422356066       0.218521927722691     
  0.223026246582301       0.226134298236649       6.421694418564858E-002
  6.587042394342918E-002  7.012010888752374E-002  7.651606657488007E-002
  8.529147145581746E-002  9.680349500813579E-002  0.111145472155627     
  0.127886368912897       0.146018910813461       0.164122486015598     
  0.180789795030326       0.195036293093931       0.206437303938997     
  0.215117497193668       0.221464002560292       0.225968321419903     
  0.229076373074250       6.837770862475571E-002  7.003118838253627E-002
  7.428087332663066E-002  8.067683101398714E-002  8.945223589492425E-002
  0.100964259447243       0.115306236594734       0.132047133352004     
  0.150179675252568       0.168283250454705       0.184950559469434     
  0.199197057533038       0.210598068378103       0.219278261632774     
  0.225624766999400       0.230129085859010       0.233237137513357     
  7.418628596633235E-002  7.583976572411304E-002  8.008945066820698E-002
  8.648540835556344E-002  9.526081323650133E-002  0.106772836788819     
  0.121114813936311       0.137855710693580       0.155988252594145     
  0.174091827796282       0.190759136811010       0.205005634874614     
  0.216406645719680       0.225086838974351       0.231433344340976     
  0.235937663200586       0.239045714854934       8.215049211827037E-002
  8.380397187605111E-002  8.805365682014514E-002  9.444961450750224E-002
  0.103225019388439       0.114737042940758       0.129079020088249     
  0.145819916845519       0.163952458746083       0.182056033948220     
  0.198723342962948       0.212969841026552       0.224370851871618     
  0.233051045126289       0.239397550492914       0.243901869352524     
  0.247009921006872       9.280471674461488E-002  9.445819650239572E-002
  9.870788144648979E-002  0.105103839133847       0.113879244014784     
  0.125391267567102       0.139733244714594       0.156474141471863     
  0.174606683372427       0.192710258574564       0.209377567589293     
  0.223624065652897       0.235025076497962       0.243705269752634     
  0.250051775119259       0.254556093978869       0.257664145633216     
  0.106597559137935       0.108251038895716       0.112500723839810     
  0.118896681527167       0.127672086408104       0.139184109960422     
  0.153526087107914       0.170266983865183       0.188399525765747     
  0.206503100967884       0.223170409982613       0.237416908046217     
  0.248817918891283       0.257498112145954       0.263844617512579     
  0.268348936372189       0.271456988026536       0.123714658415403     
  0.125368138173184       0.129617823117278       0.136013780804635     
  0.144789185685573       0.156301209237891       0.170643186385382     
  0.187384083142652       0.205516625043216       0.223620200245353     
  0.240287509260082       0.254534007323686       0.265935018168751     
  0.274615211423422       0.280961716790047       0.285466035649657     
  0.288574087304005       0.143877007281779       0.145530487039560     
  0.149780171983655       0.156176129671011       0.164951534551948     
  0.176463558104266       0.190805535251758       0.207546432009028     
  0.225678973909592       0.243782549111729       0.260449858126458     
  0.274696356190061       0.286097367035127       0.294777560289799     
  0.301124065656423       0.305628384516034       0.308736436170381     
  0.166216552561897       0.167870032319678       0.172119717263772     
  0.178515674951129       0.187291079832066       0.198803103384385     
  0.213145080531877       0.229885977289146       0.248018519189710     
  0.266122094391847       0.282789403406576       0.297035901470180     
  0.308436912315245       0.317117105569916       0.323463610936541     
  0.327967929796151       0.331075981450499       0.189350738872765     
  0.191004218630546       0.195253903574641       0.201649861261997     
  0.210425266142934       0.221937289695253       0.236279266842744     
  0.253020163600014       0.271152705500578       0.289256280702715     
  0.305923589717443       0.320170087781048       0.331571098626113     
  0.340251291880784       0.346597797247409       0.351102116107019     
  0.354210167761367       0.211690284152883       0.213343763910664     
  0.217593448854758       0.223989406542115       0.232764811423053     
  0.244276834975370       0.258618812122862       0.275359708880131     
  0.293492250780696       0.311595825982833       0.328263134997561     
  0.342509633061165       0.353910643906231       0.362590837160903     
  0.368937342527528       0.373441661387137       0.376549713041485     
  0.231852633019260       0.233506112777040       0.237755797721134     
  0.244151755408491       0.252927160289428       0.264439183841746     
  0.278781160989238       0.295522057746508       0.313654599647072     
  0.331758174849209       0.348425483863937       0.362671981927542     
  0.374072992772607       0.382753186027278       0.389099691393903     
  0.393604010253513       0.396712061907861       0.248969732296728     
  0.250623212054509       0.254872896998603       0.261268854685959     
  0.270044259566897       0.281556283119214       0.295898260266707     
  0.312639157023976       0.330771698924540       0.348875274126677     
  0.365542583141406       0.379789081205010       0.391190092050075     
  0.399870285304747       0.406216790671371       0.410721109530982     
  0.413829161185330       0.262762574690048       0.264416054447829     
  0.268665739391923       0.275061697079280       0.283837101960217     
  0.295349125512535       0.309691102660027       0.326431999417297     
  0.344564541317861       0.362668116519998       0.379335425534726     
  0.393581923598329       0.404982934443395       0.413663127698067     
  0.420009633064691       0.424513951924302       0.427622003578649     
  0.273416799316392       0.275070279074173       0.279319964018268     
  0.285715921705624       0.294491326586561       0.306003350138879     
  0.320345327286371       0.337086224043641       0.355218765944204     
  0.373322341146342       0.389989650161071       0.404236148224674     
  0.415637159069740       0.424317352324411       0.430663857691036     
  0.435168176550646       0.438276228204994       0.281381005468331     
  0.283034485226112       0.287284170170206       0.293680127857563     
  0.302455532738500       0.313967556290818       0.328309533438309     
  0.345050430195579       0.363182972096143       0.381286547298280     
  0.397953856313008       0.412200354376613       0.423601365221678     
  0.432281558476349       0.438628063842975       0.443132382702585     
  0.446240434356932       0.287189582809907       0.288843062567687     
  0.293092747511782       0.299488705199139       0.308264110080077     
  0.319776133632395       0.334118110779887       0.350859007537156     
  0.368991549437720       0.387095124639857       0.403762433654585     
  0.418008931718189       0.429409942563254       0.438090135817926     
  0.444436641184552       0.448940960044161       0.452049011698509     
  0.291350347249014       0.293003827006795       0.297253511950889     
  0.303649469638246       0.312424874519183       0.323936898071501     
  0.338278875218993       0.355019771976263       0.373152313876827     
  0.391255889078964       0.407923198093693       0.422169696157296     
  0.433570707002361       0.442250900257034       0.448597405623658     
  0.453101724483268       0.456209776137615       0.294292422086615     
  0.295945901844396       0.300195586788491       0.306591544475847     
  0.315366949356785       0.326878972909102       0.341220950056594     
  0.357961846813864       0.376094388714428       0.394197963916564     
  0.410865272931293       0.425111770994897       0.436512781839963     
  0.445192975094634       0.451539480461259       0.456043799320870     
  0.459151850975217     
  0.000000000000000E+000 -2.059343134687265E-004 -5.967154644315922E-004
 -1.288783171780619E-003 -2.918895425121374E-003 -5.573396522451829E-003
 -9.167771110016921E-003 -1.357217217812317E-002 -1.838427778900438E-002
 -2.320014315178548E-002 -2.763890288787426E-002 -3.143970394449276E-002
 -3.447539076661003E-002 -3.679168976136481E-002 -3.848528426515805E-002
 -3.968682183911389E-002 -4.051708164825068E-002  0.000000000000000E+000
 -2.059343134687265E-004 -5.967154644315922E-004 -1.288783171780619E-003
 -2.918895425121374E-003 -5.573396522451829E-003 -9.167771110016921E-003
 -1.357217217812317E-002 -1.838427778900438E-002 -2.320014315178548E-002
 -2.763890288787426E-002 -3.143970394449276E-002 -3.447539076661003E-002
 -3.679168976136481E-002 -3.848528426515805E-002 -3.968682183911389E-002
 -4.051708164825068E-002  0.000000000000000E+000 -2.059343134687265E-004
 -5.967154644315922E-004 -1.288783171780619E-003 -2.918895425121374E-003
 -5.573396522451829E-003 -9.167771110016921E-003 -1.357217217812317E-002
 -1.838427778900438E-002 -2.320014315178548E-002 -2.763890288787426E-002
 -3.143970394449276E-002 -3.447539076661003E-002 -3.679168976136481E-002
 -3.848528426515805E-002 -3.968682183911389E-002 -4.051708164825068E-002
  0.000000000000000E+000 -2.059343134687265E-004 -5.967154644315922E-004
 -1.288783171780619E-003 -2.918895425121374E-003 -5.573396522451829E-003
 -9.167771110016921E-003 -1.357217217812317E-002 -1.838427778900438E-002
 -2.320014315178548E-002 -2.763890288787426E-002 -3.143970394449276E-002
 -3.447539076661003E-002 -3.679168976136481E-002 -3.848528426515805E-002
 -3.968682183911389E-002 -4.051708164825068E-002  0.000000000000000E+000
 -2.059343134687265E-004 -5.967154644315922E-004 -1.288783171780619E-003
 -2.918895425121374E-003 -5.573396522451829E-003 -9.167771110016921E-003
 -1.357217217812317E-002 -1.838427778900438E-002 -2.320014315178548E-002
 -2.763890288787426E-002 -3.143970394449276E-002 -3.447539076661003E-002
 -3.679168976136481E-002 -3.848528426515805E-002 -3.968682183911389E-002
 -4.051708164825068E-002  0.000000000000000E+000 -2.059343134687265E-004
 -5.967154644315922E-004 -1.288783171780619E-003 -2.918895425121374E-003
 -5.573396522451829E-003 -9.167771110016921E-003 -1.357217217812317E-002
 -1.838427778900438E-002 -2.320014315178548E-002 -2.763890288787426E-002
 -3.143970394449276E-002 -3.447539076661003E-002 -3.679168976136481E-002
 -3.848528426515805E-002 -3.968682183911389E-002 -4.051708164825068E-002
  0.000000000000000E+000 -2.059343134687265E-004 -5.967154644315922E-004
 -1.288783171780619E-003 -2.918895425121374E-003 -5.573396522451829E-003
 -9.167771110016921E-003 -1.357217217812317E-002 -1.838427778900438E-002
 -2.320014315178548E-002 -2.763890288787426E-002 -3.143970394449276E-002
 -3.447539076661003E-002 -3.679168976136481E-002 -3.848528426515805E-002
 -3.968682183911389E-002 -4.051708164825068E-002  0.000000000000000E+000
 -2.059343134687265E-004 -5.967154644315922E-004 -1.288783171780619E-003
 -2.918895425121374E-003 -5.573396522451829E-003 -9.167771110016921E-003
 -1.357217217812317E-002 -1.838427778900438E-002 -2.320014315178548E-002
 -2.763890288787426E-002 -3.143970394449276E-002 -3.447539076661003E-002
 -3.679168976136481E-002 -3.848528426515805E-002 -3.968682183911389E-002
 -4.051708164825068E-002  0.000000000000000E+000 -2.059343134687265E-004
 -5.967154644315922E-004 -1.288783171780619E-003 -2.918895425121374E-003
 -5.573396522451829E-003 -9.167771110016921E-003 -1.357217217812317E-002
 -1.838427778900438E-002 -2.320014315178548E-002 -2.763890288787426E-002
 -3.143970394449276E-002 -3.447539076661003E-002 -3.679168976136481E-002
 -3.848528426515805E-002 -3.968682183911389E-002 -4.051708164825068E-002
  0.000000000000000E+000 -2.059343134687265E-004 -5.967154644315922E-004
 -1.288783171780619E-003 -2.918895425121374E-003 -5.573396522451829E-003
 -9.167771110016921E-003 -1.357217217812317E-002 -1.838427778900438E-002
 -2.320014315178548E-002 -2.763890288787426E-002 -3.143970394449276E-002
 -3.447539076661003E-002 -3.679168976136481E-002 -3.848528426515805E-002
 -3.968682183911389E-002 -4.051708164825068E-002  0.000000000000000E+000
 -2.059343134687265E-004 -5.967154644315922E-004 -1.288783171780619E-003
 -2.918895425121374E-003 -5.573396522451829E-003 -9.167771110016921E-003
 -1.357217217812317E-002 -1.838427778900438E-002 -2.320014315178548E-002
 -2.763890288787426E-002 -3.143970394449276E-002 -3.447539076661003E-002
 -3.679168976136481E-002 -3.848528426515805E-002 -3.968682183911389E-002
 -4.051708164825068E-002  0.000000000000000E+000 -2.059343134687265E-004
 -5.967154644315922E-004 -1.288783171780619E-003 -2.918895425121374E-003
 -5.573396522451829E-003 -9.167771110016921E-003 -1.357217217812317E-002
 -1.838427778900438E-002 -2.320014315178548E-002 -2.763890288787426E-002
 -3.143970394449276E-002 -3.447539076661003E-002 -3.679168976136481E-002
 -3.848528426515805E-002 -3.968682183911389E-002 -4.051708164825068E-002
  0.000000000000000E+000 -2.059343134687265E-004 -5.967154644315922E-004
 -1.288783171780619E-003 -2.918895425121374E-003 -5.573396522451829E-003
 -9.167771110016921E-003 -1.357217217812317E-002 -1.838427778900438E-002
 -2.320014315178548E-002 -2.763890288787426E-002 -3.143970394449276E-002
 -3.447539076661003E-002 -3.679168976136481E-002 -3.848528426515805E-002
 -3.968682183911389E-002 -4.051708164825068E-002  0.000000000000000E+000
 -2.059343134687265E-004 -5.967154644315922E-004 -1.288783171780619E-003
 -2.918895425121374E-003 -5.573396522451829E-003 -9.167771110016921E-003
 -1.357217217812317E-002 -1.838427778900438E-002 -2.320014315178548E-002
 -2.763890288787426E-002 -3.143970394449276E-002 -3.447539076661003E-002
 -3.679168976136481E-002 -3.848528426515805E-002 -3.968682183911389E-002
 -4.051708164825068E-002  0.000000000000000E+000 -2.059343134687265E-004
 -5.967154644315922E-004 -1.288783171780619E-003 -2.918895425121374E-003
 -5.573396522451829E-003 -9.167771110016921E-003 -1.357217217812317E-002
 -1.838427778900438E-002 -2.320014315178548E-002 -2.763890288787426E-002
 -3.143970394449276E-002 -3.447539076661003E-002 -3.679168976136481E-002
 -3.848528426515805E-002 -3.968682183911389E-002 -4.051708164825068E-002
  0.000000000000000E+000 -2.059343134687265E-004 -5.967154644315922E-004
 -1.288783171780619E-003 -2.918895425121374E-003 -5.573396522451829E-003
 -9.167771110016921E-003 -1.357217217812317E-002 -1.838427778900438E-002
 -2.320014315178548E-002 -2.763890288787426E-002 -3.143970394449276E-002
 -3.447539076661003E-002 -3.679168976136481E-002 -3.848528426515805E-002
 -3.968682183911389E-002 -4.051708164825068E-002  0.000000000000000E+000
 -2.059343134687265E-004 -5.967154644315922E-004 -1.288783171780619E-003
 -2.918895425121374E-003 -5.573396522451829E-003 -9.167771110016921E-003
 -1.357217217812317E-002 -1.838427778900438E-002 -2.320014315178548E-002
 -2.763890288787426E-002 -3.143970394449276E-002 -3.447539076661003E-002
 -3.679168976136481E-002 -3.848528426515805E-002 -3.968682183911389E-002
 -4.051708164825068E-002  0.000000000000000E+000 -2.059343134687265E-004
 -5.967154644315922E-004 -1.288783171780619E-003 -2.918895425121374E-003
 -5.573396522451829E-003 -9.167771110016921E-003 -1.357217217812317E-002
 -1.838427778900438E-002 -2.320014315178548E-002 -2.763890288787426E-002
 -3.143970394449276E-002 -3.447539076661003E-002 -3.679168976136481E-002
 -3.848528426515805E-002 -3.968682183911389E-002 -4.051708164825068E-002
  0.000000000000000E+000 -2.059343134687265E-004 -5.967154644315922E-004
 -1.288783171780619E-003 -2.918895425121374E-003 -5.573396522451829E-003
 -9.167771110016921E-003 -1.357217217812317E-002 -1.838427778900438E-002
 -2.320014315178548E-002 -2.763890288787426E-002 -3.143970394449276E-002
 -3.447539076661003E-002 -3.679168976136481E-002 -3.848528426515805E-002
 -3.968682183911389E-002 -4.051708164825068E-002  0.000000000000000E+000
 -2.059343134687265E-004 -5.967154644315922E-004 -1.288783171780619E-003
 -2.918895425121374E-003 -5.573396522451829E-003 -9.167771110016921E-003
 -1.357217217812317E-002 -1.838427778900438E-002 -2.320014315178548E-002
 -2.763890288787426E-002 -3.143970394449276E-002 -3.447539076661003E-002
 -3.679168976136481E-002 -3.848528426515805E-002 -3.968682183911389E-002
 -4.051708164825068E-002
 -3.652566894077616E-002 -7.201081841679383E-002 -5.909643037838601E-002
  2.877323469299942E-002  0.124510108348451       0.205643741907526     
  0.274096557192590       0.321609232819437       0.355532786708336     
  0.378738121847517       0.393421943920958       0.400725557140654     
  0.404463204782349       0.405365715119392       0.405383146839926     
  0.405587667511489      -3.513107504352734E-002 -6.899786103335653E-002
 -4.673213731466970E-002  6.975788521828889E-002  0.208435538226876     
  0.334326179444117       0.442891847804657       0.521136218207133     
  0.577876673533184       0.617667301497335       0.644343820299236     
  0.660621329647432       0.672226780096486       0.680459372146731     
  0.686399109620038       0.689498636013403      -2.413388593911043E-002
 -4.563137107609891E-002 -7.975867602282822E-003  0.132289157843241     
  0.303503203247214       0.466779957486452       0.611795641396616     
  0.720637107091044       0.801446817141162       0.859768704265700     
  0.900895049379045       0.928737270930515       0.949506017554841     
  0.963897217900362       0.972798644820870       0.976583258853743     
 -6.404021609994468E-003 -8.407630030337742E-003  5.079956844502306E-002
  0.218922902611209       0.423134842920129       0.622885874501033     
  0.804749398340781       0.946463089455480        1.05451159527949     
   1.13444875106172        1.19223680737822        1.23214036557922     
   1.26066561562469        1.27911127607101        1.28965756129870     
   1.29382303106497       1.769247038471650E-002  4.191068755295110E-002
  0.129306610978162       0.332276680566739       0.575145678859779     
  0.815215636815564        1.03705985321531        1.21482691081840     
   1.35322056283194        1.45695972757247        1.53200190491500     
   1.58308068674579        1.61805801269785        1.63978578208934     
   1.65185793767508        1.65654337693497       4.819002913144941E-002
  0.105435979286581       0.228111083211898       0.474273188424000     
  0.763843075473882        1.05090295075456        1.31785020719979     
   1.53523311560361        1.70620219157699        1.83457878396134     
   1.92657301463927        1.98811527922070        2.02914145027827     
   2.05415874418962        2.06793636764023        2.07329935924579     
  8.452282509044437E-002  0.181021045479782       0.345712369990439     
  0.643451128845267       0.988163351943884        1.32951989834495     
   1.64714329302390        1.90748772109953        2.11251966634950     
   2.26574690910865        2.37436249577586        2.44606341157192     
   2.49309755237265        2.52147928712671        2.53702788935469     
   2.54313132320847       0.125129382496161       0.265439788756860     
  0.477354801252904       0.833588587323833        1.24050899054027     
   1.64224344928387        2.01504440255837        2.32075218406560     
   2.56057568448957        2.73839336440997        2.86304685315500     
   2.94435974781075        2.99700575060946        3.02842795472655     
   3.04551075058954        3.05227861506157       0.168350861166959     
  0.355248753641638       0.617752444995459        1.03724927855352     
   1.51121989448401        1.97731412546663        2.40793212007794     
   2.75987983929390        3.03396540840081        3.23499655201509     
   3.37401168869825        3.46330727224987        3.52018686092608     
   3.55357886245103        3.57150174659804        3.57866543442172     
  0.215027806837674       0.452132238922936       0.768913890247708     
   1.25595659412583        1.80103403717045        2.33465788065396     
   2.82497669765276        3.22346394033256        3.53075842410149     
   3.75300734335416        3.90390957226937        3.99865124199160     
   4.05751979578697        4.09114134800992        4.10879216128817     
   4.11591163898551       0.270994794075223       0.567994226406467     
  0.947552477510203        1.50981076617407        2.13281855608790     
   2.73967359150514        3.29408145715702        3.74228199752709     
   4.08501848121697        4.32997027780140        4.49352686267758     
   4.59380373656265        4.65426001849589        4.68751466011648     
   4.70440200975618        4.71131775940354       0.342665034203168     
  0.715767015820237        1.17146510611178        1.81956423413334     
   2.52924157098857        3.21651226948240        3.84116993500003     
   4.34549779964936        4.73133085000049        5.00799772920229     
   5.19359838273573        5.30780714514275        5.37629862088895     
   5.41346955964402        5.43203907630916        5.43988858180196     
  0.423405847163211       0.881321764274824        1.41838010049100     
   2.15309320615260        2.94692331368193        3.70979569636119     
   4.39928024463698        4.95681192186927        5.38789778127340     
   5.70437036940555        5.92441719386945        6.06625405597823     