 Title = "Wing and Wake"
 VARIABLES = "X" "Y" "Z" "GAM" "skew"
 Zone I=   17 J=   20 K=1  T="Blade 01"
 DATAPACKING=BLOCK
 VARLOCATION=([4]=CELLCENTERED,[5]=CELLCENTERED)
  0.430513849156733       0.429910303135937       0.428359101540892     
  0.426024476763535       0.422821316475766       0.418619247491489     
  0.413384201101013       0.407273511463085       0.400654849541477     
  0.394046760918681       0.387962931959866       0.382762736931117     
  0.378601189324503       0.375432782772238       0.373116208866842     
  0.371472061902649       0.370337574347186       0.438573982141877     
  0.437970436121083       0.436419234526039       0.434084609748683     
  0.430881449460913       0.426679380476636       0.421444334086159     
  0.415333644448234       0.408714982526622       0.402106893903827     
  0.396023064945017       0.390822869916267       0.386661322309651     
  0.383492915757387       0.381176341851988       0.379532194887797     
  0.378397707332338       0.449972847415619       0.449369301394823     
  0.447818099799781       0.445483475022422       0.442280314734652     
  0.438078245750375       0.432843199359898       0.426732509721975     
  0.420113847800362       0.413505759177568       0.407421930218753     
  0.402221735190006       0.398060187583392       0.394891781031127     
  0.392575207125726       0.390931060161534       0.389796572606076     
  0.465886074784708       0.465282528763913       0.463731327168869     
  0.461396702391509       0.458193542103742       0.453991473119468     
  0.448756426728988       0.442645737091064       0.436027075169450     
  0.429418986546656       0.423335157587842       0.418134962559095     
  0.413973414952476       0.410805008400216       0.408488434494817     
  0.406844287530622       0.405709799975166       0.487704880984109     
  0.487101334963313       0.485550133368272       0.483215508590913     
  0.480012348303139       0.475810279318865       0.470575232928388     
  0.464464543290463       0.457845881368853       0.451237792746057     
  0.445153963787245       0.439953768758493       0.435792221151879     
  0.432623814599614       0.430307240694217       0.428663093730024     
  0.427528606174565       0.516893284434779       0.516289738413984     
  0.514738536818942       0.512403912041582       0.509200751753814     
  0.504998682769536       0.499763636379056       0.493652946741133     
  0.487034284819522       0.480426196196730       0.474342367237915     
  0.469142172209165       0.464980624602553       0.461812218050283     
  0.459495644144883       0.457851497180697       0.456717009625237     
  0.554680271533989       0.554076725513192       0.552525523918154     
  0.550190899140788       0.546987738853019       0.542785669868742     
  0.537550623478264       0.531439933840344       0.524821271918730     
  0.518213183295936       0.512129354337124       0.506929159308369     
  0.502767611701761       0.499599205149493       0.497282631244097     
  0.495638484279906       0.494503996724448       0.601574420769447     
  0.600970874748651       0.599419673153608       0.597085048376256     
  0.593881888088487       0.589679819104214       0.584444772713734     
  0.578334083075807       0.571715421154191       0.565107332531400     
  0.559023503572587       0.553823308543841       0.549661760937218     
  0.546493354384959       0.544176780479560       0.542532633515365     
  0.541398145959909       0.656811361407037       0.656207815386245     
  0.654656613791205       0.652321989013845       0.649118828726076     
  0.644916759741799       0.639681713351324       0.633571023713402     
  0.626952361791786       0.620344273168991       0.614260444210175     
  0.609060249181427       0.604898701574815       0.601730295022551     
  0.599413721117150       0.597769574152958       0.596635086597498     
  0.718012967662674       0.717409421641878       0.715858220046837     
  0.713523595269477       0.710320434981712       0.706118365997434     
  0.700883319606957       0.694772629969033       0.688153968047420     
  0.681545879424628       0.675462050465816       0.670261855437068     
  0.666100307830447       0.662931901278183       0.660615327372788     
  0.658971180408591       0.657836692853135       0.781391579173732     
  0.780788033152940       0.779236831557896       0.776902206780535     
  0.773699046492770       0.769496977508493       0.764261931118014     
  0.758151241480091       0.751532579558470       0.744924490935679     
  0.738840661976866       0.733640466948117       0.729478919341499     
  0.726310512789244       0.723993938883839       0.722349791919647     
  0.721215304364189       0.842593185429370       0.841989639408572     
  0.840438437813529       0.838103813036173       0.834900652748399     
  0.830698583764128       0.825463537373645       0.819352847735724     
  0.812734185814108       0.806126097191316       0.800042268232504     
  0.794842073203748       0.790680525597139       0.787512119044876     
  0.785195545139477       0.783551398175285       0.782416910619820     
  0.897830126066958       0.897226580046167       0.895675378451120     
  0.893340753673762       0.890137593385992       0.885935524401715     
  0.880700478011232       0.874589788373314       0.867971126451705     
  0.861363037828902       0.855279208870097       0.850079013841347     
  0.845917466234723       0.842749059682467       0.840432485777069     
  0.838788338812876       0.837653851257414       0.944724275302416     
  0.944120729281626       0.942569527686585       0.940234902909224     
  0.937031742621454       0.932829673637179       0.927594627246701     
  0.921483937608779       0.914865275687164       0.908257187064375     
  0.902173358105558       0.896973163076812       0.892811615470193     
  0.889643208917930       0.887326635012532       0.885682488048338     
  0.884548000492882       0.982511262401625       0.981907716380834     
  0.980356514785789       0.978021890008426       0.974818729720665     
  0.970616660736389       0.965381614345903       0.959270924707988     
  0.952652262786375       0.946044174163579       0.939960345204766     
  0.934760150176016       0.930598602569403       0.927430196017138     
  0.925113622111735       0.923469475147549       0.922334987592088     
   1.01169966585229        1.01109611983150        1.00954491823647     
   1.00721029345910        1.00400713317134       0.999805064187064     
  0.994570017796572       0.988459328158660       0.981840666237035     
  0.975232577614257       0.969148748655445       0.963948553626687     
  0.959787006020074       0.956618599467807       0.954302025562413     
  0.952657878598216       0.951523391042761        1.03351847205170     
   1.03291492603091        1.03136372443587        1.02902909965851     
   1.02582593937073        1.02162387038646        1.01638882399598     
   1.01027813435806        1.00365947243644       0.997051383813654     
  0.990967554854827       0.985767359826085       0.981605812219470     
  0.978437405667210       0.976120831761801       0.974476684797617     
  0.973342197242153        1.04943169942080        1.04882815339999     
   1.04727695180495        1.04494232702760        1.04173916673982     
   1.03753709775555        1.03230205136507        1.02619136172715     
   1.01957269980553        1.01296461118274        1.00688078222392     
   1.00168058719517       0.997519039588563       0.994350633036300     
  0.992034059130901       0.990389912166712       0.989255424611246     
   1.06083056469453        1.06022701867373        1.05867581707869     
   1.05634119230133        1.05313803201356        1.04893596302929     
   1.04370091663881        1.03759022700088        1.03097156507928     
   1.02436347645647        1.01827964749766        1.01307945246892     
   1.00891790486230        1.00574949831003        1.00343292440464     
   1.00178877744045        1.00065428988499        1.06889069767968     
   1.06828715165889        1.06673595006384        1.06440132528648     
   1.06119816499871        1.05699609601443        1.05176104962395     
   1.04565035998603        1.03903169806442        1.03242360944163     
   1.02633978048281        1.02113958545406        1.01697803784745     
   1.01380963129519        1.01149305738979        1.00984891042560     
   1.00871442287013     
 -6.127486936346011E-002 -6.292834912121914E-002 -6.717803406525920E-002
 -7.357399175253149E-002 -8.234939663335385E-002 -9.386142018552181E-002
 -0.108203397332827      -0.124944294089876      -0.143076835990205     
 -0.161180411192104      -0.177847720206614      -0.192094218270034     
 -0.203495229114948      -0.212175422369509      -0.218521927736053     
 -0.223026246595602      -0.226134298249906      -6.421694420134924E-002
 -6.587042395910968E-002 -7.012010890314774E-002 -7.651606659042139E-002
 -8.529147147124438E-002 -9.680349502341118E-002 -0.111145472170715     
 -0.127886368927768      -0.146018910828092      -0.164122486029995     
 -0.180789795044506      -0.195036293107923      -0.206437303952841     
 -0.215117497207398      -0.221464002573940      -0.225968321433493     
 -0.229076373087799      -6.837770864086583E-002 -7.003118839862579E-002
 -7.428087334266212E-002 -8.067683102993634E-002 -8.945223591075900E-002
 -0.100964259462926      -0.115306236610230      -0.132047133367282     
 -0.150179675267610      -0.168283250469511      -0.184950559484022     
 -0.199197057547440      -0.210598068392356      -0.219278261646913     
 -0.225624767013454      -0.230129085873002      -0.233237137527314     
 -7.418628598301119E-002 -7.583976574077013E-002 -8.008945068480866E-002
 -8.648540837208306E-002 -9.526081325290535E-002 -0.106772836805072     
 -0.121114813952377      -0.137855710709429      -0.155988252609757     
 -0.174091827811657      -0.190759136826165      -0.205005634889586     
 -0.216406645734500      -0.225086838989060      -0.231433344355602     
 -0.235937663215154      -0.239045714869461      -8.215049213573081E-002
 -8.380397189349015E-002 -8.805365683752868E-002 -9.444961452480251E-002
 -0.103225019405626      -0.114737042957792      -0.129079020105097     
 -0.145819916862148      -0.163952458762474      -0.182056033964375     
 -0.198723342978887      -0.212969841042305      -0.224370851887223     
 -0.233051045141778      -0.239397550508322      -0.243901869367872     
 -0.247009921022178      -9.280471676311979E-002 -9.445819652088040E-002
 -9.870788146491921E-002 -0.105103839152192      -0.113879244033014     
 -0.125391267585182      -0.139733244732487      -0.156474141489537     
 -0.174606683389865      -0.192710258591766      -0.209377567606276     
 -0.223624065669694      -0.235025076514613      -0.243705269769168     
 -0.250051775135709      -0.254556093995263      -0.257664145649571     
 -0.106597559157794      -0.108251038915554      -0.112500723859592     
 -0.118896681546864      -0.127672086427689      -0.139184109979850     
 -0.153526087127160      -0.170266983884210      -0.188399525784540     
 -0.206503100986438      -0.223170410000950      -0.237416908064361     
 -0.248817918909285      -0.257498112163840      -0.263844617530385     
 -0.268348936389937      -0.271456988044245      -0.123714658436939     
 -0.125368138194699      -0.129617823138737      -0.136013780826013     
 -0.144789185706835      -0.156301209259002      -0.170643186406306     
 -0.187384083163359      -0.205516625063683      -0.223620200265584     
 -0.240287509280097      -0.254534007343515      -0.265935018188425     
 -0.274615211442988      -0.280961716809533      -0.285466035669080     
 -0.288574087323389      -0.143877007305290      -0.145530487063055     
 -0.149780172007094      -0.156176129694362      -0.164951534575188     
 -0.176463558127358      -0.190805535274661      -0.207546432031714     
 -0.225678973932040      -0.243782549133938      -0.260449858148449     
 -0.274696356211863      -0.286097367056786      -0.294777560311342     
 -0.301124065677880      -0.305628384537436      -0.308736436191740     
 -0.166216552587600      -0.167870032345364      -0.172119717289401     
 -0.178515674976670      -0.187291079857499      -0.198803103409664     
 -0.213145080556967      -0.229885977314021      -0.248018519214349     
 -0.266122094416250      -0.282789403430759      -0.297035901494180     
 -0.308436912339094      -0.317117105593652      -0.323463610960193     
 -0.327967929819745      -0.331075981474053      -0.189350738900740     
 -0.191004218658501      -0.195253903602541      -0.201649861289807     
 -0.210425266170634      -0.221937289722804      -0.236279266870108     
 -0.253020163627160      -0.271152705527478      -0.289256280729385     
 -0.305923589743895      -0.320170087807309      -0.331571098652229     
 -0.340251291906787      -0.346597797273333      -0.351102116132882     
 -0.354210167787188      -0.211690284183049      -0.213343763940811     
 -0.217593448884850      -0.223989406572120      -0.232764811452943     
 -0.244276835005112      -0.258618812152414      -0.275359708909465     
 -0.293492250809793      -0.311595826011698      -0.328263135026204     
 -0.342509633089614      -0.353910643934542      -0.362590837189098     
 -0.368937342555641      -0.373441661415191      -0.376549713069500     
 -0.231852633051405      -0.233506112809159      -0.237755797753201     
 -0.244151755440474      -0.252927160321301      -0.264439183873466     
 -0.278781161020769      -0.295522057777823      -0.313654599678148     
 -0.331758174880039      -0.348425483894560      -0.362671981957977     
 -0.374072992802884      -0.382753186057450      -0.389099691423992     
 -0.393604010283547      -0.396712061937848      -0.248969732330549     
 -0.250623212088312      -0.254872897032348      -0.261268854719624     
 -0.270044259600443      -0.281556283152610      -0.295898260299918     
 -0.312639157056961      -0.330771698957295      -0.348875274159196     
 -0.365542583173704      -0.379789081237127      -0.391190092082041     
 -0.399870285336599      -0.406216790703141      -0.410721109562692     
 -0.413829161217001      -0.262762574725222      -0.264416054482983     
 -0.268665739427021      -0.275061697114287      -0.283837101995113     
 -0.295349125547287      -0.309691102694581      -0.326431999451641     
 -0.344564541351972      -0.362668116553868      -0.379335425568378     
 -0.393581923631796      -0.404982934476714      -0.413663127731272     
 -0.420009633097812      -0.424513951957361      -0.427622003611674     
 -0.273416799352610      -0.275070279110378      -0.279319964054412     
 -0.285715921741687      -0.294491326622510      -0.306003350174676     
 -0.320345327321980      -0.337086224079033      -0.355218765979347     
 -0.373322341181258      -0.389989650195769      -0.404236148259182     
 -0.415637159104105      -0.424317352358658      -0.430663857725206     
 -0.435168176584755      -0.438276228239065      -0.281381005505330     
 -0.283034485263094      -0.287284170207131      -0.293680127894405     
 -0.302455532775222      -0.313967556327397      -0.328309533474699     
 -0.345050430231752      -0.363182972132077      -0.381286547333982     
 -0.397953856348480      -0.412200354411907      -0.423601365256824     
 -0.432281558511384      -0.438628063877917      -0.443132382737470     
 -0.446240434391780      -0.287189582847479      -0.288843062605238     
 -0.293092747549281      -0.299488705236549      -0.308264110117362     
 -0.319776133669544      -0.334118110816848      -0.350859007573897     
 -0.368991549474224      -0.387095124676124      -0.403762433690634     
 -0.418008931754051      -0.429409942598969      -0.438090135853532     
 -0.444436641220068      -0.448940960079622      -0.452049011733925     
 -0.291350347286995      -0.293003827044748      -0.297253511988791     
 -0.303649469676067      -0.312424874556884      -0.323936898109059     
 -0.338278875256359      -0.355019772013403      -0.373152313913741     
 -0.391255889115638      -0.407923198130148      -0.422169696193570     
 -0.433570707038483      -0.442250900293032      -0.448597405659586     
 -0.453101724519141      -0.456209776173446      -0.294292422124881     
 -0.295945901882644      -0.300195586826681      -0.306591544513948     
 -0.315366949394782      -0.326878972946944      -0.341220950094252     
 -0.357961846851302      -0.376094388751627      -0.394197963953529     
 -0.410865272968031      -0.425111771031446      -0.436512781876374     
 -0.445192975130929      -0.451539480497471      -0.456043799357024     
 -0.459151851011332     
  0.000000000000000E+000 -2.059343134687265E-004 -5.967154644315922E-004
 -1.288783171780619E-003 -2.918895425121374E-003 -5.573396522451829E-003
 -9.167771110016921E-003 -1.357217217812317E-002 -1.838427778900438E-002
 -2.320014315178548E-002 -2.763890288787426E-002 -3.143970394449276E-002
 -3.447539076661003E-002 -3.679168976136481E-002 -3.848528426515805E-002
 -3.968682183911389E-002 -4.051708164825068E-002  0.000000000000000E+000
 -2.059343134687265E-004 -5.967154644315922E-004 -1.288783171780619E-003
 -2.918895425121374E-003 -5.573396522451829E-003 -9.167771110016921E-003
 -1.357217217812317E-002 -1.838427778900438E-002 -2.320014315178548E-002
 -2.763890288787426E-002 -3.143970394449276E-002 -3.447539076661003E-002
 -3.679168976136481E-002 -3.848528426515805E-002 -3.968682183911389E-002
 -4.051708164825068E-002  0.000000000000000E+000 -2.059343134687265E-004
 -5.967154644315922E-004 -1.288783171780619E-003 -2.918895425121374E-003
 -5.573396522451829E-003 -9.167771110016921E-003 -1.357217217812317E-002
 -1.838427778900438E-002 -2.320014315178548E-002 -2.763890288787426E-002
 -3.143970394449276E-002 -3.447539076661003E-002 -3.679168976136481E-002
 -3.848528426515805E-002 -3.968682183911389E-002 -4.051708164825068E-002
  0.000000000000000E+000 -2.059343134687265E-004 -5.967154644315922E-004
 -1.288783171780619E-003 -2.918895425121374E-003 -5.573396522451829E-003
 -9.167771110016921E-003 -1.357217217812317E-002 -1.838427778900438E-002
 -2.320014315178548E-002 -2.763890288787426E-002 -3.143970394449276E-002
 -3.447539076661003E-002 -3.679168976136481E-002 -3.848528426515805E-002
 -3.968682183911389E-002 -4.051708164825068E-002  0.000000000000000E+000
 -2.059343134687265E-004 -5.967154644315922E-004 -1.288783171780619E-003
 -2.918895425121374E-003 -5.573396522451829E-003 -9.167771110016921E-003
 -1.357217217812317E-002 -1.838427778900438E-002 -2.320014315178548E-002
 -2.763890288787426E-002 -3.143970394449276E-002 -3.447539076661003E-002
 -3.679168976136481E-002 -3.848528426515805E-002 -3.968682183911389E-002
 -4.051708164825068E-002  0.000000000000000E+000 -2.059343134687265E-004
 -5.967154644315922E-004 -1.288783171780619E-003 -2.918895425121374E-003
 -5.573396522451829E-003 -9.167771110016921E-003 -1.357217217812317E-002
 -1.838427778900438E-002 -2.320014315178548E-002 -2.763890288787426E-002
 -3.143970394449276E-002 -3.447539076661003E-002 -3.679168976136481E-002
 -3.848528426515805E-002 -3.968682183911389E-002 -4.051708164825068E-002
  0.000000000000000E+000 -2.059343134687265E-004 -5.967154644315922E-004
 -1.288783171780619E-003 -2.918895425121374E-003 -5.573396522451829E-003
 -9.167771110016921E-003 -1.357217217812317E-002 -1.838427778900438E-002
 -2.320014315178548E-002 -2.763890288787426E-002 -3.143970394449276E-002
 -3.447539076661003E-002 -3.679168976136481E-002 -3.848528426515805E-002
 -3.968682183911389E-002 -4.051708164825068E-002  0.000000000000000E+000
 -2.059343134687265E-004 -5.967154644315922E-004 -1.288783171780619E-003
 -2.918895425121374E-003 -5.573396522451829E-003 -9.167771110016921E-003
 -1.357217217812317E-002 -1.838427778900438E-002 -2.320014315178548E-002
 -2.763890288787426E-002 -3.143970394449276E-002 -3.447539076661003E-002
 -3.679168976136481E-002 -3.848528426515805E-002 -3.968682183911389E-002
 -4.051708164825068E-002  0.000000000000000E+000 -2.059343134687265E-004
 -5.967154644315922E-004 -1.288783171780619E-003 -2.918895425121374E-003
 -5.573396522451829E-003 -9.167771110016921E-003 -1.357217217812317E-002
 -1.838427778900438E-002 -2.320014315178548E-002 -2.763890288787426E-002
 -3.143970394449276E-002 -3.447539076661003E-002 -3.679168976136481E-002
 -3.848528426515805E-002 -3.968682183911389E-002 -4.051708164825068E-002
  0.000000000000000E+000 -2.059343134687265E-004 -5.967154644315922E-004
 -1.288783171780619E-003 -2.918895425121374E-003 -5.573396522451829E-003
 -9.167771110016921E-003 -1.357217217812317E-002 -1.838427778900438E-002
 -2.320014315178548E-002 -2.763890288787426E-002 -3.143970394449276E-002
 -3.447539076661003E-002 -3.679168976136481E-002 -3.848528426515805E-002
 -3.968682183911389E-002 -4.051708164825068E-002  0.000000000000000E+000
 -2.059343134687265E-004 -5.967154644315922E-004 -1.288783171780619E-003
 -2.918895425121374E-003 -5.573396522451829E-003 -9.167771110016921E-003
 -1.357217217812317E-002 -1.838427778900438E-002 -2.320014315178548E-002
 -2.763890288787426E-002 -3.143970394449276E-002 -3.447539076661003E-002
 -3.679168976136481E-002 -3.848528426515805E-002 -3.968682183911389E-002
 -4.051708164825068E-002  0.000000000000000E+000 -2.059343134687265E-004
 -5.967154644315922E-004 -1.288783171780619E-003 -2.918895425121374E-003
 -5.573396522451829E-003 -9.167771110016921E-003 -1.357217217812317E-002
 -1.838427778900438E-002 -2.320014315178548E-002 -2.763890288787426E-002
 -3.143970394449276E-002 -3.447539076661003E-002 -3.679168976136481E-002
 -3.848528426515805E-002 -3.968682183911389E-002 -4.051708164825068E-002
  0.000000000000000E+000 -2.059343134687265E-004 -5.967154644315922E-004
 -1.288783171780619E-003 -2.918895425121374E-003 -5.573396522451829E-003
 -9.167771110016921E-003 -1.357217217812317E-002 -1.838427778900438E-002
 -2.320014315178548E-002 -2.763890288787426E-002 -3.143970394449276E-002
 -3.447539076661003E-002 -3.679168976136481E-002 -3.848528426515805E-002
 -3.968682183911389E-002 -4.051708164825068E-002  0.000000000000000E+000
 -2.059343134687265E-004 -5.967154644315922E-004 -1.288783171780619E-003
 -2.918895425121374E-003 -5.573396522451829E-003 -9.167771110016921E-003
 -1.357217217812317E-002 -1.838427778900438E-002 -2.320014315178548E-002
 -2.763890288787426E-002 -3.143970394449276E-002 -3.447539076661003E-002
 -3.679168976136481E-002 -3.848528426515805E-002 -3.968682183911389E-002
 -4.051708164825068E-002  0.000000000000000E+000 -2.059343134687265E-004
 -5.967154644315922E-004 -1.288783171780619E-003 -2.918895425121374E-003
 -5.573396522451829E-003 -9.167771110016921E-003 -1.357217217812317E-002
 -1.838427778900438E-002 -2.320014315178548E-002 -2.763890288787426E-002
 -3.143970394449276E-002 -3.447539076661003E-002 -3.679168976136481E-002
 -3.848528426515805E-002 -3.968682183911389E-002 -4.051708164825068E-002
  0.000000000000000E+000 -2.059343134687265E-004 -5.967154644315922E-004
 -1.288783171780619E-003 -2.918895425121374E-003 -5.573396522451829E-003
 -9.167771110016921E-003 -1.357217217812317E-002 -1.838427778900438E-002
 -2.320014315178548E-002 -2.763890288787426E-002 -3.143970394449276E-002
 -3.447539076661003E-002 -3.679168976136481E-002 -3.848528426515805E-002
 -3.968682183911389E-002 -4.051708164825068E-002  0.000000000000000E+000
 -2.059343134687265E-004 -5.967154644315922E-004 -1.288783171780619E-003
 -2.918895425121374E-003 -5.573396522451829E-003 -9.167771110016921E-003
 -1.357217217812317E-002 -1.838427778900438E-002 -2.320014315178548E-002
 -2.763890288787426E-002 -3.143970394449276E-002 -3.447539076661003E-002
 -3.679168976136481E-002 -3.848528426515805E-002 -3.968682183911389E-002
 -4.051708164825068E-002  0.000000000000000E+000 -2.059343134687265E-004
 -5.967154644315922E-004 -1.288783171780619E-003 -2.918895425121374E-003
 -5.573396522451829E-003 -9.167771110016921E-003 -1.357217217812317E-002
 -1.838427778900438E-002 -2.320014315178548E-002 -2.763890288787426E-002
 -3.143970394449276E-002 -3.447539076661003E-002 -3.679168976136481E-002
 -3.848528426515805E-002 -3.968682183911389E-002 -4.051708164825068E-002
  0.000000000000000E+000 -2.059343134687265E-004 -5.967154644315922E-004
 -1.288783171780619E-003 -2.918895425121374E-003 -5.573396522451829E-003
 -9.167771110016921E-003 -1.357217217812317E-002 -1.838427778900438E-002
 -2.320014315178548E-002 -2.763890288787426E-002 -3.143970394449276E-002
 -3.447539076661003E-002 -3.679168976136481E-002 -3.848528426515805E-002
 -3.968682183911389E-002 -4.051708164825068E-002  0.000000000000000E+000
 -2.059343134687265E-004 -5.967154644315922E-004 -1.288783171780619E-003
 -2.918895425121374E-003 -5.573396522451829E-003 -9.167771110016921E-003
 -1.357217217812317E-002 -1.838427778900438E-002 -2.320014315178548E-002
 -2.763890288787426E-002 -3.143970394449276E-002 -3.447539076661003E-002
 -3.679168976136481E-002 -3.848528426515805E-002 -3.968682183911389E-002
 -4.051708164825068E-002
 -0.142789352630900      -0.278228692579237      -0.338760781603058     
 -0.307898362509375      -0.261238508698002      -0.224344203865295     
 -0.195987501911561      -0.185034601983057      -0.184049967334427     
 -0.190017674814724      -0.200337310869273      -0.213372378790294     
 -0.225125501059729      -0.235357711660878      -0.243182047851504     
 -0.248075568016398      -0.171318794552866      -0.343146709652139     
 -0.433812753233024      -0.410914813093658      -0.353299974990372     
 -0.299373396059288      -0.255208205642383      -0.235267375714202     
 -0.231241841008981      -0.238866109554428      -0.254188482879566     
 -0.274235557016902      -0.293373096361149      -0.310383710488202     
 -0.323195504083130      -0.330446061474003      -0.175618710387735     
 -0.354230563590837      -0.451522100353820      -0.429605882985066     
 -0.364811223873542      -0.297183056084367      -0.237800795006703     
 -0.206367509468614      -0.195951701774339      -0.201901513340474     
 -0.219047444577577      -0.242751935222792      -0.265475502797334     
 -0.284745213236474      -0.298293358319123      -0.305413186291617     
 -0.161335573024730      -0.325847629560256      -0.409662811713616     
 -0.371408705094329      -0.288223330788114      -0.200241169955774     
 -0.120039132382166      -7.097279042041663E-002 -4.786095747019615E-002
 -4.608934060127282E-002 -5.915524182556954E-002 -8.058400316817331E-002
 -0.101359660878288      -0.118782854231909      -0.130823836452647     
 -0.136962186562201      -0.126057228232897      -0.253587085340546     
 -0.301554571869455      -0.223996819216000      -0.101019884282710     
  2.531057155134416E-002  0.141245685698110       0.220880457116130     
  0.268439674421955       0.288652993738612       0.289222826837611     
  0.277838179890478       0.264348435401863       0.251785773205429     
  0.242753513855282       0.238196675159533      -6.433150186947888E-002
 -0.126303665782153      -0.110602787929599       3.564144567068637E-002
  0.228223416803626       0.421340421916227       0.598728210569541     
  0.731239363205546       0.822386628377822       0.877001503937786     
  0.903601267043978       0.910777707508223       0.909785388169903     
  0.905053669894225       0.900601248384590       0.898255536499529     
  2.980531191154025E-002  6.831799936744477E-002  0.181517983770701     
  0.432180451756702       0.731293615822245        1.02778963238819     
   1.30116891464834        1.51711813300405        1.67745572196865     
   1.78651538056022        1.85355212652939        1.88874421598892     
   1.90613065751755        1.91267995320003        1.91458430307811     
   1.91514266792774       0.159106964690916       0.335948287388443     
  0.583129697260419       0.976534788617717        1.42183475782562     
   1.86128029448915        2.26836075311829        2.60129753740213     
   2.85870135501583        3.04364399602908        3.16639506476734     
   3.23978449421547        3.28199804845304        3.30355434297846     
   3.31367969765955        3.31787222031427       0.318268632960380     
  0.665530376111256        1.07751550155004        1.64588459794923     
   2.27060811674458        2.88609967686096        3.45839242076876     
   3.93638726165406        4.31428765755217        4.59335462986236     
   4.78513329604153        4.90583710168762        4.97870910889447     
   5.01861924673427        5.03864463685818        5.04714360407119     
  0.490656626438138        1.02250073114446        1.61287569731642     
   2.37043549731212        3.18914054164641        3.99502759618155     
   4.74615823604105        5.38150662941165        5.89058196313906     
   6.27265748258606        6.54049729663364        6.71370882389133     
   6.82075002985025        6.88111825036728        6.91214667258740     
   6.92541165352078       0.650460574264046        1.35323575607980     
   2.10895237541529        3.04229404714654        4.04087428075425     
   5.02268560904855        5.93871559580724        6.71928760209702     
   7.35032109010885        7.82948532474725        8.17028963422971     
   8.39480364369296        8.53579489466422        8.61677099584825     
   8.65899612640283        8.67714142770346       0.771322231487202     
   1.60290309110200        2.48352404578961        3.55064413596533     
   4.68503145118081        5.79774278889421        6.83500981100617     
   7.72185645327184        8.44347286426736        8.99721832220513     
   9.39658729437554        9.66413997736425        9.83480693694648     
   9.93445202827491        9.98711691197312        10.0099055030668     
  0.836771334479826        1.73709071274504        2.68457291224772     
   3.82455145095652        5.03018178086545        6.20696784299341     
   7.29950197445882        8.23245845454955        8.99497374474666     
   9.58681962959295        10.0209799242919        10.3176865382622     