 Title = "Wing and Wake"
 VARIABLES = "X" "Y" "Z" "GAM" "skew"
 Zone I=   11 J=   26 K=1  T="Blade"
 DATAPACKING=BLOCK
 VARLOCATION=([4]=CELLCENTERED,[5]=CELLCENTERED)
 -0.206472021079324      -0.204801945815936      -0.203131870552547     
 -0.201461795289159      -0.199791720025771      -0.198121644762382     
 -0.196451569498994      -0.194781494235605      -0.193111418972217     
 -0.191441343708828      -0.189771268445440      -0.210212131251034     
 -0.208542055987645      -0.206871980724256      -0.205201905460869     
 -0.203531830197479      -0.201861754934091      -0.200191679670703     
 -0.198521604407314      -0.196851529143926      -0.195181453880537     
 -0.193511378617149      -0.221373477994519      -0.219703402731131     
 -0.218033327467742      -0.216363252204354      -0.214693176940965     
 -0.213023101677577      -0.211353026414189      -0.209682951150800     
 -0.208012875887411      -0.206342800624023      -0.204672725360634     
 -0.239780040204172      -0.238109964940783      -0.236439889677395     
 -0.234769814414007      -0.233099739150618      -0.231429663887229     
 -0.229759588623841      -0.228089513360453      -0.226419438097064     
 -0.224749362833676      -0.223079287570287      -0.265141535398397     
 -0.263471460135008      -0.261801384871620      -0.260131309608232     
 -0.258461234344843      -0.256791159081455      -0.255121083818067     
 -0.253451008554678      -0.251780933291289      -0.250110858027901     
 -0.248440782764512      -0.297057997647759      -0.295387922384372     
 -0.293717847120983      -0.292047771857594      -0.290377696594206     
 -0.288707621330818      -0.287037546067429      -0.285367470804040     
 -0.283697395540652      -0.282027320277263      -0.280357245013875     
 -0.335026085276617      -0.333356010013228      -0.331685934749840     
 -0.330015859486452      -0.328345784223062      -0.326675708959675     
 -0.325005633696286      -0.323335558432897      -0.321665483169509     
 -0.319995407906119      -0.318325332642731      -0.378447018862025     
 -0.376776943598636      -0.375106868335249      -0.373436793071860     
 -0.371766717808471      -0.370096642545083      -0.368426567281694     
 -0.366756492018306      -0.365086416754917      -0.363416341491529     
 -0.361746266228141      -0.426636024342935      -0.424965949079547     
 -0.423295873816158      -0.421625798552769      -0.419955723289381     
 -0.418285648025992      -0.416615572762603      -0.414945497499215     
 -0.413275422235827      -0.411605346972439      -0.409935271709050     
 -0.478833132316194      -0.477163057052806      -0.475492981789418     
 -0.473822906526029      -0.472152831262641      -0.470482755999251     
 -0.468812680735863      -0.467142605472475      -0.465472530209086     
 -0.463802454945697      -0.462132379682309      -0.534215163208026     
 -0.532545087944638      -0.530875012681248      -0.529204937417861     
 -0.527534862154471      -0.525864786891084      -0.524194711627693     
 -0.522524636364306      -0.520854561100917      -0.519184485837528     
 -0.517514410574140      -0.591908709307642      -0.590238634044253     
 -0.588568558780866      -0.586898483517474      -0.585228408254088     
 -0.583558332990700      -0.581888257727311      -0.580218182463922     
 -0.578548107200533      -0.576878031937144      -0.575207956673756     
 -0.651003908928599      -0.649333833665210      -0.647663758401821     
 -0.645993683138433      -0.644323607875045      -0.642653532611655     
 -0.640983457348267      -0.639313382084879      -0.637643306821491     
 -0.635973231558102      -0.634303156294713      -0.710568795471113     
 -0.708898720207724      -0.707228644944335      -0.705558569680946     
 -0.703888494417558      -0.702218419154170      -0.700548343890781     
 -0.698878268627392      -0.697208193364006      -0.695538118100615     
 -0.693868042837227      -0.769663995092068      -0.767993919828679     
 -0.766323844565292      -0.764653769301902      -0.762983694038514     
 -0.761313618775128      -0.759643543511737      -0.757973468248349     
 -0.756303392984960      -0.754633317721570      -0.752963242458185     
 -0.827357541191685      -0.825687465928296      -0.824017390664908     
 -0.822347315401519      -0.820677240138132      -0.819007164874743     
 -0.817337089611353      -0.815667014347966      -0.813996939084577     
 -0.812326863821187      -0.810656788557801      -0.882739572083516     
 -0.881069496820127      -0.879399421556738      -0.877729346293351     
 -0.876059271029961      -0.874389195766574      -0.872719120503185     
 -0.871049045239798      -0.869378969976408      -0.867708894713020     
 -0.866038819449632      -0.934936680056776      -0.933266604793387     
 -0.931596529529998      -0.929926454266610      -0.928256379003222     
 -0.926586303739834      -0.924916228476445      -0.923246153213056     
 -0.921576077949667      -0.919906002686279      -0.918235927422890     
 -0.983125685537684      -0.981455610274295      -0.979785535010907     
 -0.978115459747519      -0.976445384484131      -0.974775309220743     
 -0.973105233957352      -0.971435158693965      -0.969765083430578     
 -0.968095008167188      -0.966424932903799       -1.02654661912309     
  -1.02487654385970       -1.02320646859632       -1.02153639333293     
  -1.01986631806954       -1.01819624280615       -1.01652616754276     
  -1.01485609227937       -1.01318601701598       -1.01151594175260     
  -1.00984586648921       -1.06451470675195       -1.06284463148856     
  -1.06117455622517       -1.05950448096178       -1.05783440569840     
  -1.05616433043501       -1.05449425517162       -1.05282417990823     
  -1.05115410464484       -1.04948402938145       -1.04781395411806     
  -1.09643116900131       -1.09476109373792       -1.09309101847454     
  -1.09142094321115       -1.08975086794776       -1.08808079268437     
  -1.08641071742098       -1.08474064215759       -1.08307056689421     
  -1.08140049163082       -1.07973041636743       -1.12179266419554     
  -1.12012258893215       -1.11845251366876       -1.11678243840537     
  -1.11511236314199       -1.11344228787860       -1.11177221261521     
  -1.11010213735182       -1.10843206208843       -1.10676198682504     
  -1.10509191156165       -1.14019922640519       -1.13852915114180     
  -1.13685907587841       -1.13518900061502       -1.13351892535164     
  -1.13184885008825       -1.13017877482486       -1.12850869956147     
  -1.12683862429808       -1.12516854903469       -1.12349847377131     
  -1.15136057314868       -1.14969049788529       -1.14802042262190     
  -1.14635034735851       -1.14468027209512       -1.14301019683173     
  -1.14134012156834       -1.13967004630496       -1.13799997104157     
  -1.13632989577818       -1.13465982051479       -1.15510068332038     
  -1.15343060805700       -1.15176053279361       -1.15009045753022     
  -1.14842038226683       -1.14675030700344       -1.14508023174006     
  -1.14341015647667       -1.14174008121328       -1.14007000594989     
  -1.13839993068650     
 -0.168509921325526      -0.149951201977584      -0.131392482629642     
 -0.112833763281699      -9.427504393375689E-002 -7.571632458581472E-002
 -5.715760523787249E-002 -3.859888588993032E-002 -2.004016654198849E-002
 -1.481447194045988E-003  1.707727215389613E-002 -0.168173353625836     
 -0.149614634277894      -0.131055914929952      -0.112497195582010     
 -9.393847623406740E-002 -7.537975688612535E-002 -5.682103753818301E-002
 -3.826231819024108E-002 -1.970359884229881E-002 -1.144879494356767E-003
  1.741383985358558E-002 -0.167168958400448      -0.148610239052506     
 -0.130051519704563      -0.111492800356621      -9.293408100867914E-002
 -7.437536166073698E-002 -5.581664231279460E-002 -3.725792296485269E-002
 -1.869920361691061E-002 -1.404842689682451E-004  1.841823507897394E-002
 -0.165512575562062      -0.146953856214119      -0.128395136866177     
 -0.109836417518235      -9.127769817029255E-002 -7.271897882235039E-002
 -5.416025947440857E-002 -3.560154012646610E-002 -1.704282077852384E-002
  1.515898569418471E-003  2.007461791736009E-002 -0.163230327257513     
 -0.144671607909572      -0.126112888561629      -0.107554169213687     
 -8.899544986574463E-002 -7.043673051780264E-002 -5.187801116986027E-002
 -3.331929182191836E-002 -1.476057247397596E-002  3.798146873965994E-003
  2.235686622190831E-002 -0.160358205905916      -0.141799486557974     
 -0.123240767210031      -0.104682047862089      -8.612332851414725E-002
 -6.756460916620466E-002 -4.900588981826245E-002 -3.044717047032050E-002
 -1.188845112237808E-002  6.670268225564042E-003  2.522898757350647E-002
 -0.156941506576705      -0.138382787228763      -0.119824067880821     
 -0.101265348532879      -8.270662918493653E-002 -6.414790983699407E-002
 -4.558919048905224E-002 -2.703047114110999E-002 -8.471751793168216E-003
  1.008696755477412E-002  2.864568690271618E-002 -0.153034112659341     
 -0.134475393311398      -0.115916673963456      -9.735795461551434E-002
 -7.879923526757197E-002 -6.024051591962974E-002 -4.168179657168773E-002
 -2.312307722374570E-002 -4.564357875802963E-003  1.399436147213868E-002
  3.255308082008102E-002 -0.148697646090064      -0.130138926742120     
 -0.111580207394179      -9.302148804623658E-002 -7.446276869829462E-002
 -5.590404935035215E-002 -3.734533000240974E-002 -1.878661065446749E-002
 -2.278913065255018E-004  1.833082804141690E-002  3.688954738935856E-002
 -0.144000495537149      -0.125441776189207      -0.106883056841265     
 -8.832433749332241E-002 -6.976561814538049E-002 -5.120689879743850E-002
 -3.264817944949602E-002 -1.408946010155420E-002  4.469259246388082E-003
  2.302797859433029E-002  4.158669794227262E-002 -0.139016737870761     
 -0.120458018522818      -0.101899299174876      -8.334057982693460E-002
 -6.478186047899177E-002 -4.622314113104958E-002 -2.766442178310801E-002
 -9.105702435164441E-003  9.453016912776479E-003  2.801173626071942E-002
  4.657045560866133E-002 -0.133824969926448      -0.115266250578506     
 -9.670753123056348E-002 -7.814881188262150E-002 -5.959009253467950E-002
 -4.103137318673795E-002 -2.247265383879539E-002 -3.913934490852763E-003
  1.464478485708948E-002  3.320350420503099E-002  5.176222355297282E-002
 -0.128507068986106      -0.109948349638164      -9.138963029022130E-002
 -7.283091094227995E-002 -5.427219159433778E-002 -3.571347224639596E-002
 -1.715475289845268E-002  1.403966449489228E-003  1.996268579743095E-002
  3.852140514537322E-002  5.708012449331511E-002 -0.123146901524324     
 -0.104588182176381      -8.602946282843993E-002 -6.747074348049745E-002
 -4.891202413255498E-002 -3.035330478461250E-002 -1.179458543666965E-002
  6.764133911270491E-003  2.532285325921395E-002  4.388157260715626E-002
  6.244029195509809E-002 -0.117829000583981      -9.927028123604008E-002
 -8.071156188809710E-002 -6.215284254015489E-002 -4.359412319221263E-002
 -2.503540384427136E-002 -6.476684496328916E-003  1.208203485161523E-002
  3.064075419955548E-002  4.919947354749759E-002  6.775819289544015E-002
 -0.112637232639670      -9.407851329172670E-002 -7.551979394378480E-002
 -5.696107459584421E-002 -3.840235524790104E-002 -1.984363589995882E-002
 -1.284916552017196E-003  1.727380279592557E-002  3.583252214386749E-002
  5.439124149180958E-002  7.294996083975241E-002 -0.107653474973281     
 -8.909475562533876E-002 -7.053603627739620E-002 -5.197731692945494E-002
 -3.341859758151183E-002 -1.485987823356969E-002  3.698841114372987E-003
  2.225756046231473E-002  4.081627981025668E-002  5.937499915820031E-002
  7.793371850614068E-002 -0.102956324420367      -8.439760507242453E-002
 -6.583888572448245E-002 -4.728016637654046E-002 -2.872144702859819E-002
 -1.016272768065556E-002  8.395991667286306E-003  2.695471101522906E-002
  4.551343036317033E-002  6.407214971111275E-002  8.263086905905417E-002
 -9.861985785108868E-002 -8.006113850314628E-002 -6.150241915520434E-002
 -4.294369980726297E-002 -2.438498045932076E-002 -5.826261111378180E-003
  1.273245823656327E-002  3.129117758450582E-002  4.984989693244742E-002
  6.840861628039131E-002  8.696733562833218E-002 -9.471246393372476E-002
 -7.615374458578172E-002 -5.759502523784046E-002 -3.903630588989748E-002
 -2.047758654195694E-002 -1.918867194012481E-003  1.663985215392678E-002
  3.519857150187070E-002  5.375729084981341E-002  7.231601019775531E-002
  9.087472954569606E-002 -9.129576460451340E-002 -7.273704525657200E-002
 -5.417832590862933E-002 -3.561960656068741E-002 -1.706088721274522E-002
  1.497832135196368E-003  2.005655148313945E-002  3.861527083108146E-002
  5.717399017902200E-002  7.573270952696660E-002  9.429142887490746E-002
 -8.842364325291720E-002 -6.986492390497527E-002 -5.130620455703025E-002
 -3.274748520908939E-002 -1.418876586114907E-002  4.369953486794496E-003
  2.292867283473751E-002  4.148739218267818E-002  6.004611153061998E-002
  7.860483087856437E-002  9.716355022650709E-002 -8.614139494836832E-002
 -6.758267560042677E-002 -4.902395625248405E-002 -3.046523690454196E-002
 -1.190651755660033E-002  6.652201791342354E-003  2.521092113928399E-002
  4.376964048722719E-002  6.232835983516857E-002  8.088707918311054E-002
  9.944579853105355E-002 -8.448501210998265E-002 -6.592629276204130E-002
 -4.736757341409822E-002 -2.880885406615607E-002 -1.025013471821325E-002
  8.308584629730126E-003  2.686730397767111E-002  4.542602332561417E-002
  6.398474267355481E-002  8.254346202149880E-002  0.101102181369441     
 -8.348061688459368E-002 -6.492189753665206E-002 -4.636317818871095E-002
 -2.780445884076734E-002 -9.245739492825759E-003  9.312979855118305E-003
  2.787169920306050E-002  4.643041855100154E-002  6.498913789894370E-002
  8.354785724688624E-002  0.102106576594828      -8.314404918490509E-002
 -6.458532983696082E-002 -4.602661048902093E-002 -2.746789114107707E-002
 -8.909171793135278E-003  9.649547554807019E-003  2.820826690274898E-002
  4.676698625069123E-002  6.532570559863336E-002  8.388442494657576E-002
  0.102443144294519     
  3.960717710078315E-002  3.564645939070483E-002  3.168574168062652E-002
  2.772502397054821E-002  2.376430626046989E-002  1.980358855039158E-002
  1.584287084031326E-002  1.188215313023495E-002  7.921435420156629E-003
  3.960717710078312E-003  0.000000000000000E+000  3.960717710078315E-002
  3.564645939070483E-002  3.168574168062652E-002  2.772502397054821E-002
  2.376430626046989E-002  1.980358855039158E-002  1.584287084031326E-002
  1.188215313023495E-002  7.921435420156629E-003  3.960717710078312E-003
  0.000000000000000E+000  3.960717710078315E-002  3.564645939070483E-002
  3.168574168062652E-002  2.772502397054821E-002  2.376430626046989E-002
  1.980358855039158E-002  1.584287084031326E-002  1.188215313023495E-002
  7.921435420156629E-003  3.960717710078312E-003  0.000000000000000E+000
  3.960717710078315E-002  3.564645939070483E-002  3.168574168062652E-002
  2.772502397054821E-002  2.376430626046989E-002  1.980358855039158E-002
  1.584287084031326E-002  1.188215313023495E-002  7.921435420156629E-003
  3.960717710078312E-003  0.000000000000000E+000  3.960717710078315E-002
  3.564645939070483E-002  3.168574168062652E-002  2.772502397054821E-002
  2.376430626046989E-002  1.980358855039158E-002  1.584287084031326E-002
  1.188215313023495E-002  7.921435420156629E-003  3.960717710078312E-003
  0.000000000000000E+000  3.960717710078315E-002  3.564645939070483E-002
  3.168574168062652E-002  2.772502397054821E-002  2.376430626046989E-002
  1.980358855039158E-002  1.584287084031326E-002  1.188215313023495E-002
  7.921435420156629E-003  3.960717710078312E-003  0.000000000000000E+000
  3.960717710078315E-002  3.564645939070483E-002  3.168574168062652E-002
  2.772502397054821E-002  2.376430626046989E-002  1.980358855039158E-002
  1.584287084031326E-002  1.188215313023495E-002  7.921435420156629E-003
  3.960717710078312E-003  0.000000000000000E+000  3.960717710078315E-002
  3.564645939070483E-002  3.168574168062652E-002  2.772502397054821E-002
  2.376430626046989E-002  1.980358855039158E-002  1.584287084031326E-002
  1.188215313023495E-002  7.921435420156629E-003  3.960717710078312E-003
  0.000000000000000E+000  3.960717710078315E-002  3.564645939070483E-002
  3.168574168062652E-002  2.772502397054821E-002  2.376430626046989E-002
  1.980358855039158E-002  1.584287084031326E-002  1.188215313023495E-002
  7.921435420156629E-003  3.960717710078312E-003  0.000000000000000E+000
  3.960717710078315E-002  3.564645939070483E-002  3.168574168062652E-002
  2.772502397054821E-002  2.376430626046989E-002  1.980358855039158E-002
  1.584287084031326E-002  1.188215313023495E-002  7.921435420156629E-003
  3.960717710078312E-003  0.000000000000000E+000  3.960717710078315E-002
  3.564645939070483E-002  3.168574168062652E-002  2.772502397054821E-002
  2.376430626046989E-002  1.980358855039158E-002  1.584287084031326E-002
  1.188215313023495E-002  7.921435420156629E-003  3.960717710078312E-003
  0.000000000000000E+000  3.960717710078315E-002  3.564645939070483E-002
  3.168574168062652E-002  2.772502397054821E-002  2.376430626046989E-002
  1.980358855039158E-002  1.584287084031326E-002  1.188215313023495E-002
  7.921435420156629E-003  3.960717710078312E-003  0.000000000000000E+000
  3.960717710078315E-002  3.564645939070483E-002  3.168574168062652E-002
  2.772502397054821E-002  2.376430626046989E-002  1.980358855039158E-002
  1.584287084031326E-002  1.188215313023495E-002  7.921435420156629E-003
  3.960717710078312E-003  0.000000000000000E+000  3.960717710078315E-002
  3.564645939070483E-002  3.168574168062652E-002  2.772502397054821E-002
  2.376430626046989E-002  1.980358855039158E-002  1.584287084031326E-002
  1.188215313023495E-002  7.921435420156629E-003  3.960717710078312E-003
  0.000000000000000E+000  3.960717710078315E-002  3.564645939070483E-002
  3.168574168062652E-002  2.772502397054821E-002  2.376430626046989E-002
  1.980358855039158E-002  1.584287084031326E-002  1.188215313023495E-002
  7.921435420156629E-003  3.960717710078312E-003  0.000000000000000E+000
  3.960717710078315E-002  3.564645939070483E-002  3.168574168062652E-002
  2.772502397054821E-002  2.376430626046989E-002  1.980358855039158E-002
  1.584287084031326E-002  1.188215313023495E-002  7.921435420156629E-003
  3.960717710078312E-003  0.000000000000000E+000  3.960717710078315E-002
  3.564645939070483E-002  3.168574168062652E-002  2.772502397054821E-002
  2.376430626046989E-002  1.980358855039158E-002  1.584287084031326E-002
  1.188215313023495E-002  7.921435420156629E-003  3.960717710078312E-003
  0.000000000000000E+000  3.960717710078315E-002  3.564645939070483E-002
  3.168574168062652E-002  2.772502397054821E-002  2.376430626046989E-002
  1.980358855039158E-002  1.584287084031326E-002  1.188215313023495E-002
  7.921435420156629E-003  3.960717710078312E-003  0.000000000000000E+000
  3.960717710078315E-002  3.564645939070483E-002  3.168574168062652E-002
  2.772502397054821E-002  2.376430626046989E-002  1.980358855039158E-002
  1.584287084031326E-002  1.188215313023495E-002  7.921435420156629E-003
  3.960717710078312E-003  0.000000000000000E+000  3.960717710078315E-002
  3.564645939070483E-002  3.168574168062652E-002  2.772502397054821E-002
  2.376430626046989E-002  1.980358855039158E-002  1.584287084031326E-002
  1.188215313023495E-002  7.921435420156629E-003  3.960717710078312E-003
  0.000000000000000E+000  3.960717710078315E-002  3.564645939070483E-002
  3.168574168062652E-002  2.772502397054821E-002  2.376430626046989E-002
  1.980358855039158E-002  1.584287084031326E-002  1.188215313023495E-002
  7.921435420156629E-003  3.960717710078312E-003  0.000000000000000E+000
  3.960717710078315E-002  3.564645939070483E-002  3.168574168062652E-002
  2.772502397054821E-002  2.376430626046989E-002  1.980358855039158E-002
  1.584287084031326E-002  1.188215313023495E-002  7.921435420156629E-003
  3.960717710078312E-003  0.000000000000000E+000  3.960717710078315E-002
  3.564645939070483E-002  3.168574168062652E-002  2.772502397054821E-002
  2.376430626046989E-002  1.980358855039158E-002  1.584287084031326E-002
  1.188215313023495E-002  7.921435420156629E-003  3.960717710078312E-003
  0.000000000000000E+000  3.960717710078315E-002  3.564645939070483E-002
  3.168574168062652E-002  2.772502397054821E-002  2.376430626046989E-002
  1.980358855039158E-002  1.584287084031326E-002  1.188215313023495E-002
  7.921435420156629E-003  3.960717710078312E-003  0.000000000000000E+000
  3.960717710078315E-002  3.564645939070483E-002  3.168574168062652E-002
  2.772502397054821E-002  2.376430626046989E-002  1.980358855039158E-002
  1.584287084031326E-002  1.188215313023495E-002  7.921435420156629E-003
  3.960717710078312E-003  0.000000000000000E+000  3.960717710078315E-002
  3.564645939070483E-002  3.168574168062652E-002  2.772502397054821E-002
  2.376430626046989E-002  1.980358855039158E-002  1.584287084031326E-002
  1.188215313023495E-002  7.921435420156629E-003  3.960717710078312E-003
  0.000000000000000E+000
  0.221529863617182       0.337828394952058       0.431946006885583     
  0.509071716474508       0.569413351870543       0.615018590902206     
  0.647813258833040       0.669538490633754       0.681759916081121     
  0.685417492762027       0.365552916860538       0.563535890013314     
  0.722717883254512       0.853593408946769       0.956712745967418     
   1.03501881784284        1.09149961047365        1.12922989926398     
   1.15133399052462        1.16208181404770       0.477296181992365     
  0.748077860321753       0.965467873937973        1.14512263590429     
   1.28939424064659        1.40024994478988        1.48098315235718     
   1.53567146632986        1.56879506409131        1.58505385425847     
  0.541754524450351       0.856495494720663        1.11096280637903     
   1.32366280182583        1.49764726345494        1.63349202945488     
   1.73346269255769        1.80095285377481        1.83963478846319     
   1.85194242193273       0.561845072392311       0.888110320388829     
   1.15219506038923        1.37428621508847        1.55850868390206     
   1.70496099592580        1.81446415343640        1.88863891393587     
   1.92953290879763        1.93831905417683       0.554234363326255     
  0.865826957187304        1.11398612496702        1.32214180906203     
   1.49595077031006        1.63686359608057        1.74474990279630     
   1.81941179725061        1.86100343602434        1.86912849503071     
  0.541460215519786       0.827469257559138        1.04934638961029     
   1.23460992679785        1.38995444597611        1.51732691591630     
   1.61741276417983        1.69009889535426        1.73425349887591     
   1.74739686635873       0.551882313891847       0.832875262745875     
   1.04397197550277        1.21651544994217        1.36051540463896     
   1.47978375414917        1.57573781074847        1.64853520470672     
   1.69717162666494        1.71894434775412       0.623306134491704     
  0.931253687210705        1.15689256569174        1.33788695202764     
   1.48743186752616        1.61134522088713        1.71233397585258     
   1.79138081646089        1.84796034975988        1.87904887565745     
  0.751866111125229        1.11523836643220        1.37656199483877     
   1.58311771565201        1.75208948907095        1.89151203054168     
   2.00547121893729        2.09579667775925        2.16233769504671     
   2.20168003519309       0.914620417843974        1.35068463662180     
   1.66041399369055        1.90262411188696        2.09908948149411     
   2.26027657691581        2.39172065104670        2.49610795453619     
   2.57367607453761        2.62074496440791        1.09688626321220     
   1.61538491021637        1.98065364358151        2.26415601940385     
   2.49261652450454        2.67906583771892        2.83054812839310     
   2.95066608072908        3.04012387700744        3.09509118117075     
   1.29122686168285        1.89794986715986        2.32286656336729     
   2.65082394273861        2.91374558296635        3.12733867697675     
   3.30022599298887        3.43698151785590        3.53883069540167     
   3.60185510334476        1.49419402545890        2.19290436996933     
   2.67985845216940        3.05387280275299        3.35230807674007     
   3.59368717778832        3.78830243404649        3.94176489029974     
   4.05588525487709        4.12674705736818        1.70625888003659     
   2.50024658834348        3.05078747243912        3.47143180876844     
   3.80532393896351        4.07402148543613        4.28965089151962     
   4.45899532074187        4.58457035392884        4.66260335172976     
   1.93450712853824        2.82871259809851        3.44449224915302     
   3.91175453649141        4.28017936519188        4.57480518537819     
   4.80989243668885        4.99361454122051        5.12936593417595     
   5.21369407094564        2.19069623473049        3.19260155200395     
   3.87550102099498        4.38883077034468        4.79021804001590     
   5.10891908270499        5.36172706536291        5.55844146157599     
   5.70350278735682        5.79389281347893        2.46401007257516     
   3.57496798504292        4.32231143956423        4.87773485131332     
   5.30798779259515        5.64709509732986        5.91464333183387     
   6.12220960004713        6.27543021770315        6.37189363025450     
   2.69386104870553        3.88954583218765        4.68222909682667     
   5.26383262549658        5.70945166110145        6.05745907489110     
   6.33002531524147        6.54043715655493        6.69562741916421     
   6.79436430102497        2.80263316026111        4.02454334910531     
   4.82057442867381        5.39529554408394        5.82943408489317     
   6.16437893105893        6.42399013495497        6.62255215135226     
   6.76782290340973        6.86010995984232        2.75563070484699     
   3.92618743741873        4.67053624732234        5.19709600558991     
   5.58847162050193        5.88669104918725        6.11559092388748     
   6.28916609911189        6.41499425378617        6.49423889268284     
   2.55488410363775        3.59185867209139        4.22872937439863     
   4.66928839430903        4.99238606356111        5.23669747752838     
   5.42353073468416        5.56527590108929        5.66882197556042     
   5.73543190876005        2.20233761056130        3.02578445638128     
   3.51228873324569        3.84411408965897        4.08644346558915     
   4.26971197201113        4.41044799209639        4.51871082434147     
   4.60177781900425        4.66585176351939        1.68219565784912     
   2.23771123334850        2.56151206093233        2.78293325680114     
   2.94530857835318        3.06861674270800        3.16374283247477     
   3.23737986100342        3.29453579160776        3.34218906716400     
   1.02232030484857        1.33337330033898        1.51638487914675     
   1.64223563752825        1.73484909691186        1.80533166745089     
   1.85972450018252        1.90158893568767        1.93297090490784     
   1.95342378578252     
  0.000000000000000E+000  0.000000000000000E+000  0.000000000000000E+000
  0.000000000000000E+000  0.000000000000000E+000  0.000000000000000E+000
  0.000000000000000E+000  0.000000000000000E+000  0.000000000000000E+000
  0.000000000000000E+000  0.000000000000000E+000  0.000000000000000E+000
  0.000000000000000E+000  0.000000000000000E+000  0.000000000000000E+000
  0.000000000000000E+000  0.000000000000000E+000  0.000000000000000E+000
  0.000000000000000E+000  0.000000000000000E+000  0.000000000000000E+000
  0.000000000000000E+000  0.000000000000000E+000  0.000000000000000E+000
  0.000000000000000E+000  0.000000000000000E+000  0.000000000000000E+000
  0.000000000000000E+000  0.000000000000000E+000  0.000000000000000E+000
  0.000000000000000E+000  0.000000000000000E+000  0.000000000000000E+000
  0.000000000000000E+000  0.000000000000000E+000  0.000000000000000E+000
  0.000000000000000E+000  0.000000000000000E+000  0.000000000000000E+000
  0.000000000000000E+000  0.000000000000000E+000  0.000000000000000E+000
  0.000000000000000E+000  0.000000000000000E+000  0.000000000000000E+000
  0.000000000000000E+000  0.000000000000000E+000  0.000000000000000E+000
  0.000000000000000E+000  0.000000000000000E+000  0.000000000000000E+000
  0.000000000000000E+000  0.000000000000000E+000  0.000000000000000E+000
  0.000000000000000E+000  0.000000000000000E+000  0.000000000000000E+000
  0.000000000000000E+000  0.000000000000000E+000  0.000000000000000E+000
  0.000000000000000E+000  0.000000000000000E+000  0.000000000000000E+000
  0.000000000000000E+000  0.000000000000000E+000  0.000000000000000E+000
  0.000000000000000E+000  0.000000000000000E+000  0.000000000000000E+000
  0.000000000000000E+000  0.000000000000000E+000  0.000000000000000E+000
  0.000000000000000E+000  0.000000000000000E+000  0.000000000000000E+000
  0.000000000000000E+000  0.000000000000000E+000  0.000000000000000E+000
  0.000000000000000E+000  0.000000000000000E+000  0.000000000000000E+000
  0.000000000000000E+000  0.000000000000000E+000  0.000000000000000E+000
  0.000000000000000E+000  0.000000000000000E+000  0.000000000000000E+000
  0.000000000000000E+000  0.000000000000000E+000  0.000000000000000E+000
  0.000000000000000E+000  0.000000000000000E+000  0.000000000000000E+000
  0.000000000000000E+000  0.000000000000000E+000  0.000000000000000E+000
  0.000000000000000E+000  0.000000000000000E+000  0.000000000000000E+000
  0.000000000000000E+000  0.000000000000000E+000  0.000000000000000E+000
  0.000000000000000E+000  0.000000000000000E+000  0.000000000000000E+000
  0.000000000000000E+000  0.000000000000000E+000  0.000000000000000E+000
  0.000000000000000E+000  0.000000000000000E+000  0.000000000000000E+000
  0.000000000000000E+000  0.000000000000000E+000  0.000000000000000E+000
  0.000000000000000E+000  0.000000000000000E+000  0.000000000000000E+000