 Title = "Wing and Wake"
 VARIABLES = "X" "Y" "Z" "GAM" "skew"
 Zone I=   11 J=   26 K=1  T="Blade"
 DATAPACKING=BLOCK
 VARLOCATION=([4]=CELLCENTERED,[5]=CELLCENTERED)
  0.168495511047601       0.149936908300908       0.131378305554213     
  0.112819702807519       9.426110006082512E-002  7.570249731413115E-002
  5.714389456743695E-002  3.858529182074294E-002  2.002668907404915E-002
  1.468086327354695E-003 -1.709051641933929E-002  0.168158682323088     
  0.149600079576394       0.131041476829700       0.112482874083006     
  9.392427133631193E-002  7.536566858961792E-002  5.680706584292372E-002
  3.824846309622993E-002  1.968986034953572E-002  1.131257602841727E-003
 -1.742734514385260E-002  0.167153508139746       0.148594905393052     
  0.130036302646358       0.111477699899664       9.291909715296955E-002
  7.436049440627551E-002  5.580189165958121E-002  3.724328891288757E-002
  1.868468616619364E-002  1.260834194992382E-004 -1.843251932719463E-002
  0.165495840694908       0.146937237948213       0.128378635201519     
  0.109820032454826       9.126142970813153E-002  7.270282696143722E-002
  5.414422421474342E-002  3.558562146804934E-002  1.702701872135512E-002
 -1.531584025339191E-003 -2.009018677203268E-002  0.163211822394421     
  0.144653219647727       0.126094616901033       0.107536014154339     
  8.897741140764499E-002  7.041880866095088E-002  5.186020591425674E-002
  3.330160316756291E-002  1.474300042086872E-002 -3.815602325825053E-003
 -2.237420507251922E-002  0.160337473571292       0.141778870824598     
  0.123220268077904       0.104661665331209       8.610306258451562E-002
  6.754445983782106E-002  4.898585709112726E-002  3.042725434443333E-002
  1.186865159773898E-002 -6.689951148955123E-003 -2.524855389564925E-002
  0.156918124423512       0.138359521676818       0.119800918930125     
  0.101242316183430       8.268371343673614E-002  6.412511069004208E-002
  4.556650794334826E-002  2.700790519665435E-002  8.449302449960427E-003
 -1.010930029673380E-002 -2.866790304342791E-002  0.153007700129764     
  0.134449097383070       0.115890494636376       9.733189188968228E-002
  7.877328914298794E-002  6.021468639629393E-002  4.165608364959991E-002
  2.309748090290623E-002  4.538878156211708E-003 -1.401972459048198E-002
 -3.257832733717617E-002  0.148667870417134       0.130109267670439     
  0.111550664923745       9.299206217705169E-002  7.443345943035790E-002
  5.587485668366357E-002  3.731625393696920E-002  1.875765119027538E-002
  1.990484435810173E-004 -1.835955430311291E-002 -3.691815704980662E-002
  0.143967076992678       0.125408474245984       0.106849871499290     
  8.829126875259534E-002  6.973266600590150E-002  5.117406325920774E-002
  3.261546051251335E-002  1.405685776581934E-002 -4.501744980874781E-003
 -2.306034772756864E-002 -4.161895047426274E-002  0.138979454176818     
  0.120420851430123       0.101862248683430       8.330364593673592E-002
  6.474504319004161E-002  4.618644044334744E-002  2.762783769665389E-002
  9.069234949958607E-003 -9.489367796734430E-003 -2.804797054342888E-002
 -4.660657329012281E-002  0.133783659760821       0.115225057014127     
  9.666645426743269E-002  7.810785152073860E-002  5.954924877404448E-002
  4.099064602735098E-002  2.243204328065687E-002  3.873440533962520E-003
 -1.468516221273177E-002 -3.324376495942517E-002 -5.180236770611918E-002
  0.128461634526445       0.109903031779751       9.134442903305658E-002
  7.278582628636357E-002  5.422722353966957E-002  3.566862079297555E-002
  1.711001804628052E-002 -1.448584700413295E-003 -2.000718744710681E-002
 -3.856579019380123E-002 -5.712439294049518E-002  0.123097309990861     
  0.104538707244166       8.598010449747316E-002  6.742150175077849E-002
  4.886289900408448E-002  3.030429625739032E-002  1.174569351069555E-002
 -6.812909235996620E-003 -2.537151198269206E-002 -4.393011472938604E-002
 -6.248871747607988E-002  0.117775284756485       9.921668200979157E-002
  8.065807926309683E-002  6.209947651640303E-002  4.354087376970874E-002
  2.498227102301530E-002  6.423668276321187E-003 -1.213493447037441E-002
 -3.069353721706736E-002 -4.925213996376123E-002 -6.781074271045559E-002
  0.112579490340489       9.402088759379405E-002  7.546228484710012E-002
  5.690368210040773E-002  3.834507935371270E-002  1.978647660701830E-002
  1.227873860324875E-003 -1.733072888636958E-002 -3.588933163306326E-002
 -5.444793437975774E-002 -7.300653712645196E-002  0.107591867524629     
  8.903326477793476E-002  7.047466203124035E-002  5.191605928454673E-002
  3.335745653785211E-002  1.479885379115824E-002 -3.759748955536246E-003
 -2.231835170222999E-002 -4.087695444892413E-002 -5.943555719561861E-002
 -7.799415994231174E-002  0.102891074100173       8.433247135347778E-002
  6.577386860678351E-002  4.721526586009041E-002  2.865666311339629E-002
  1.009806036670189E-002 -8.460542379992423E-003 -2.701914512668635E-002
 -4.557774787338011E-002 -6.413635062007422E-002 -8.269495336676747E-002
  9.855124438754138E-002  7.999264164084741E-002  6.143403889415320E-002
  4.287543614746032E-002  2.431683340076590E-002  5.758230654071858E-003
 -1.280037209262209E-002 -3.135897483931630E-002 -4.991757758601060E-002
 -6.847618033270546E-002 -8.703478307939835E-002  9.464082009379390E-002
  7.608221734709902E-002  5.752361460040591E-002  3.896501185371048E-002
  2.040640910701846E-002  1.847806360322216E-003 -1.671079638636936E-002
 -3.526939913306498E-002 -5.382800187975943E-002 -7.238660462645331E-002
 -9.094520737314596E-002  9.122147094601371E-002  7.266286819932055E-002
  5.410426545262641E-002  3.554566270593240E-002  1.698705995923847E-002
 -1.571542787455707E-003 -2.013014553415069E-002 -3.868874828084429E-002
 -5.724735102753738E-002 -7.580595377423267E-002 -9.436455652092593E-002
  8.834712212288542E-002  6.978851937619189E-002  5.122991662949552E-002
  3.267131388280270E-002  1.411271113611002E-002 -4.445891610585576E-003
 -2.300449435728022E-002 -4.156309710397287E-002 -6.012169985066641E-002
 -7.868030259736289E-002 -9.723890534405710E-002  8.606310382239762E-002
  6.750450107570456E-002  4.894589832901053E-002  3.038729558231651E-002
  1.182869283562225E-002 -6.729909911071512E-003 -2.528851265776544E-002
 -4.384711540446043E-002 -6.240571815115374E-002 -8.096432089784722E-002
 -9.952292364454281E-002  8.440543637756066E-002  6.584683363086738E-002
  4.728823088417254E-002  2.872962813747856E-002  1.017102539078407E-002
 -8.387577355911131E-003 -2.694618010260406E-002 -4.550478284929921E-002
 -6.406338559599141E-002 -8.262198834268805E-002 -0.101180591089381     
  8.340026219421799E-002  6.484165944752478E-002  4.628305670083168E-002
  2.772445395413616E-002  9.165851207441780E-003 -9.392751539253482E-003
 -2.795135428594763E-002 -4.650995703264089E-002 -6.506855977933472E-002
 -8.362716252602881E-002 -0.102185765272722       8.306343346970546E-002
  6.450483072300971E-002  4.594622797631805E-002  2.738762522962198E-002
  8.829022482928333E-003 -9.729580263765435E-003 -2.828818301045936E-002
 -4.684678575715372E-002 -6.540538850384772E-002 -8.396399125054202E-002
 -0.102522593997237     
 -0.206483781035034      -0.204812410546044      -0.203141040057054     
 -0.201469669568064      -0.199798299079074      -0.198126928590084     
 -0.196455558101094      -0.194784187612104      -0.193112817123114     
 -0.191441446634123      -0.189770076145134      -0.210223867708273     
 -0.208552497219283      -0.206881126730292      -0.205209756241303     
 -0.203538385752313      -0.201867015263323      -0.200195644774332     
 -0.198524274285342      -0.196852903796353      -0.195181533307363     
 -0.193510162818373      -0.221385144326933      -0.219713773837943     
 -0.218042403348952      -0.216371032859963      -0.214699662370972     
 -0.213028291881982      -0.211356921392993      -0.209685550904003     
 -0.208014180415012      -0.206342809926022      -0.204671439437032     
 -0.239791590891314      -0.238120220402324      -0.236448849913334     
 -0.234777479424345      -0.233106108935354      -0.231434738446364     
 -0.229763367957374      -0.228091997468384      -0.226420626979394     
 -0.224749256490404      -0.223077886001414      -0.265152926743618     
 -0.263481556254628      -0.261810185765638      -0.260138815276648     
 -0.258467444787658      -0.256796074298669      -0.255124703809679     
 -0.253453333320688      -0.251781962831698      -0.250110592342708     
 -0.248439221853718      -0.297069188467327      -0.295397817978338     
 -0.293726447489347      -0.292055077000357      -0.290383706511367     
 -0.288712336022378      -0.287040965533387      -0.285369595044397     
 -0.283698224555407      -0.282026854066417      -0.280355483577427     
 -0.335037037549206      -0.333365667060217      -0.331694296571227     
 -0.330022926082237      -0.328351555593246      -0.326680185104257     
 -0.325008814615267      -0.323337444126276      -0.321666073637286     
 -0.319994703148296      -0.318323332659306      -0.378457698328343     
 -0.376786327839352      -0.375114957350363      -0.373443586861373     
 -0.371772216372382      -0.370100845883392      -0.368429475394402     
 -0.366758104905413      -0.365086734416422      -0.363415363927432     
 -0.361743993438443      -0.426646401046002      -0.424975030557013     
 -0.423303660068022      -0.421632289579032      -0.419960919090042     
 -0.418289548601052      -0.416618178112061      -0.414946807623071     
 -0.413275437134082      -0.411604066645092      -0.409932696156102     
 -0.478843181073791      -0.477171810584802      -0.475500440095812     
 -0.473829069606822      -0.472157699117832      -0.470486328628841     
 -0.468814958139851      -0.467143587650862      -0.465472217161871     
 -0.463800846672881      -0.462129476183891      -0.534224864009829     
 -0.532553493520839      -0.530882123031848      -0.529210752542859     
 -0.527539382053869      -0.525868011564879      -0.524196641075887     
 -0.522525270586899      -0.520853900097908      -0.519182529608918     
 -0.517511159119928      -0.591918047630798      -0.590246677141807     
 -0.588575306652818      -0.586903936163826      -0.585232565674837     
 -0.583561195185848      -0.581889824696858      -0.580218454207867     
 -0.578547083718877      -0.576875713229887      -0.575204342740897     
 -0.651012875966759      -0.649341505477769      -0.647670134988778     
 -0.645998764499789      -0.644327394010799      -0.642656023521808     
 -0.640984653032819      -0.639313282543829      -0.637641912054839     
 -0.635970541565848      -0.634299171076858      -0.710577388273316     
 -0.708906017784324      -0.707234647295334      -0.705563276806344     
 -0.703891906317355      -0.702220535828365      -0.700549165339375     
 -0.698877794850383      -0.697206424361396      -0.695535053872404     
 -0.693863683383414      -0.769672216609275      -0.768000846120285     
 -0.766329475631296      -0.764658105142305      -0.762986734653315     
 -0.761315364164327      -0.759643993675335      -0.757972623186345     
 -0.756301252697354      -0.754629882208363      -0.752958511719376     
 -0.827365400230245      -0.825694029741254      -0.824022659252265     
 -0.822351288763275      -0.820679918274285      -0.819008547785295     
 -0.817337177296304      -0.815665806807314      -0.813994436318324     
 -0.812323065829333      -0.810651695340345      -0.882747083166282     
 -0.881075712677291      -0.879404342188301      -0.877732971699312     
 -0.876061601210321      -0.874390230721331      -0.872718860232341     
 -0.871047489743353      -0.869376119254361      -0.867704748765372     
 -0.866033378276382      -0.934943863194071      -0.933272492705081     
 -0.931601122216090      -0.929929751727101      -0.928258381238111     
 -0.926587010749123      -0.924915640260131      -0.923244269771141     
 -0.921572899282150      -0.919901528793160      -0.918230158304170     
 -0.983132565911729      -0.981461195422739      -0.979789824933750     
 -0.978118454444760      -0.976447083955771      -0.974775713466780     
 -0.973104342977789      -0.971432972488800      -0.969761601999811     
 -0.968090231510820      -0.966418861021829       -1.02655322669087     
  -1.02488185620188       -1.02321048571288       -1.02153911522390     
  -1.01986774473491       -1.01819637424591       -1.01652500375693     
  -1.01485363326794       -1.01318226277895       -1.01151089228996     
  -1.00983952180096       -1.06452107577275       -1.06284970528376     
  -1.06117833479476       -1.05950696430577       -1.05783559381679     
  -1.05616422332779       -1.05449285283881       -1.05282148234982     
  -1.05115011186083       -1.04947874137183       -1.04780737088284     
  -1.09643733749645       -1.09476596700746       -1.09309459651847     
  -1.09142322602948       -1.08975185554049       -1.08808048505151     
  -1.08640911456251       -1.08473774407352       -1.08306637358453     
  -1.08139500309554       -1.07972363260656       -1.12179867334876     
  -1.12012730285977       -1.11845593237078       -1.11678456188179     
  -1.11511319139280       -1.11344182090381       -1.11177045041482     
  -1.11009907992583       -1.10842770943684       -1.10675633894785     
  -1.10508496845886       -1.14020511991314       -1.13853374942415     
  -1.13686237893516       -1.13519100844617       -1.13351963795718     
  -1.13184826746819       -1.13017689697920       -1.12850552649021     
  -1.12683415600122       -1.12516278551223       -1.12349141502324     
  -1.15136639653180       -1.14969502604281       -1.14802365555382     
  -1.14635228506483       -1.14468091457584       -1.14300954408685     
  -1.14133817359786       -1.13966680310887       -1.13799543261988     
  -1.13632406213089       -1.13465269164190       -1.15510648320504     
  -1.15343511271605       -1.15176374222706       -1.15009237173807     
  -1.14842100124908       -1.14674963076009       -1.14507826027110     
  -1.14340688978211       -1.14173551929312       -1.14006414880413     
  -1.13839277831514     
  3.960717710078315E-002  3.564645939070483E-002  3.168574168062652E-002
  2.772502397054821E-002  2.376430626046989E-002  1.980358855039158E-002
  1.584287084031326E-002  1.188215313023495E-002  7.921435420156629E-003
  3.960717710078312E-003  0.000000000000000E+000  3.960717710078315E-002
  3.564645939070483E-002  3.168574168062652E-002  2.772502397054821E-002
  2.376430626046989E-002  1.980358855039158E-002  1.584287084031326E-002
  1.188215313023495E-002  7.921435420156629E-003  3.960717710078312E-003
  0.000000000000000E+000  3.960717710078315E-002  3.564645939070483E-002
  3.168574168062652E-002  2.772502397054821E-002  2.376430626046989E-002
  1.980358855039158E-002  1.584287084031326E-002  1.188215313023495E-002
  7.921435420156629E-003  3.960717710078312E-003  0.000000000000000E+000
  3.960717710078315E-002  3.564645939070483E-002  3.168574168062652E-002
  2.772502397054821E-002  2.376430626046989E-002  1.980358855039158E-002
  1.584287084031326E-002  1.188215313023495E-002  7.921435420156629E-003
  3.960717710078312E-003  0.000000000000000E+000  3.960717710078315E-002
  3.564645939070483E-002  3.168574168062652E-002  2.772502397054821E-002
  2.376430626046989E-002  1.980358855039158E-002  1.584287084031326E-002
  1.188215313023495E-002  7.921435420156629E-003  3.960717710078312E-003
  0.000000000000000E+000  3.960717710078315E-002  3.564645939070483E-002
  3.168574168062652E-002  2.772502397054821E-002  2.376430626046989E-002
  1.980358855039158E-002  1.584287084031326E-002  1.188215313023495E-002
  7.921435420156629E-003  3.960717710078312E-003  0.000000000000000E+000
  3.960717710078315E-002  3.564645939070483E-002  3.168574168062652E-002
  2.772502397054821E-002  2.376430626046989E-002  1.980358855039158E-002
  1.584287084031326E-002  1.188215313023495E-002  7.921435420156629E-003
  3.960717710078312E-003  0.000000000000000E+000  3.960717710078315E-002
  3.564645939070483E-002  3.168574168062652E-002  2.772502397054821E-002
  2.376430626046989E-002  1.980358855039158E-002  1.584287084031326E-002
  1.188215313023495E-002  7.921435420156629E-003  3.960717710078312E-003
  0.000000000000000E+000  3.960717710078315E-002  3.564645939070483E-002
  3.168574168062652E-002  2.772502397054821E-002  2.376430626046989E-002
  1.980358855039158E-002  1.584287084031326E-002  1.188215313023495E-002
  7.921435420156629E-003  3.960717710078312E-003  0.000000000000000E+000
  3.960717710078315E-002  3.564645939070483E-002  3.168574168062652E-002
  2.772502397054821E-002  2.376430626046989E-002  1.980358855039158E-002
  1.584287084031326E-002  1.188215313023495E-002  7.921435420156629E-003
  3.960717710078312E-003  0.000000000000000E+000  3.960717710078315E-002
  3.564645939070483E-002  3.168574168062652E-002  2.772502397054821E-002
  2.376430626046989E-002  1.980358855039158E-002  1.584287084031326E-002
  1.188215313023495E-002  7.921435420156629E-003  3.960717710078312E-003
  0.000000000000000E+000  3.960717710078315E-002  3.564645939070483E-002
  3.168574168062652E-002  2.772502397054821E-002  2.376430626046989E-002
  1.980358855039158E-002  1.584287084031326E-002  1.188215313023495E-002
  7.921435420156629E-003  3.960717710078312E-003  0.000000000000000E+000
  3.960717710078315E-002  3.564645939070483E-002  3.168574168062652E-002
  2.772502397054821E-002  2.376430626046989E-002  1.980358855039158E-002
  1.584287084031326E-002  1.188215313023495E-002  7.921435420156629E-003
  3.960717710078312E-003  0.000000000000000E+000  3.960717710078315E-002
  3.564645939070483E-002  3.168574168062652E-002  2.772502397054821E-002
  2.376430626046989E-002  1.980358855039158E-002  1.584287084031326E-002
  1.188215313023495E-002  7.921435420156629E-003  3.960717710078312E-003
  0.000000000000000E+000  3.960717710078315E-002  3.564645939070483E-002
  3.168574168062652E-002  2.772502397054821E-002  2.376430626046989E-002
  1.980358855039158E-002  1.584287084031326E-002  1.188215313023495E-002
  7.921435420156629E-003  3.960717710078312E-003  0.000000000000000E+000
  3.960717710078315E-002  3.564645939070483E-002  3.168574168062652E-002
  2.772502397054821E-002  2.376430626046989E-002  1.980358855039158E-002
  1.584287084031326E-002  1.188215313023495E-002  7.921435420156629E-003
  3.960717710078312E-003  0.000000000000000E+000  3.960717710078315E-002
  3.564645939070483E-002  3.168574168062652E-002  2.772502397054821E-002
  2.376430626046989E-002  1.980358855039158E-002  1.584287084031326E-002
  1.188215313023495E-002  7.921435420156629E-003  3.960717710078312E-003
  0.000000000000000E+000  3.960717710078315E-002  3.564645939070483E-002
  3.168574168062652E-002  2.772502397054821E-002  2.376430626046989E-002
  1.980358855039158E-002  1.584287084031326E-002  1.188215313023495E-002
  7.921435420156629E-003  3.960717710078312E-003  0.000000000000000E+000
  3.960717710078315E-002  3.564645939070483E-002  3.168574168062652E-002
  2.772502397054821E-002  2.376430626046989E-002  1.980358855039158E-002
  1.584287084031326E-002  1.188215313023495E-002  7.921435420156629E-003
  3.960717710078312E-003  0.000000000000000E+000  3.960717710078315E-002
  3.564645939070483E-002  3.168574168062652E-002  2.772502397054821E-002
  2.376430626046989E-002  1.980358855039158E-002  1.584287084031326E-002
  1.188215313023495E-002  7.921435420156629E-003  3.960717710078312E-003
  0.000000000000000E+000  3.960717710078315E-002  3.564645939070483E-002
  3.168574168062652E-002  2.772502397054821E-002  2.376430626046989E-002
  1.980358855039158E-002  1.584287084031326E-002  1.188215313023495E-002
  7.921435420156629E-003  3.960717710078312E-003  0.000000000000000E+000
  3.960717710078315E-002  3.564645939070483E-002  3.168574168062652E-002
  2.772502397054821E-002  2.376430626046989E-002  1.980358855039158E-002
  1.584287084031326E-002  1.188215313023495E-002  7.921435420156629E-003
  3.960717710078312E-003  0.000000000000000E+000  3.960717710078315E-002
  3.564645939070483E-002  3.168574168062652E-002  2.772502397054821E-002
  2.376430626046989E-002  1.980358855039158E-002  1.584287084031326E-002
  1.188215313023495E-002  7.921435420156629E-003  3.960717710078312E-003
  0.000000000000000E+000  3.960717710078315E-002  3.564645939070483E-002
  3.168574168062652E-002  2.772502397054821E-002  2.376430626046989E-002
  1.980358855039158E-002  1.584287084031326E-002  1.188215313023495E-002
  7.921435420156629E-003  3.960717710078312E-003  0.000000000000000E+000
  3.960717710078315E-002  3.564645939070483E-002  3.168574168062652E-002
  2.772502397054821E-002  2.376430626046989E-002  1.980358855039158E-002
  1.584287084031326E-002  1.188215313023495E-002  7.921435420156629E-003
  3.960717710078312E-003  0.000000000000000E+000  3.960717710078315E-002
  3.564645939070483E-002  3.168574168062652E-002  2.772502397054821E-002
  2.376430626046989E-002  1.980358855039158E-002  1.584287084031326E-002
  1.188215313023495E-002  7.921435420156629E-003  3.960717710078312E-003
  0.000000000000000E+000
  2.310491722132211E-002  4.445125258409485E-002  6.591295413609484E-002
  8.759424022029595E-002  0.109595733716965       0.132106115691366     
  0.155265874435186       0.179073150833118       0.203557971250339     
  0.227946415253348       4.037412724878914E-002  7.660427502162852E-002
  0.112806414679878       0.149263250589687       0.186184840343683     
  0.223884338132880       0.262626125941586       0.302554551671202     
  0.343977968819015       0.386623549866699       6.142938789356895E-002
  0.112417993022411       0.162413418004625       0.212275905831036     
  0.262437091449716       0.313350249052700       0.365470097803821     
  0.419296978468174       0.475512362955250       0.533021780315311     
  8.949561020646923E-002  0.155692373652837       0.218229102840446     
  0.279370075937905       0.339982110899711       0.400709891939742     
  0.462145392636810       0.524834323459056       0.588966657541377     
  0.651735698660779       0.130942422138609       0.216148957503852     
  0.292229059361229       0.364169707789138       0.433726123714488     
  0.501890333552298       0.569350630897452       0.636553599420339     
  0.703413506514118       0.766840960393136       0.193260052181469     
  0.305544018971093       0.399481247519382       0.484475064831019     
  0.563822295039341       0.639176888251486       0.711555373949929     
  0.781569892411787       0.849162588349170       0.911228581343190     
  0.281963533603337       0.432791928981310       0.551800652543292     
  0.654757437030726       0.747343830908717       0.832337253704380     
  0.911325995230331       0.985198189424996        1.05398578146724     
   1.11461718951477       0.398050832987063       0.600176034112342     
  0.752971898550519       0.880397826518265       0.991257720199982     
   1.08985112925097        1.17857648707726        1.25873994650358     
   1.33051775962968        1.39079013465214       0.538787024614755     
  0.804039909653660       0.998981781189303        1.15732834041916     
   1.29161040539474        1.40797144989357        1.50981336365111     
   1.59896636980968        1.67577627472656        1.73698794931553     
  0.699953628427878        1.03819908624436        1.28232171210434     
   1.47707658829068        1.63920235852831        1.77692774182259     
   1.89479907260381        1.99525737423128        2.07885953106538     
   2.14217821129562       0.877644981664889        1.29674501652537     
   1.59558941902653        1.83103673324427        2.02443889571977     
   2.18631799314460        2.32248796412263        2.43607573175767     
   2.52789262697772        2.59433045305495        1.06849745174451     
   1.57456072770380        1.93233664573403        2.21166650093897     
   2.43886372744664        2.62693223985277        2.78307322471941     
   2.91117894331570        3.01236202315253        3.08284091929600     
   1.26949539366528        1.86706377285330        2.28678591319818     
   2.61218896606341        2.87482850071784        3.09035451709820     
   3.26747445054139        3.41094181125216        3.52225200941446     
   3.59749325337421        1.47848575653343        2.17084501027826     
   2.65445275346718        3.02712700931692        3.32592274096257     
   3.56928926788540        3.76756618799065        3.92649364025677     
   4.04807476046135        4.12837658648250        1.69653416454381     
   2.48683528700613        3.03568488720653        3.45599058576970     
   3.79069318317473        4.06129282234456        4.27994074705434     
   4.45351242964676        4.58467420937725        4.66965630787863     
   1.93229291157626        2.82594514661066        3.44184625609686     
   3.90977597540855        4.27939828884067        4.57576387419229     
   4.81316036059439        4.99981274798036        5.13920288501474     
   5.22788812859603        2.19972370724136        3.20551758293870     
   3.89104607846039        4.40648188167512        4.80975354987796     
   5.13025323319781        5.38482113843934        5.58325581246774     
   5.72997081818044        5.82186316091701        2.48557866847775     
   3.60545324263951        4.35839487676431        4.91779654632841     
   5.35103039333491        5.69236605461528        5.96145962018081     
   6.16984706809545        6.32301610180496        6.41831104251493     
   2.72285189823621        3.93058192305111        4.73077815410360     
   5.31756264632809        5.76679048853543        6.11712891830405     
   6.39085709619799        6.60123528272487        6.75501820328232     
   6.85070272294164        2.83113759871617        4.06514987013623     
   4.86876629243083        5.44862909005347        5.88621373696423     
   6.22322977001105        6.48365965058248        6.68175928778259     
   6.82510390326833        6.91375993814785        2.77977644299704     
   3.96083388430027        4.71183849626053        5.24289858259385     
   5.63725007083339        5.93720816605748        6.16672031728467     
   6.33975592177456        6.46373443170104        6.53962068578955     
   2.57405044835627        3.61935558740236        4.26150284064459     
   4.70563434077231        5.03109841158538        5.27679031535944     
   5.46409957790983        5.60539277882373        5.70742867920214     
   5.77129842199005        2.21692822119670        3.04649475677513     
   3.53683483628886        3.87125871712961        4.11531411894529     
   4.29959183075577        4.44067591571820        4.54860684450150     
   4.63056786584914        4.69263772800371        1.69246598194776     
   2.25197701554656        2.57828367599576        2.80141330451312     
   2.96492861993845        3.08890512511314        3.18426191165308     
   3.25767868281468        3.31410154810383        3.36043100673167     
   1.02836700547563        1.34164845853926        1.52607217179484     
   1.65289071758957        1.74615174343862        1.81701446981359     
   1.87153844570604        1.91327692165206        1.94423923400765     
   1.96392106345505     
  0.000000000000000E+000  0.000000000000000E+000  0.000000000000000E+000
  0.000000000000000E+000  0.000000000000000E+000  0.000000000000000E+000
  0.000000000000000E+000  0.000000000000000E+000  0.000000000000000E+000
  0.000000000000000E+000  0.000000000000000E+000  0.000000000000000E+000
  0.000000000000000E+000  0.000000000000000E+000  0.000000000000000E+000
  0.000000000000000E+000  0.000000000000000E+000  0.000000000000000E+000
  0.000000000000000E+000  0.000000000000000E+000  0.000000000000000E+000
  0.000000000000000E+000  0.000000000000000E+000  0.000000000000000E+000
  0.000000000000000E+000  0.000000000000000E+000  0.000000000000000E+000
  0.000000000000000E+000  0.000000000000000E+000  0.000000000000000E+000
  0.000000000000000E+000  0.000000000000000E+000  0.000000000000000E+000
  0.000000000000000E+000  0.000000000000000E+000  0.000000000000000E+000
  0.000000000000000E+000  0.000000000000000E+000  0.000000000000000E+000
  0.000000000000000E+000  0.000000000000000E+000  0.000000000000000E+000
  0.000000000000000E+000  0.000000000000000E+000  0.000000000000000E+000
  0.000000000000000E+000  0.000000000000000E+000  0.000000000000000E+000
  0.000000000000000E+000  0.000000000000000E+000  0.000000000000000E+000
  0.000000000000000E+000  0.000000000000000E+000  0.000000000000000E+000
  0.000000000000000E+000  0.000000000000000E+000  0.000000000000000E+000
  0.000000000000000E+000  0.000000000000000E+000  0.000000000000000E+000
  0.000000000000000E+000  0.000000000000000E+000  0.000000000000000E+000
  0.000000000000000E+000  0.000000000000000E+000  0.000000000000000E+000
  0.000000000000000E+000  0.000000000000000E+000  0.000000000000000E+000
  0.000000000000000E+000  0.000000000000000E+000  0.000000000000000E+000
  0.000000000000000E+000  0.000000000000000E+000  0.000000000000000E+000
  0.000000000000000E+000  0.000000000000000E+000  0.000000000000000E+000
  0.000000000000000E+000  0.000000000000000E+000  0.000000000000000E+000
  0.000000000000000E+000  0.000000000000000E+000  0.000000000000000E+000
  0.000000000000000E+000  0.000000000000000E+000  0.000000000000000E+000
  0.000000000000000E+000  0.000000000000000E+000  0.000000000000000E+000
  0.000000000000000E+000  0.000000000000000E+000  0.000000000000000E+000
  0.000000000000000E+000  0.000000000000000E+000  0.000000000000000E+000
  0.000000000000000E+000  0.000000000000000E+000  0.000000000000000E+000
  0.000000000000000E+000  0.000000000000000E+000  0.000000000000000E+000
  0.000000000000000E+000  0.000000000000000E+000  0.000000000000000E+000
  0.000000000000000E+000  0.000000000000000E+000  0.000000000000000E+000
  0.000000000000000E+000  0.000000000000000E+000  0.000000000000000E+000
  0.000000000000000E+000  0.000000000000000E+000  0.000000000000000E+000
  0.000000000000000E+000  0.000000000000000E+000  0.000000000000000E+000