 Title = "Wing and Wake"
 VARIABLES = "X" "Y" "Z" "GAM" "skew"
 Zone I=   11 J=   26 K=1  T="Blade"
 DATAPACKING=BLOCK
 VARLOCATION=([4]=CELLCENTERED,[5]=CELLCENTERED)
 -0.226735616957769      -0.222652883560644      -0.218570150163520     
 -0.214487416766396      -0.210404683369272      -0.206321949972147     
 -0.202239216575023      -0.198156483177899      -0.194073749780774     
 -0.189991016383650      -0.185908282986526      -0.230399593416896     
 -0.226316860019772      -0.222234126622648      -0.218151393225524     
 -0.214068659828399      -0.209985926431275      -0.205903193034151     
 -0.201820459637026      -0.197737726239902      -0.193654992842778     
 -0.189572259445653      -0.241333739696765      -0.237251006299641     
 -0.233168272902516      -0.229085539505392      -0.225002806108268     
 -0.220920072711144      -0.216837339314019      -0.212754605916895     
 -0.208671872519771      -0.204589139122646      -0.200506405725522     
 -0.259365617778799      -0.255282884381675      -0.251200150984551     
 -0.247117417587426      -0.243034684190302      -0.238951950793178     
 -0.234869217396054      -0.230786483998929      -0.226703750601805     
 -0.222621017204681      -0.218538283807556      -0.284210854173923     
 -0.280128120776799      -0.276045387379674      -0.271962653982550     
 -0.267879920585426      -0.263797187188302      -0.259714453791177     
 -0.255631720394053      -0.251548986996929      -0.247466253599805     
 -0.243383520202680      -0.315477624662361      -0.311394891265237     
 -0.307312157868112      -0.303229424470988      -0.299146691073864     
 -0.295063957676740      -0.290981224279615      -0.286898490882491     
 -0.282815757485367      -0.278733024088242      -0.274650290691118     
 -0.352672833595646      -0.348590100198522      -0.344507366801398     
 -0.340424633404274      -0.336341900007150      -0.332259166610026     
 -0.328176433212901      -0.324093699815777      -0.320010966418652     
 -0.315928233021528      -0.311845499624403      -0.395209890309562     
 -0.391127156912437      -0.387044423515313      -0.382961690118188     
 -0.378878956721064      -0.374796223323940      -0.370713489926816     
 -0.366630756529691      -0.362548023132567      -0.358465289735443     
 -0.354382556338319      -0.442417960009321      -0.438335226612197     
 -0.434252493215072      -0.430169759817948      -0.426087026420824     
 -0.422004293023700      -0.417921559626575      -0.413838826229451     
 -0.409756092832327      -0.405673359435203      -0.401590626038078     
 -0.493552543235026      -0.489469809837902      -0.485387076440778     
 -0.481304343043653      -0.477221609646529      -0.473138876249405     
 -0.469056142852280      -0.464973409455156      -0.460890676058032     
 -0.456807942660908      -0.452725209263783      -0.547807217062889     
 -0.543724483665765      -0.539641750268640      -0.535559016871516     
 -0.531476283474392      -0.527393550077268      -0.523310816680143     
 -0.519228083283019      -0.515145349885894      -0.511062616488770     
 -0.506979883091646      -0.604326352876471      -0.600243619479347     
 -0.596160886082223      -0.592078152685098      -0.587995419287974     
 -0.583912685890850      -0.579829952493725      -0.575747219096602     
 -0.571664485699477      -0.567581752302353      -0.563499018905229     
 -0.662218610141099      -0.658135876743974      -0.654053143346849     
 -0.649970409949725      -0.645887676552602      -0.641804943155477     
 -0.637722209758352      -0.633639476361229      -0.629556742964104     
 -0.625474009566980      -0.621391276169856      -0.720570993376550     
 -0.716488259979425      -0.712405526582301      -0.708322793185176     
 -0.704240059788052      -0.700157326390928      -0.696074592993805     
 -0.691991859596679      -0.687909126199555      -0.683826392802431     
 -0.679743659405306      -0.778463250641177      -0.774380517244053     
 -0.770297783846929      -0.766215050449804      -0.762132317052680     
 -0.758049583655556      -0.753966850258431      -0.749884116861306     
 -0.745801383464183      -0.741718650067058      -0.737635916669935     
 -0.834982386454760      -0.830899653057635      -0.826816919660511     
 -0.822734186263387      -0.818651452866262      -0.814568719469138     
 -0.810485986072014      -0.806403252674890      -0.802320519277765     
 -0.798237785880640      -0.794155052483517      -0.889237060282622     
 -0.885154326885498      -0.881071593488373      -0.876988860091250     
 -0.872906126694124      -0.868823393297001      -0.864740659899875     
 -0.860657926502752      -0.856575193105628      -0.852492459708504     
 -0.848409726311379      -0.940371643508328      -0.936288910111202     
 -0.932206176714079      -0.928123443316954      -0.924040709919830     
 -0.919957976522706      -0.915875243125581      -0.911792509728457     
 -0.907709776331333      -0.903627042934208      -0.899544309537083     
 -0.987579713208086      -0.983496979810962      -0.979414246413838     
 -0.975331513016713      -0.971248779619590      -0.967166046222465     
 -0.963083312825340      -0.959000579428217      -0.954917846031092     
 -0.950835112633968      -0.946752379236844       -1.03011676992200     
  -1.02603403652488       -1.02195130312775       -1.01786856973063     
  -1.01378583633350       -1.00970310293638       -1.00562036953926     
  -1.00153763614213      -0.997454902745007      -0.993372169347883     
 -0.989289435950758       -1.06731197885529       -1.06322924545816     
  -1.05914651206104       -1.05506377866391       -1.05098104526679     
  -1.04689831186967       -1.04281557847254       -1.03873284507542     
  -1.03465011167829       -1.03056737828117       -1.02648464488404     
  -1.09857874934372       -1.09449601594660       -1.09041328254948     
  -1.08633054915235       -1.08224781575523       -1.07816508235810     
  -1.07408234896098       -1.06999961556385       -1.06591688216673     
  -1.06183414876961       -1.05775141537248       -1.12342398573885     
  -1.11934125234172       -1.11525851894460       -1.11117578554748     
  -1.10709305215035       -1.10301031875323       -1.09892758535610     
  -1.09484485195898       -1.09076211856185       -1.08667938516473     
  -1.08259665176761       -1.14145586382088       -1.13737313042376     
  -1.13329039702663       -1.12920766362951       -1.12512493023239     
  -1.12104219683526       -1.11695946343814       -1.11287673004101     
  -1.10879399664389       -1.10471126324676       -1.10062852984964     
  -1.15239001010075       -1.14830727670363       -1.14422454330650     
  -1.14014180990938       -1.13605907651225       -1.13197634311513     
  -1.12789360971801       -1.12381087632088       -1.11972814292376     
  -1.11564540952663       -1.11156267612951       -1.15605398655988     
  -1.15197125316275       -1.14788851976563       -1.14380578636851     
  -1.13972305297138       -1.13564031957426       -1.13155758617713     
  -1.12747485278001       -1.12339211938289       -1.11930938598576     
  -1.11522665258864     
 -0.140061590296901      -0.121880652388502      -0.103699714480102     
 -8.551877657170288E-002 -6.733783866330321E-002 -4.915690075490387E-002
 -3.097596284650444E-002 -1.279502493810481E-002  5.385912970294475E-003
  2.356685087869401E-002  4.174778878709355E-002 -0.139238803313560     
 -0.121057865405161      -0.102876927496761      -8.469598958836209E-002
 -6.651505167996258E-002 -4.833411377156316E-002 -3.015317586316370E-002
 -1.197223795476413E-002  6.208699953635298E-003  2.438963786203474E-002
  4.257057577043430E-002 -0.136783418205775      -0.118602480297375     
 -0.100421542388976      -8.224060448057617E-002 -6.405966657217685E-002
 -4.587872866377739E-002 -2.769779075537779E-002 -9.516852846978410E-003
  8.664085061421078E-003  2.684502296982064E-002  4.502596087822006E-002
 -0.132734157863470      -0.114553219955070      -9.637228204667050E-002
 -7.819134413827122E-002 -6.001040622987176E-002 -4.182946832147216E-002
 -2.364853041307265E-002 -5.467592504673198E-003  1.271334540372626E-002
  3.089428331212581E-002  4.907522122052508E-002 -0.127154881541154     
 -0.108973943632755      -9.079300572435500E-002 -7.261206781595572E-002
 -5.443112990755609E-002 -3.625019199915671E-002 -1.806925409075720E-002
  1.116838176422573E-004  1.829262172604170E-002  3.647355963444110E-002
  5.465449754284057E-002 -0.120133577759329      -0.101952639850930     
 -8.377170194253039E-002 -6.559076403413097E-002 -4.740982612573148E-002
 -2.922888821733173E-002 -1.104795030893263E-002  7.132987599466901E-003
  2.531392550786663E-002  4.349486341626612E-002  6.167580132466548E-002
 -0.111780976672958      -9.360003876455880E-002 -7.541910085615945E-002
 -5.723816294775980E-002 -3.905722503936035E-002 -2.087628713096104E-002
 -2.695349222561575E-003  1.548558868583791E-002  3.366652659423721E-002
  5.184746450263685E-002  7.002840241103617E-002 -0.102228803790775     
 -8.404786588237549E-002 -6.586692797397616E-002 -4.768599006557666E-002
 -2.950505215717736E-002 -1.132411424877786E-002  6.856823659621671E-003
  2.503776156802116E-002  4.321869947642072E-002  6.139963738481990E-002
  7.958057529321975E-002 -9.162770258532307E-002 -7.344676467692364E-002
 -5.526582676852427E-002 -3.708488886012504E-002 -1.890395095172542E-002
 -7.230130433258386E-004  1.745792486507367E-002  3.563886277347300E-002
  5.381980068187271E-002  7.200073859027198E-002  9.018167649867123E-002
 -8.014485875540359E-002 -6.196392084700431E-002 -4.378298293860448E-002
 -2.560204503020485E-002 -7.421107121805338E-003  1.075983078659370E-002
  2.894076869499324E-002  4.712170660339275E-002  6.530264451179241E-002
  8.348358242019205E-002  0.101664520328591      -6.796136360773207E-002
 -4.978042569933272E-002 -3.159948779093326E-002 -1.341854988253400E-002
  4.762388025865465E-003  2.294332593426526E-002  4.112426384266462E-002
  5.930520175106423E-002  7.748613965946327E-002  9.566707756786307E-002
  0.113848015476262      -5.526935813885515E-002 -3.708842023045607E-002
 -1.890748232205626E-002 -7.265444136568770E-004  1.745439349474255E-002
  3.563533140314221E-002  5.381626931154113E-002  7.199720721994118E-002
  9.017814512834035E-002  0.108359083036740       0.126540020945139     
 -4.226900285685381E-002 -2.408806494845414E-002 -5.907127040054459E-003
  1.227381086834457E-002  3.045474877674462E-002  4.863568668514330E-002
  6.681662459354365E-002  8.499756250194239E-002  0.103178500410342     
  0.121359438318741       0.139540376227141      -2.916532113056031E-002
 -1.098438322216050E-002  7.196554686238588E-003  2.537749259463841E-002
  4.355843050303784E-002  6.173936841143765E-002  7.992030631983713E-002
  9.810124422823598E-002  0.116282182136636       0.134463120045035     
  0.152644057953435      -1.616496584855835E-002  2.015972059841003E-003
  2.019690996824063E-002  3.837784787663931E-002  5.655878578503993E-002
  7.473972369343879E-002  9.292066160183809E-002  0.111101599510238     
  0.129282537418637       0.147463475327037       0.165644413235437     
 -3.472960379681478E-003  1.470797752871802E-002  3.288891543711723E-002
  5.106985334551632E-002  6.925079125391631E-002  8.743172916231608E-002
  0.105612667070715       0.123793604979115       0.141974542887514     
  0.160155480795914       0.178336418704313       8.710534767989999E-003
  2.689147267638949E-002  4.507241058478860E-002  6.325334849318801E-002
  8.143428640158761E-002  9.961522430998722E-002  0.117796162218387     
  0.135977100126786       0.154158038035186       0.172338975943586     
  0.190519913851984       2.019337859790981E-002  3.837431650630926E-002
  5.655525441470863E-002  7.473619232310745E-002  9.291713023150758E-002
  0.111098068139907       0.129279006048306       0.147459943956706     
  0.165640881865105       0.183821819773505       0.202002757681904     
  3.079447980336205E-002  4.897541771176078E-002  6.715635562016012E-002
  8.533729352855958E-002  0.103518231436959       0.121699169345359     
  0.139880107253758       0.158061045162157       0.176241983070557     
  0.194422920978957       0.212603858887356       4.034665268554445E-002
  5.852759059394418E-002  7.670852850234319E-002  9.488946641074350E-002
  0.113070404319142       0.131251342227542       0.149432280135941     
  0.167613218044341       0.185794155952741       0.203975093861140     
  0.222156031769539       4.869925377191551E-002  6.688019168031555E-002
  8.506112958871417E-002  0.103242067497113       0.121423005405513     
  0.139603943313913       0.157784881222313       0.175965819130712     
  0.194146757039111       0.212327694947511       0.230508632855911     
  5.572055755374039E-002  7.390149546213928E-002  9.208243337053944E-002
  0.110263371278939       0.128444309187338       0.146625247095738     
  0.164806185004137       0.182987122912536       0.201168060820936     
  0.219348998729335       0.237529936637736       6.129983387605612E-002
  7.948077178445517E-002  9.766170969285461E-002  0.115842647601254     
  0.134023585509654       0.152204523418053       0.170385461326453     
  0.188566399234852       0.206747337143252       0.224928275051651     
  0.243109212960051       6.534909421836133E-002  8.353003212675975E-002
  0.101710970035160       0.119891907943559       0.138072845851959     
  0.156253783760359       0.174434721668757       0.192615659577158     
  0.210796597485557       0.228977535393956       0.247158473302356     
  6.780447932614685E-002  8.598541723454563E-002  0.104166355142944     
  0.122347293051345       0.140528230959744       0.158709168868144     
  0.176890106776544       0.195071044684944       0.213251982593343     
  0.231432920501741       0.249613858410142       6.862726630948718E-002
  8.680820421788683E-002  0.104989142126286       0.123170080034686     
  0.141351017943085       0.159531955851484       0.177712893759885     
  0.195893831668284       0.214074769576683       0.232255707485083     
  0.250436645393483     
  3.960717710078315E-002  3.564645939070483E-002  3.168574168062652E-002
  2.772502397054821E-002  2.376430626046989E-002  1.980358855039158E-002
  1.584287084031326E-002  1.188215313023495E-002  7.921435420156629E-003
  3.960717710078312E-003  0.000000000000000E+000  3.960717710078315E-002
  3.564645939070483E-002  3.168574168062652E-002  2.772502397054821E-002
  2.376430626046989E-002  1.980358855039158E-002  1.584287084031326E-002
  1.188215313023495E-002  7.921435420156629E-003  3.960717710078312E-003
  0.000000000000000E+000  3.960717710078315E-002  3.564645939070483E-002
  3.168574168062652E-002  2.772502397054821E-002  2.376430626046989E-002
  1.980358855039158E-002  1.584287084031326E-002  1.188215313023495E-002
  7.921435420156629E-003  3.960717710078312E-003  0.000000000000000E+000
  3.960717710078315E-002  3.564645939070483E-002  3.168574168062652E-002
  2.772502397054821E-002  2.376430626046989E-002  1.980358855039158E-002
  1.584287084031326E-002  1.188215313023495E-002  7.921435420156629E-003
  3.960717710078312E-003  0.000000000000000E+000  3.960717710078315E-002
  3.564645939070483E-002  3.168574168062652E-002  2.772502397054821E-002
  2.376430626046989E-002  1.980358855039158E-002  1.584287084031326E-002
  1.188215313023495E-002  7.921435420156629E-003  3.960717710078312E-003
  0.000000000000000E+000  3.960717710078315E-002  3.564645939070483E-002
  3.168574168062652E-002  2.772502397054821E-002  2.376430626046989E-002
  1.980358855039158E-002  1.584287084031326E-002  1.188215313023495E-002
  7.921435420156629E-003  3.960717710078312E-003  0.000000000000000E+000
  3.960717710078315E-002  3.564645939070483E-002  3.168574168062652E-002
  2.772502397054821E-002  2.376430626046989E-002  1.980358855039158E-002
  1.584287084031326E-002  1.188215313023495E-002  7.921435420156629E-003
  3.960717710078312E-003  0.000000000000000E+000  3.960717710078315E-002
  3.564645939070483E-002  3.168574168062652E-002  2.772502397054821E-002
  2.376430626046989E-002  1.980358855039158E-002  1.584287084031326E-002
  1.188215313023495E-002  7.921435420156629E-003  3.960717710078312E-003
  0.000000000000000E+000  3.960717710078315E-002  3.564645939070483E-002
  3.168574168062652E-002  2.772502397054821E-002  2.376430626046989E-002
  1.980358855039158E-002  1.584287084031326E-002  1.188215313023495E-002
  7.921435420156629E-003  3.960717710078312E-003  0.000000000000000E+000
  3.960717710078315E-002  3.564645939070483E-002  3.168574168062652E-002
  2.772502397054821E-002  2.376430626046989E-002  1.980358855039158E-002
  1.584287084031326E-002  1.188215313023495E-002  7.921435420156629E-003
  3.960717710078312E-003  0.000000000000000E+000  3.960717710078315E-002
  3.564645939070483E-002  3.168574168062652E-002  2.772502397054821E-002
  2.376430626046989E-002  1.980358855039158E-002  1.584287084031326E-002
  1.188215313023495E-002  7.921435420156629E-003  3.960717710078312E-003
  0.000000000000000E+000  3.960717710078315E-002  3.564645939070483E-002
  3.168574168062652E-002  2.772502397054821E-002  2.376430626046989E-002
  1.980358855039158E-002  1.584287084031326E-002  1.188215313023495E-002
  7.921435420156629E-003  3.960717710078312E-003  0.000000000000000E+000
  3.960717710078315E-002  3.564645939070483E-002  3.168574168062652E-002
  2.772502397054821E-002  2.376430626046989E-002  1.980358855039158E-002
  1.584287084031326E-002  1.188215313023495E-002  7.921435420156629E-003
  3.960717710078312E-003  0.000000000000000E+000  3.960717710078315E-002
  3.564645939070483E-002  3.168574168062652E-002  2.772502397054821E-002
  2.376430626046989E-002  1.980358855039158E-002  1.584287084031326E-002
  1.188215313023495E-002  7.921435420156629E-003  3.960717710078312E-003
  0.000000000000000E+000  3.960717710078315E-002  3.564645939070483E-002
  3.168574168062652E-002  2.772502397054821E-002  2.376430626046989E-002
  1.980358855039158E-002  1.584287084031326E-002  1.188215313023495E-002
  7.921435420156629E-003  3.960717710078312E-003  0.000000000000000E+000
  3.960717710078315E-002  3.564645939070483E-002  3.168574168062652E-002
  2.772502397054821E-002  2.376430626046989E-002  1.980358855039158E-002
  1.584287084031326E-002  1.188215313023495E-002  7.921435420156629E-003
  3.960717710078312E-003  0.000000000000000E+000  3.960717710078315E-002
  3.564645939070483E-002  3.168574168062652E-002  2.772502397054821E-002
  2.376430626046989E-002  1.980358855039158E-002  1.584287084031326E-002
  1.188215313023495E-002  7.921435420156629E-003  3.960717710078312E-003
  0.000000000000000E+000  3.960717710078315E-002  3.564645939070483E-002
  3.168574168062652E-002  2.772502397054821E-002  2.376430626046989E-002
  1.980358855039158E-002  1.584287084031326E-002  1.188215313023495E-002
  7.921435420156629E-003  3.960717710078312E-003  0.000000000000000E+000
  3.960717710078315E-002  3.564645939070483E-002  3.168574168062652E-002
  2.772502397054821E-002  2.376430626046989E-002  1.980358855039158E-002
  1.584287084031326E-002  1.188215313023495E-002  7.921435420156629E-003
  3.960717710078312E-003  0.000000000000000E+000  3.960717710078315E-002
  3.564645939070483E-002  3.168574168062652E-002  2.772502397054821E-002
  2.376430626046989E-002  1.980358855039158E-002  1.584287084031326E-002
  1.188215313023495E-002  7.921435420156629E-003  3.960717710078312E-003
  0.000000000000000E+000  3.960717710078315E-002  3.564645939070483E-002
  3.168574168062652E-002  2.772502397054821E-002  2.376430626046989E-002
  1.980358855039158E-002  1.584287084031326E-002  1.188215313023495E-002
  7.921435420156629E-003  3.960717710078312E-003  0.000000000000000E+000
  3.960717710078315E-002  3.564645939070483E-002  3.168574168062652E-002
  2.772502397054821E-002  2.376430626046989E-002  1.980358855039158E-002
  1.584287084031326E-002  1.188215313023495E-002  7.921435420156629E-003
  3.960717710078312E-003  0.000000000000000E+000  3.960717710078315E-002
  3.564645939070483E-002  3.168574168062652E-002  2.772502397054821E-002
  2.376430626046989E-002  1.980358855039158E-002  1.584287084031326E-002
  1.188215313023495E-002  7.921435420156629E-003  3.960717710078312E-003
  0.000000000000000E+000  3.960717710078315E-002  3.564645939070483E-002
  3.168574168062652E-002  2.772502397054821E-002  2.376430626046989E-002
  1.980358855039158E-002  1.584287084031326E-002  1.188215313023495E-002
  7.921435420156629E-003  3.960717710078312E-003  0.000000000000000E+000
  3.960717710078315E-002  3.564645939070483E-002  3.168574168062652E-002
  2.772502397054821E-002  2.376430626046989E-002  1.980358855039158E-002
  1.584287084031326E-002  1.188215313023495E-002  7.921435420156629E-003
  3.960717710078312E-003  0.000000000000000E+000  3.960717710078315E-002
  3.564645939070483E-002  3.168574168062652E-002  2.772502397054821E-002
  2.376430626046989E-002  1.980358855039158E-002  1.584287084031326E-002
  1.188215313023495E-002  7.921435420156629E-003  3.960717710078312E-003
  0.000000000000000E+000
  0.187468274014825       0.266593278430248       0.327484404122360     
  0.380010454221002       0.426500662442656       0.467164485328350     
  0.501906121276022       0.530993573243329       0.554683939542710     
  0.572293875312800       0.308967663831990       0.446427005097355     
  0.550741019109397       0.639989219011790       0.718649366297450     
  0.787400372306139       0.846282554673648       0.895879954673023     
  0.937023887956322       0.970797576162381       0.404867090106500     
  0.600180161748364       0.747233619323852       0.871337394641770     
  0.979687539266548        1.07417547772323        1.15547889421895     
   1.22458616395269        1.28274796592055        1.33027270283351     
  0.468527577148069       0.706686610791176       0.887663757041990     
   1.03927701219193        1.17041271885835        1.28418977056037     
   1.38186972044626        1.46435472577431        1.53206215723572     
   1.58307267461413       0.506788714678393       0.770750976021295     
  0.973106126104010        1.14234421644892        1.28791191604483     
   1.41358214919484        1.52097585762440        1.61080786092531     
   1.68309532123755        1.73493357840212       0.532209570983760     
  0.810718373114223        1.02440507093504        1.20268117792328     
   1.35537524266940        1.48660245933379        1.59817632050010     
   1.69059619771209        1.76321298459265        1.81276530556238     
  0.562011511271684       0.853197965206868        1.07480713713840     
   1.25833297494304        1.41445118772357        1.54771334863545     
   1.66014088736154        1.75233937571417        1.82359564864366     
   1.87047401913179       0.612804293872479       0.923970911600399     
   1.15710253017899        1.34777399820302        1.50836723192159     
   1.64438479671323        1.75841633520079        1.85136222737945     
   1.92254482121035        1.96833503485285       0.695757612918624     
   1.04092541324727        1.29475958749366        1.49935159543835     
   1.66977599439797        1.81297817473844        1.93238596626767     
   2.02937999584124        2.10348859765919        2.15089720312445     
  0.813688861013344        1.20957254775051        1.49596981342523     
   1.72372495530590        1.91142027389108        2.06786007945323     
   2.19759351899236        2.30267952420769        2.38295496319356     
   2.43441189668895       0.962878232415569        1.42476846104571     
   1.75474698524534        2.01432796691882        2.22631080058448     
   2.40169203269590        2.54630653076880        2.66298595675431     
   2.75194688909861        2.80902474850161        1.13714217424031     
   1.67718597655629        2.05943681727223        2.35761843487725     
   2.59929328730619        2.79791140495880        2.96074495357434     
   3.09149160768759        3.19080734541859        3.25441777664618     
   1.33078976820791        1.95806646079622        2.39885604553874     
   2.74033774839150        3.01530900689485        3.23991271248569     
   3.42300068962662        3.56924009506721        3.67981804256792     
   3.75042310777261        1.53961689437573        2.26065288058183     
   2.76407674827070        3.15161574760958        3.46174660200248     
   3.71355589577355        3.91764805432290        4.07979029133356     
   4.20180443913437        4.27943911481538        1.76050543682018     
   2.57954618224088        3.14758154366846        3.58194998057224     
   3.92727953827869        4.20588947796158        4.43034098251393     
   4.60765595462439        4.74042181479936        4.82459221924155     
   1.98883924857879        2.90694813885446        3.53874609280888     
   4.01817612510196        4.39648971778872        4.69952583815572     
   4.94200872256768        5.13238373309330        5.27416163206281     
   5.36369787654258        2.21201617788052        3.22364667605588     
   3.91337389657695        4.43207560173576        4.83785730049443     
   5.16023314522441        5.41620473430765        5.61574899234396     
   5.76343979837232        5.85629271179764        2.40340507779557     
   3.49064392523330        4.22392724725030        4.76962364004178     
   5.19225749792528        5.52483575940466        5.78653405105586     
   5.98881185485126        6.13736603435839        6.23021916332470     
   2.52874900584462        3.65769700024150        4.40910292411942     
   4.96115984735327        5.38354207206577        5.71212795138184     
   5.96787645488281        6.16345863078305        6.30558772787841     
   6.39365762845536        2.56146143666380        3.68445619513463     
   4.41863900107264        4.94911409736095        5.34892509882366     
   5.65578635762196        5.89166149222359        6.06981536995622     
   6.19755264120940        6.27569658815588        2.48755804511217     
   3.54769795661258        4.22299091523850        4.70047610939097     
   5.05426636742166        5.32219915771670        5.52588471040357     
   5.67813415670956        5.78602299978348        5.85114860649958     
   2.29845145357752        3.23196859432502        3.80507519374974     
   4.20070289890869        4.48959122156423        4.70648168222062     
   4.87059935573728        4.99322550375285        5.08078602255218     
   5.13497318002206        1.98184486536202        2.72161308605511     
   3.15770049396572        3.45408872745524        3.66934499974624     
   3.83081896447496        3.95340931873056        4.04625370875834     
   4.11607039098128        4.16889996092061        1.51548074087583     
   2.01408339586566        2.30370463275696        2.50087313587253     
   2.64455549563378        2.75270994303717        2.83514621363336     
   2.89794142333540        2.94571480881887        2.98504480224566     
  0.921550759663185        1.20060238628613        1.36415490739726     
   1.47608950121276        1.55792195673844        1.61963608556656     
   1.66667668538326        1.70228077690193        1.72835960627071     
   1.74471260334266     
  0.000000000000000E+000  0.000000000000000E+000  0.000000000000000E+000
  0.000000000000000E+000  0.000000000000000E+000  0.000000000000000E+000
  0.000000000000000E+000  0.000000000000000E+000  0.000000000000000E+000
  0.000000000000000E+000  0.000000000000000E+000  0.000000000000000E+000
  0.000000000000000E+000  0.000000000000000E+000  0.000000000000000E+000
  0.000000000000000E+000  0.000000000000000E+000  0.000000000000000E+000
  0.000000000000000E+000  0.000000000000000E+000  0.000000000000000E+000
  0.000000000000000E+000  0.000000000000000E+000  0.000000000000000E+000
  0.000000000000000E+000  0.000000000000000E+000  0.000000000000000E+000
  0.000000000000000E+000  0.000000000000000E+000  0.000000000000000E+000
  0.000000000000000E+000  0.000000000000000E+000  0.000000000000000E+000
  0.000000000000000E+000  0.000000000000000E+000  0.000000000000000E+000
  0.000000000000000E+000  0.000000000000000E+000  0.000000000000000E+000
  0.000000000000000E+000  0.000000000000000E+000  0.000000000000000E+000
  0.000000000000000E+000  0.000000000000000E+000  0.000000000000000E+000
  0.000000000000000E+000  0.000000000000000E+000  0.000000000000000E+000
  0.000000000000000E+000  0.000000000000000E+000  0.000000000000000E+000
  0.000000000000000E+000  0.000000000000000E+000  0.000000000000000E+000
  0.000000000000000E+000  0.000000000000000E+000  0.000000000000000E+000
  0.000000000000000E+000  0.000000000000000E+000  0.000000000000000E+000
  0.000000000000000E+000  0.000000000000000E+000  0.000000000000000E+000
  0.000000000000000E+000  0.000000000000000E+000  0.000000000000000E+000
  0.000000000000000E+000  0.000000000000000E+000  0.000000000000000E+000
  0.000000000000000E+000  0.000000000000000E+000  0.000000000000000E+000
  0.000000000000000E+000  0.000000000000000E+000  0.000000000000000E+000
  0.000000000000000E+000  0.000000000000000E+000  0.000000000000000E+000
  0.000000000000000E+000  0.000000000000000E+000  0.000000000000000E+000
  0.000000000000000E+000  0.000000000000000E+000  0.000000000000000E+000
  0.000000000000000E+000  0.000000000000000E+000  0.000000000000000E+000
  0.000000000000000E+000  0.000000000000000E+000  0.000000000000000E+000
  0.000000000000000E+000  0.000000000000000E+000  0.000000000000000E+000
  0.000000000000000E+000  0.000000000000000E+000  0.000000000000000E+000
  0.000000000000000E+000  0.000000000000000E+000  0.000000000000000E+000
  0.000000000000000E+000  0.000000000000000E+000  0.000000000000000E+000
  0.000000000000000E+000  0.000000000000000E+000  0.000000000000000E+000
  0.000000000000000E+000  0.000000000000000E+000  0.000000000000000E+000
  0.000000000000000E+000  0.000000000000000E+000  0.000000000000000E+000
  0.000000000000000E+000  0.000000000000000E+000  0.000000000000000E+000
  0.000000000000000E+000  0.000000000000000E+000  0.000000000000000E+000