 Title = "Wing and Wake"
 VARIABLES = "X" "Y" "Z" "GAM" "skew"
 Zone I=   11 J=   26 K=1  T="Blade"
 DATAPACKING=BLOCK
 VARLOCATION=([4]=CELLCENTERED,[5]=CELLCENTERED)
 -0.140077414037866      -0.121896191236119      -0.103714968434371     
 -8.553374563262396E-002 -6.735252283087616E-002 -4.917130002912888E-002
 -3.099007722738133E-002 -1.280885442563384E-002  5.372368376113524E-003
  2.355359117786115E-002  4.173481397960869E-002 -0.139254882768733     
 -0.121073659966985      -0.102892437165238      -8.471121436349043E-002
 -6.652999156174276E-002 -4.834876875999533E-002 -3.016754595824780E-002
 -1.198632315650035E-002  6.194899645247229E-003  2.437612244699466E-002
  4.255734524874238E-002 -0.136800260770803      -0.118619037969055     
 -0.100437815167308      -8.225659236555995E-002 -6.407536956381252E-002
 -4.589414676206510E-002 -2.771292396031745E-002 -9.531701158570228E-003
  8.649521643177262E-003  2.683074444492494E-002  4.501196724667225E-002
 -0.132752258899303      -0.114571036097556      -9.638981329580810E-002
 -7.820859049406076E-002 -6.002736769231340E-002 -4.184614489056570E-002
 -2.366492208881834E-002 -5.483699287070879E-003  1.269752351467672E-002
  3.087874631642428E-002  4.905996911817143E-002 -0.127174716561907     
 -0.108993493760160      -9.081227095841236E-002 -7.263104815666495E-002
 -5.444982535491750E-002 -3.626860255316987E-002 -1.808737975142238E-002
  9.384305032495258E-005  1.827506585207240E-002  3.645628865381982E-002
  5.463751145556738E-002 -0.120155594933138      -0.101974372131391     
 -8.379314932964331E-002 -6.561192652789567E-002 -4.743070372614844E-002
 -2.924948092440049E-002 -1.106825812265344E-002  7.112964679094187E-003
  2.529418748084193E-002  4.347541028258931E-002  6.165663308433684E-002
 -0.111805589754101      -9.362436695235389E-002 -7.544314415060646E-002
 -5.726192134885889E-002 -3.908069854711112E-002 -2.089947574536391E-002
 -2.718252943616462E-003  1.546296985813085E-002  3.364419265987807E-002
  5.182541546162594E-002  7.000663826337324E-002 -0.102256385594521     
 -8.407516279277373E-002 -6.589393999102616E-002 -4.771271718927898E-002
 -2.953149438753153E-002 -1.135027158578392E-002  6.830951215963595E-003
  2.501217401771077E-002  4.319339681945849E-002  6.137461962120577E-002
  7.955584242295369E-002 -9.165857910841319E-002 -7.347735630666527E-002
 -5.529613350491804E-002 -3.711491070317089E-002 -1.893368790142322E-002
 -7.524650996757039E-004  1.742875770207186E-002  3.560998050381928E-002
  5.379120330556713E-002  7.197242610731437E-002  9.015364890906152E-002
 -8.017930403488488E-002 -6.199808123313766E-002 -4.381685843139007E-002
 -2.563563562964226E-002 -7.454412827894936E-003  1.072680997385222E-002
  2.890803277559960E-002  4.708925557734740E-002  6.527047837909487E-002
  8.345170118084237E-002  0.101632923982590      -6.799959539923335E-002
 -4.981837259748579E-002 -3.163714979573853E-002 -1.345592699399113E-002
  4.725295807756443E-003  2.290651860950423E-002  4.108774141125141E-002
  5.926896421299924E-002  7.745018701474629E-002  9.563140981649390E-002
  0.113812632618241      -5.531153448244728E-002 -3.713031168070015E-002
 -1.894908887895251E-002 -7.678660772048602E-004  1.741335672454251E-002
  3.559457952628982E-002  5.377580232803713E-002  7.195702512978489E-002
  9.013824793153238E-002  0.108319470733280       0.126500693535027     
 -4.231521958466563E-002 -2.413399678291786E-002 -5.952773981170196E-003
  1.222844882057712E-002  3.040967162232482E-002  4.859089442407160E-002
  6.677211722582030E-002  8.495334002756734E-002  0.103134562829314     
  0.121315785631062       0.139497008432810      -2.921561035544758E-002
 -1.103438755369933E-002  7.146835248046732E-003  2.532805804979529E-002
  4.350928085154274E-002  6.169050365329049E-002  7.987172645503811E-002
  9.805294925678448E-002  0.116234172058533       0.134415394860280     
  0.152596617662028      -1.621929545766499E-002  1.961927344082065E-003
  2.014315014582985E-002  3.832437294757669E-002  5.650559574932502E-002
  7.468681855107186E-002  9.286804135281951E-002  0.111049264154568     
  0.129230486956315       0.147411709758062       0.165592932559810     
 -3.531234540879370E-003  1.464998826086830E-002  3.283121106261572E-002
  5.101243386436239E-002  6.919365666611034E-002  8.737487946785830E-002
  0.105556102269605       0.123737325071353       0.141918547873100     
  0.160099770674848       0.178280993476596       8.648474094772313E-003
  2.682969689651954E-002  4.501091969826732E-002  6.319214250001461E-002
  8.137336530176238E-002  9.955458810350948E-002  0.117735810905257     
  0.135917033707005       0.154098256508752       0.172279479310500     
  0.190460702112247       2.012774916830061E-002  3.830897197004792E-002
  5.649019477179562E-002  7.467141757354259E-002  9.285264037529047E-002
  0.111033863177038       0.129215085978785       0.147396308780533     
  0.165577531582280       0.183758754384028       0.201939977185775     
  3.072555565440912E-002  4.890677845615579E-002  6.708800125790419E-002
  8.526922405965050E-002  0.103450446861398       0.121631669663146     
  0.139812892464893       0.157994115266641       0.176175338068389     
  0.194356560870136       0.212537783671883       4.027475981398844E-002
  5.845598261573617E-002  7.663720541748281E-002  9.481842821923174E-002
  0.112999651020978       0.131180873822727       0.149362096624472     
  0.167543319426221       0.185724542227969       0.203905765029717     
  0.222086987831463       4.862476499302604E-002  6.680598779477318E-002
  8.498721059652005E-002  0.103168433398267       0.121349656200015     
  0.139530879001762       0.157712101803511       0.175893324605258     
  0.194074547407005       0.212255770208753       0.230436993010500     
  5.564388662179413E-002  7.382510942354173E-002  9.200633222529013E-002
  0.110187555027037       0.128368777828784       0.146550000630533     
  0.164731223432280       0.182912446234027       0.201093669035774     
  0.219274891837522       0.237456114639271       6.122142895919106E-002
  7.940265176093793E-002  9.758387456268530E-002  0.115765097364432     
  0.133946320166181       0.152127542967928       0.170308765769676     
  0.188489988571423       0.206671211373171       0.224852434174917     
  0.243033656976666       6.526943083068924E-002  8.345065363243634E-002
  0.101631876434185       0.119813099235932       0.137994322037680     
  0.156175544839428       0.174356767641174       0.192537990442923     
  0.210719213244669       0.228900436046419       0.247081658848165     
  6.772405282862008E-002  8.590527563036662E-002  0.104086498432113     
  0.122267721233862       0.140448944035610       0.158630166837358     
  0.176811389639105       0.194992612440853       0.213173835242600     
  0.231355058044347       0.249536280846095       6.854658409775323E-002
  8.672780689950126E-002  0.104909029701247       0.123090252502997     
  0.141271475304743       0.159452698106490       0.177633920908239     
  0.195815143709986       0.213996366511733       0.232177589313481     
  0.250358812115229     
  0.226725841381570       0.222644376858352       0.218562912335134     
  0.214481447811916       0.210399983288698       0.206318518765480     
  0.202237054242262       0.198155589719045       0.194074125195827     
  0.189992660672609       0.185911196149391       0.230389875254816     
  0.226308410731598       0.222226946208380       0.218145481685163     
  0.214064017161944       0.209982552638726       0.205901088115508     
  0.201819623592290       0.197738159069073       0.193656694545855     
  0.189575230022637       0.241324192871585       0.237242728348367     
  0.233161263825149       0.229079799301931       0.224998334778713     
  0.220916870255495       0.216835405732277       0.212753941209059     
  0.208672476685841       0.204591012162623       0.200509547639405     
  0.259356353511216       0.255274888987998       0.251193424464780     
  0.247111959941562       0.243030495418344       0.238949030895126     
  0.234867566371908       0.230786101848690       0.226704637325472     
  0.222623172802254       0.218541708279036       0.284201979228530     
  0.280120514705313       0.276039050182094       0.271957585658877     
  0.267876121135658       0.263794656612441       0.259713192089223     
  0.255631727566005       0.251550263042787       0.247468798519569     
  0.243387333996351       0.315469239663910       0.311387775140692     
  0.307306310617474       0.303224846094256       0.299143381571038     
  0.295061917047821       0.290980452524602       0.286898988001384     
  0.282817523478167       0.278736058954948       0.274654594431731     
  0.352665031442132       0.348583566918914       0.344502102395696     
  0.340420637872478       0.336339173349260       0.332257708826043     
  0.328176244302824       0.324094779779606       0.320013315256388     
  0.315931850733170       0.311850386209952       0.395202754707166     
  0.391121290183947       0.387039825660730       0.382958361137512     
  0.378876896614294       0.374795432091076       0.370713967567858     
  0.366632503044640       0.362551038521422       0.358469573998204     
  0.354388109474987       0.442411564152317       0.438330099629099     
  0.434248635105881       0.430167170582663       0.426085706059446     
  0.422004241536227       0.417922777013009       0.413841312489792     
  0.409759847966574       0.405678383443355       0.401596918920138     
  0.493546948651460       0.489465484128242       0.485384019605024     
  0.481302555081806       0.477221090558588       0.473139626035370     
  0.469058161512152       0.464976696988935       0.460895232465716     
  0.456813767942498       0.452732303419280       0.547802472644245     
  0.543721008121027       0.539639543597809       0.535558079074591     
  0.531476614551373       0.527395150028156       0.523313685504937     
  0.519232220981719       0.515150756458501       0.511069291935283     
  0.506987827412065       0.604322494106626       0.600241029583409     
  0.596159565060191       0.592078100536972       0.587996636013755     
  0.583915171490537       0.579833706967319       0.575752242444101     
  0.571670777920883       0.567589313397665       0.563507848874447     
  0.662215658536720       0.658134194013502       0.654052729490282     
  0.649971264967065       0.645889800443847       0.641808335920630     
  0.637726871397412       0.633645406874194       0.629563942350976     
  0.625482477827758       0.621401013304540       0.720568956147761     
  0.716487491624542       0.712406027101324       0.708324562578106     
  0.704243098054889       0.700161633531670       0.696080169008453     
  0.691998704485235       0.687917239962018       0.683835775438799     
  0.679754310915581       0.778462120577853       0.774380656054635     
  0.770299191531418       0.766217727008199       0.762136262484981     
  0.758054797961763       0.753973333438545       0.749891868915327     
  0.745810404392109       0.741728939868891       0.737647475345675     
  0.834982142040236       0.830900677517016       0.826819212993799     
  0.822737748470581       0.818656283947363       0.814574819424146     
  0.810493354900927       0.806411890377709       0.802330425854491     
  0.798248961331272       0.794167496808056       0.889237666033020     
  0.885156201509802       0.881074736986583       0.876993272463367     
  0.872911807940148       0.868830343416930       0.864748878893712     
  0.860667414370495       0.856585949847277       0.852504485324059     
  0.848423020800841       0.940373050532163       0.936291586008944     
  0.932210121485727       0.928128656962508       0.924047192439290     
  0.919965727916074       0.915884263392855       0.911802798869637     
  0.907721334346419       0.903639869823201       0.899558405299983     
  0.987581859977314       0.983500395454095       0.979418930930878     
  0.975337466407660       0.971256001884442       0.967174537361224     
  0.963093072838006       0.959011608314788       0.954930143791570     
  0.950848679268352       0.946767214745134        1.03011958324235     
   1.02603811871913        1.02195665419591        1.01787518967269     
   1.01379372514948        1.00971226062626        1.00563079610304     
   1.00154933157982       0.997467867056604       0.993386402533386     
  0.989304938010167        1.06731537502057        1.06323391049735     
   1.05915244597413        1.05507098145092        1.05098951692770     
   1.04690805240448        1.04282658788126        1.03874512335804     
   1.03466365883483        1.03058219431161        1.02650072978839     
   1.09858263545595        1.09450117093273        1.09041970640951     
   1.08633824188630        1.08225677736308        1.07817531283986     
   1.07409384831664        1.07001238379342        1.06593091927021     
   1.06184945474699        1.05776799022377        1.12342826117326     
   1.11934679665005        1.11526533212683        1.11118386760361     
   1.10710240308039        1.10302093855717        1.09893947403396     
   1.09485800951074        1.09077654498752        1.08669508046430     
   1.08261361594108        1.14146042181289        1.13737895728968     
   1.13329749276646        1.12921602824324        1.12513456372002     
   1.12105309919680        1.11697163467359        1.11289017015037     
   1.10880870562715        1.10472724110393        1.10064577658071     
   1.15239473942966        1.14831327490645        1.14423181038323     
   1.14015034586001        1.13606888133679        1.13198741681357     
   1.12790595229035        1.12382448776714        1.11974302324392     
   1.11566155872070        1.11158009419748        1.15605877330291     
   1.15197730877969        1.14789584425647        1.14381437973326     
   1.13973291521004        1.13565145068682        1.13156998616360     
   1.12748852164038        1.12340705711717        1.11932559259395     
   1.11524412807073     
  3.960717710078315E-002  3.564645939070483E-002  3.168574168062652E-002
  2.772502397054821E-002  2.376430626046989E-002  1.980358855039158E-002
  1.584287084031326E-002  1.188215313023495E-002  7.921435420156629E-003
  3.960717710078312E-003  0.000000000000000E+000  3.960717710078315E-002
  3.564645939070483E-002  3.168574168062652E-002  2.772502397054821E-002
  2.376430626046989E-002  1.980358855039158E-002  1.584287084031326E-002
  1.188215313023495E-002  7.921435420156629E-003  3.960717710078312E-003
  0.000000000000000E+000  3.960717710078315E-002  3.564645939070483E-002
  3.168574168062652E-002  2.772502397054821E-002  2.376430626046989E-002
  1.980358855039158E-002  1.584287084031326E-002  1.188215313023495E-002
  7.921435420156629E-003  3.960717710078312E-003  0.000000000000000E+000
  3.960717710078315E-002  3.564645939070483E-002  3.168574168062652E-002
  2.772502397054821E-002  2.376430626046989E-002  1.980358855039158E-002
  1.584287084031326E-002  1.188215313023495E-002  7.921435420156629E-003
  3.960717710078312E-003  0.000000000000000E+000  3.960717710078315E-002
  3.564645939070483E-002  3.168574168062652E-002  2.772502397054821E-002
  2.376430626046989E-002  1.980358855039158E-002  1.584287084031326E-002
  1.188215313023495E-002  7.921435420156629E-003  3.960717710078312E-003
  0.000000000000000E+000  3.960717710078315E-002  3.564645939070483E-002
  3.168574168062652E-002  2.772502397054821E-002  2.376430626046989E-002
  1.980358855039158E-002  1.584287084031326E-002  1.188215313023495E-002
  7.921435420156629E-003  3.960717710078312E-003  0.000000000000000E+000
  3.960717710078315E-002  3.564645939070483E-002  3.168574168062652E-002
  2.772502397054821E-002  2.376430626046989E-002  1.980358855039158E-002
  1.584287084031326E-002  1.188215313023495E-002  7.921435420156629E-003
  3.960717710078312E-003  0.000000000000000E+000  3.960717710078315E-002
  3.564645939070483E-002  3.168574168062652E-002  2.772502397054821E-002
  2.376430626046989E-002  1.980358855039158E-002  1.584287084031326E-002
  1.188215313023495E-002  7.921435420156629E-003  3.960717710078312E-003
  0.000000000000000E+000  3.960717710078315E-002  3.564645939070483E-002
  3.168574168062652E-002  2.772502397054821E-002  2.376430626046989E-002
  1.980358855039158E-002  1.584287084031326E-002  1.188215313023495E-002
  7.921435420156629E-003  3.960717710078312E-003  0.000000000000000E+000
  3.960717710078315E-002  3.564645939070483E-002  3.168574168062652E-002
  2.772502397054821E-002  2.376430626046989E-002  1.980358855039158E-002
  1.584287084031326E-002  1.188215313023495E-002  7.921435420156629E-003
  3.960717710078312E-003  0.000000000000000E+000  3.960717710078315E-002
  3.564645939070483E-002  3.168574168062652E-002  2.772502397054821E-002
  2.376430626046989E-002  1.980358855039158E-002  1.584287084031326E-002
  1.188215313023495E-002  7.921435420156629E-003  3.960717710078312E-003
  0.000000000000000E+000  3.960717710078315E-002  3.564645939070483E-002
  3.168574168062652E-002  2.772502397054821E-002  2.376430626046989E-002
  1.980358855039158E-002  1.584287084031326E-002  1.188215313023495E-002
  7.921435420156629E-003  3.960717710078312E-003  0.000000000000000E+000
  3.960717710078315E-002  3.564645939070483E-002  3.168574168062652E-002
  2.772502397054821E-002  2.376430626046989E-002  1.980358855039158E-002
  1.584287084031326E-002  1.188215313023495E-002  7.921435420156629E-003
  3.960717710078312E-003  0.000000000000000E+000  3.960717710078315E-002
  3.564645939070483E-002  3.168574168062652E-002  2.772502397054821E-002
  2.376430626046989E-002  1.980358855039158E-002  1.584287084031326E-002
  1.188215313023495E-002  7.921435420156629E-003  3.960717710078312E-003
  0.000000000000000E+000  3.960717710078315E-002  3.564645939070483E-002
  3.168574168062652E-002  2.772502397054821E-002  2.376430626046989E-002
  1.980358855039158E-002  1.584287084031326E-002  1.188215313023495E-002
  7.921435420156629E-003  3.960717710078312E-003  0.000000000000000E+000
  3.960717710078315E-002  3.564645939070483E-002  3.168574168062652E-002
  2.772502397054821E-002  2.376430626046989E-002  1.980358855039158E-002
  1.584287084031326E-002  1.188215313023495E-002  7.921435420156629E-003
  3.960717710078312E-003  0.000000000000000E+000  3.960717710078315E-002
  3.564645939070483E-002  3.168574168062652E-002  2.772502397054821E-002
  2.376430626046989E-002  1.980358855039158E-002  1.584287084031326E-002
  1.188215313023495E-002  7.921435420156629E-003  3.960717710078312E-003
  0.000000000000000E+000  3.960717710078315E-002  3.564645939070483E-002
  3.168574168062652E-002  2.772502397054821E-002  2.376430626046989E-002
  1.980358855039158E-002  1.584287084031326E-002  1.188215313023495E-002
  7.921435420156629E-003  3.960717710078312E-003  0.000000000000000E+000
  3.960717710078315E-002  3.564645939070483E-002  3.168574168062652E-002
  2.772502397054821E-002  2.376430626046989E-002  1.980358855039158E-002
  1.584287084031326E-002  1.188215313023495E-002  7.921435420156629E-003
  3.960717710078312E-003  0.000000000000000E+000  3.960717710078315E-002
  3.564645939070483E-002  3.168574168062652E-002  2.772502397054821E-002
  2.376430626046989E-002  1.980358855039158E-002  1.584287084031326E-002
  1.188215313023495E-002  7.921435420156629E-003  3.960717710078312E-003
  0.000000000000000E+000  3.960717710078315E-002  3.564645939070483E-002
  3.168574168062652E-002  2.772502397054821E-002  2.376430626046989E-002
  1.980358855039158E-002  1.584287084031326E-002  1.188215313023495E-002
  7.921435420156629E-003  3.960717710078312E-003  0.000000000000000E+000
  3.960717710078315E-002  3.564645939070483E-002  3.168574168062652E-002
  2.772502397054821E-002  2.376430626046989E-002  1.980358855039158E-002
  1.584287084031326E-002  1.188215313023495E-002  7.921435420156629E-003
  3.960717710078312E-003  0.000000000000000E+000  3.960717710078315E-002
  3.564645939070483E-002  3.168574168062652E-002  2.772502397054821E-002
  2.376430626046989E-002  1.980358855039158E-002  1.584287084031326E-002
  1.188215313023495E-002  7.921435420156629E-003  3.960717710078312E-003
  0.000000000000000E+000  3.960717710078315E-002  3.564645939070483E-002
  3.168574168062652E-002  2.772502397054821E-002  2.376430626046989E-002
  1.980358855039158E-002  1.584287084031326E-002  1.188215313023495E-002
  7.921435420156629E-003  3.960717710078312E-003  0.000000000000000E+000
  3.960717710078315E-002  3.564645939070483E-002  3.168574168062652E-002
  2.772502397054821E-002  2.376430626046989E-002  1.980358855039158E-002
  1.584287084031326E-002  1.188215313023495E-002  7.921435420156629E-003
  3.960717710078312E-003  0.000000000000000E+000  3.960717710078315E-002
  3.564645939070483E-002  3.168574168062652E-002  2.772502397054821E-002
  2.376430626046989E-002  1.980358855039158E-002  1.584287084031326E-002
  1.188215313023495E-002  7.921435420156629E-003  3.960717710078312E-003
  0.000000000000000E+000
  4.432277480748425E-002  7.058329121228529E-002  9.329405303823861E-002
  0.114041442047636       0.133313847136282       0.151297612542834     
  0.168030875002230       0.183460442166591       0.197428373394511     
  0.209098506506168       7.664702245007884E-002  0.122612166972558     
  0.161950295470245       0.197708958555309       0.230813390300729     
  0.261628701231669       0.290272313334205       0.316733091480369     
  0.340909466356764       0.362246314945682       0.114128718568410     
  0.182694177952885       0.240422559021062       0.292328246521331     
  0.339999245776669       0.384104977404206       0.424961438713701     
  0.462726038310423       0.497436136469125       0.527889186109881     
  0.160916423851517       0.254824255671791       0.332427701019441     
  0.401238206001436       0.463736276966387       0.520993006438641     
  0.573552103979490       0.621656387604396       0.664986312302646     
  0.700902984583076       0.222372057070483       0.346520637569949     
  0.446533686183433       0.533652215016469       0.611706529784974     
  0.682403850353704       0.746543248823789       0.804331888374421     
  0.855146033190717       0.895773923129682       0.301653745285628     
  0.462900413939333       0.589153112904575       0.696869135894982     
  0.791748668831435       0.876358197253853       0.951940791966250     
   1.01888435984213        1.07654229825371        1.12144340874185     
  0.399541746169748       0.605609592340726       0.762661692801392     
  0.893805639720019        1.00724990627083        1.10677624120409     
   1.19425399815284        1.27039337568376        1.33467007764847     
   1.38346513635455       0.515234198185177       0.773906437156114     
  0.966721521602984        1.12470997956635        1.25908374903188     
   1.37511306321165        1.47550039440806        1.56141747843837     
   1.63251836149988        1.68506100866339       0.647922201184765     
  0.966856549764733        1.20048293685438        1.38893332807209     
   1.54691185653667        1.68144053466668        1.79619263189847     
   1.89286913605895        1.97134915901409        2.02778694025126     
  0.797045540946053        1.18365463264980        1.46305661108134     
   1.68562492477545        1.86998449113734        2.02511435678807     
   2.15579236837457        2.26435449725701        2.35096505195947     
   2.41166390673503       0.961785045293558        1.42310420423527     
   1.75297982373803        2.01309934566890        2.22643224435364     
   2.40414675769467        2.55226911082566        2.67385827256941     
   2.76940730331612        2.83483093555091        1.14054498105350     
   1.68284765471719        2.06735399780403        2.36804547380961     
   2.61262597376370        2.81466023866857        2.98154837265868     
   3.11715585348839        3.22236223046979        3.29297836701821     
   1.33110085779276        1.95958955722232        2.40210601857499     
   2.74575324571080        3.02330381351262        3.25090712791809     
   3.43746204331827        3.58773423091030        3.70306733995230     
   3.77922359859494        1.53153023465879        2.25030749262092     
   2.75328401774097        3.14142004932828        3.45287066913486     
   3.70656069720771        3.91302705691600        4.07804496740671     
   4.20351425874239        4.28523554729137        1.74219551312052     
   2.55492895553581        3.12008051285042        3.55334924422788     
   3.89868037693667        4.17802943491810        4.40375411817281     
   4.58278652027330        4.71772449480838        4.80456936052278     
   1.96844013557929        2.87976824767468        3.50854295962404     
   3.98679042386653        4.36498107448614        4.66854525993505     
   4.91196641715895        5.10355324884738        5.24676800801634     
   5.33797661397311        2.21697330917214        3.23226989935488     
   3.92538176190240        4.44732400065893        4.85629319714931     
   5.18183181170917        5.44090378126566        5.64340904371940     
   5.79382625957943        5.88899693844176        2.47193360159758     
   3.58856281791186        4.34108035086195        4.90126508783127     
   5.33585259538030        5.67889155764659        5.95000724541383     
   6.16078884390292        6.31684211047210        6.41564987904524     
   2.67688565530538        3.86798749508239        4.65932227261964     
   5.24088627812709        5.68702762007166        6.03581765103501     
   6.30926154939588        6.52049437819096        6.67628471167181     
   6.77525338231595        2.76567742021084        3.97462096926018     
   4.76400682841030        5.33493760691443        5.76676741212955     
   6.10026124393765        6.35893378658871        6.55680543020935     
   6.70138906454946        6.79279418040714        2.70889548107402     
   3.86215362450084        4.59703896545689        5.11783695321177     
   5.50546831182415        5.80111934322284        6.02815351921881     
   6.20025468838411        6.32475692546463        6.40264198368224     
   2.50711508085441        3.52655791297143        4.15382651579103     
   4.58848124211930        4.90768879616498        5.14928586911551     
   5.33410839777808        5.47424643269486        5.57637107402573     
   5.64160682771861        2.15944716286665        2.96818526532728     
   3.44683688256017        3.77382908568602        4.01293476826206     
   4.19391522580741        4.33292197092569        4.43976771469171     
   4.52152739694395        4.58421668407250        1.64884919882688     
   2.19426308950446        2.51271807492623        2.73081390480358     
   2.89094068715750        3.01263009624438        3.10651533837097     
   3.17912318347779        3.23532292181399        3.28191611211362     
   1.00194169067219        1.30732647818159        1.48730325903940     
   1.61124962777098        1.70256630432854        1.77210996776580     
   1.82578091267085        1.86705028795633        1.89790014919625     
   1.91786426953374     
  0.000000000000000E+000  0.000000000000000E+000  0.000000000000000E+000
  0.000000000000000E+000  0.000000000000000E+000  0.000000000000000E+000
  0.000000000000000E+000  0.000000000000000E+000  0.000000000000000E+000
  0.000000000000000E+000  0.000000000000000E+000  0.000000000000000E+000
  0.000000000000000E+000  0.000000000000000E+000  0.000000000000000E+000
  0.000000000000000E+000  0.000000000000000E+000  0.000000000000000E+000
  0.000000000000000E+000  0.000000000000000E+000  0.000000000000000E+000
  0.000000000000000E+000  0.000000000000000E+000  0.000000000000000E+000
  0.000000000000000E+000  0.000000000000000E+000  0.000000000000000E+000
  0.000000000000000E+000  0.000000000000000E+000  0.000000000000000E+000
  0.000000000000000E+000  0.000000000000000E+000  0.000000000000000E+000
  0.000000000000000E+000  0.000000000000000E+000  0.000000000000000E+000
  0.000000000000000E+000  0.000000000000000E+000  0.000000000000000E+000
  0.000000000000000E+000  0.000000000000000E+000  0.000000000000000E+000
  0.000000000000000E+000  0.000000000000000E+000  0.000000000000000E+000
  0.000000000000000E+000  0.000000000000000E+000  0.000000000000000E+000
  0.000000000000000E+000  0.000000000000000E+000  0.000000000000000E+000
  0.000000000000000E+000  0.000000000000000E+000  0.000000000000000E+000
  0.000000000000000E+000  0.000000000000000E+000  0.000000000000000E+000
  0.000000000000000E+000  0.000000000000000E+000  0.000000000000000E+000
  0.000000000000000E+000  0.000000000000000E+000  0.000000000000000E+000
  0.000000000000000E+000  0.000000000000000E+000  0.000000000000000E+000
  0.000000000000000E+000  0.000000000000000E+000  0.000000000000000E+000
  0.000000000000000E+000  0.000000000000000E+000  0.000000000000000E+000
  0.000000000000000E+000  0.000000000000000E+000  0.000000000000000E+000
  0.000000000000000E+000  0.000000000000000E+000  0.000000000000000E+000
  0.000000000000000E+000  0.000000000000000E+000  0.000000000000000E+000
  0.000000000000000E+000  0.000000000000000E+000  0.000000000000000E+000
  0.000000000000000E+000  0.000000000000000E+000  0.000000000000000E+000
  0.000000000000000E+000  0.000000000000000E+000  0.000000000000000E+000
  0.000000000000000E+000  0.000000000000000E+000  0.000000000000000E+000
  0.000000000000000E+000  0.000000000000000E+000  0.000000000000000E+000
  0.000000000000000E+000  0.000000000000000E+000  0.000000000000000E+000
  0.000000000000000E+000  0.000000000000000E+000  0.000000000000000E+000
  0.000000000000000E+000  0.000000000000000E+000  0.000000000000000E+000
  0.000000000000000E+000  0.000000000000000E+000  0.000000000000000E+000
  0.000000000000000E+000  0.000000000000000E+000  0.000000000000000E+000
  0.000000000000000E+000  0.000000000000000E+000  0.000000000000000E+000
  0.000000000000000E+000  0.000000000000000E+000  0.000000000000000E+000