 Title = "Wing and Wake"
 VARIABLES = "X" "Y" "Z" "GAM" "skew"
 Zone I=   11 J=   26 K=1  T="Blade"
 DATAPACKING=BLOCK
 VARLOCATION=([4]=CELLCENTERED,[5]=CELLCENTERED)
 -4.267338254560944E-002 -2.743709590003050E-002 -1.220080925445150E-002
  3.035477391127565E-003  1.827176403670686E-002  3.350805068228561E-002
  4.874433732786479E-002  6.398062397344373E-002  7.921691061902257E-002
  9.445319726460172E-002  0.109689483910181      -4.051156554421260E-002
 -2.527527889863350E-002 -1.003899225305440E-002  5.197294392524439E-003
  2.043358103810346E-002  3.566986768368252E-002  5.090615432926147E-002
  6.614244097484033E-002  8.137872762041960E-002  9.661501426599862E-002
  0.111851300911578      -3.406020768554115E-002 -1.882392103996238E-002
 -3.587634394383143E-003  1.164865225119597E-002  2.688493889677479E-002
  4.212122554235391E-002  5.735751218793321E-002  7.259379883351190E-002
  8.783008547909067E-002  0.103066372124670       0.118302658770249     
 -2.342105073688081E-002 -8.184764091301398E-003  7.051522554277729E-003
  2.228780919985636E-002  3.752409584543537E-002  5.276038249101448E-002
  6.799666913659339E-002  8.323295578217238E-002  9.846924242775149E-002
  0.113705529073331       0.128941815718909      -8.761880558836138E-003
  6.474406086742717E-003  2.171069273232215E-002  3.694697937790113E-002
  5.218326602348006E-002  6.741955266905929E-002  8.265583931463848E-002
  9.789212596021708E-002  0.113128412605796       0.128364699251375     
  0.143600985896954       9.686118977921493E-003  2.492240562350078E-002
  4.015869226907939E-002  5.539497891465883E-002  7.063126556023765E-002
  8.586755220581718E-002  0.101103838851396       0.116340125496975     
  0.131576412142554       0.146812698788133       0.162048985433712     
  3.163201190039654E-002  4.686829854597537E-002  6.210458519155435E-002
  7.734087183713344E-002  9.257715848271238E-002  0.107813445128292     
  0.123049731773870       0.138286018419449       0.153522305065028     
  0.168758591710607       0.183994878356186       5.672969836736045E-002
  7.196598501293935E-002  8.720227165851882E-002  0.102438558304097     
  0.117674844949676       0.132911131595255       0.148147418240834     
  0.163383704886413       0.178619991531992       0.193856278177571     
  0.209092564823151       8.458337287059758E-002  9.981965951617762E-002
  0.115055946161756       0.130292232807335       0.145528519452914     
  0.160764806098493       0.176001092744072       0.191237379389651     
  0.206473666035230       0.221709952680809       0.236946239326388     
  0.114753766324215       0.129990052969793       0.145226339615373     
  0.160462626260952       0.175698912906531       0.190935199552109     
  0.206171486197688       0.221407772843268       0.236644059488847     
  0.251880346134425       0.267116632780004       0.146765073600528     
  0.162001360246107       0.177237646891685       0.192473933537264     
  0.207710220182843       0.222946506828423       0.238182793474001     
  0.253419080119581       0.268655366765159       0.283891653410738     
  0.299127940056317       0.180112457261161       0.195348743906739     
  0.210585030552320       0.225821317197898       0.241057603843477     
  0.256293890489056       0.271530177134635       0.286766463780214     
  0.302002750425793       0.317239037071372       0.332475323716951     
  0.214270009145025       0.229506295790604       0.244742582436184     
  0.259978869081762       0.275215155727341       0.290451442372920     
  0.305687729018500       0.320924015664079       0.336160302309657     
  0.351396588955236       0.366632875600815       0.248699044254180     
  0.263935330899759       0.279171617545337       0.294407904190917     
  0.309644190836496       0.324880477482075       0.340116764127655     
  0.355353050773232       0.370589337418813       0.385825624064391     
  0.401061910709970       0.282856596138044       0.298092882783622     
  0.313329169429203       0.328565456074781       0.343801742720360     
  0.359038029365940       0.374274316011517       0.389510602657098     
  0.404746889302675       0.419983175948254       0.435219462593834     
  0.316203979798677       0.331440266444257       0.346676553089836     
  0.361912839735414       0.377149126380993       0.392385413026573     
  0.407621699672151       0.422857986317730       0.438094272963309     
  0.453330559608888       0.468566846254468       0.348215287074990     
  0.363451573720569       0.378687860366148       0.393924147011727     
  0.409160433657306       0.424396720302885       0.439633006948465     
  0.454869293594044       0.470105580239623       0.485341866885202     
  0.500578153530781       0.378385680528607       0.393621967174186     
  0.408858253819765       0.424094540465344       0.439330827110923     
  0.454567113756503       0.469803400402081       0.485039687047660     
  0.500275973693239       0.515512260338818       0.530748546984396     
  0.406239355031845       0.421475641677423       0.436711928323003     
  0.451948214968581       0.467184501614160       0.482420788259740     
  0.497657074905318       0.512893361550898       0.528129648196477     
  0.543365934842056       0.558602221487634       0.431337041498808     
  0.446573328144388       0.461809614789966       0.477045901435547     
  0.492282188081124       0.507518474726704       0.522754761372281     
  0.537991048017862       0.553227334663441       0.568463621309020     
  0.583699907954597       0.453282934421284       0.468519221066863     
  0.483755507712441       0.498991794358020       0.514228081003599     
  0.529464367649178       0.544700654294758       0.559936940940336     
  0.575173227585915       0.590409514231494       0.605645800877072     
  0.471730933958040       0.486967220603619       0.502203507249199     
  0.517439793894778       0.532676080540356       0.547912367185936     
  0.563148653831514       0.578384940477094       0.593621227122673     
  0.608857513768253       0.624093800413833       0.486390104136086     
  0.501626390781664       0.516862677427243       0.532098964072822     
  0.547335250718402       0.562571537363980       0.577807824009559     
  0.593044110655140       0.608280397300718       0.623516683946296     
  0.638752970591876       0.497029261084745       0.512265547730324     
  0.527501834375903       0.542738121021483       0.557974407667063     
  0.573210694312642       0.588446980958221       0.603683267603800     
  0.618919554249377       0.634155840894958       0.649392127540536     
  0.503480618943417       0.518716905588995       0.533953192234574     
  0.549189478880153       0.564425765525733       0.579662052171313     
  0.594898338816891       0.610134625462470       0.625370912108050     
  0.640607198753628       0.655843485399206       0.505642435944813     
  0.520878722590394       0.536115009235971       0.551351295881551     
  0.566587582527130       0.581823869172710       0.597060155818289     
  0.612296442463867       0.627532729109447       0.642769015755024     
  0.658005302400606     
  0.263068948178671       0.252341843048450       0.241614737918229     
  0.230887632788008       0.220160527657786       0.209433422527565     
  0.198706317397344       0.187979212267123       0.177252107136902     
  0.166525002006680       0.155797896876459       0.266139493596910     
  0.255412388466689       0.244685283336467       0.233958178206247     
  0.223231073076025       0.212503967945804       0.201776862815583     
  0.191049757685362       0.180322652555141       0.169595547424919     
  0.158868442294698       0.275302705516126       0.264575600385905     
  0.253848495255683       0.243121390125462       0.232394284995241     
  0.221667179865020       0.210940074734799       0.200212969604578     
  0.189485864474356       0.178758759344135       0.168031654213914     
  0.290414074610516       0.279686969480295       0.268959864350074     
  0.258232759219853       0.247505654089631       0.236778548959410     
  0.226051443829189       0.215324338698967       0.204597233568746     
  0.193870128438525       0.183143023308304       0.311235285562366     
  0.300508180432145       0.289781075301924       0.279053970171703     
  0.268326865041481       0.257599759911260       0.246872654781039     
  0.236145549650818       0.225418444520596       0.214691339390376     
  0.203964234260154       0.337437975436978       0.326710870306757     
  0.315983765176536       0.305256660046314       0.294529554916094     
  0.283802449785873       0.273075344655651       0.262348239525430     
  0.251621134395209       0.240894029264987       0.230166924134766     
  0.368608912162300       0.357881807032079       0.347154701901859     
  0.336427596771638       0.325700491641416       0.314973386511195     
  0.304246281380974       0.293519176250753       0.282792071120531     
  0.272064965990310       0.261337860860088       0.404256511445561     
  0.393529406315339       0.382802301185119       0.372075196054898     
  0.361348090924676       0.350620985794455       0.339893880664234     
  0.329166775534013       0.318439670403791       0.307712565273570     
  0.296985460143350       0.443818589351218       0.433091484220997     
  0.422364379090776       0.411637273960555       0.400910168830334     
  0.390183063700112       0.379455958569890       0.368728853439669     
  0.358001748309448       0.347274643179227       0.336547538049006     
  0.486671228277460       0.475944123147239       0.465217018017018     
  0.454489912886796       0.443762807756575       0.433035702626354     
  0.422308597496132       0.411581492365912       0.400854387235690     
  0.390127282105468       0.379400176975248       0.532138616509494     
  0.521411511379273       0.510684406249051       0.499957301118830     
  0.489230195988609       0.478503090858389       0.467775985728166     
  0.457048880597945       0.446321775467724       0.435594670337503     
  0.424867565207282       0.579503706173999       0.568776601043778     
  0.558049495913558       0.547322390783335       0.536595285653114     
  0.525868180522894       0.515141075392673       0.504413970262451     
  0.493686865132230       0.482959760002008       0.472232654871787     
  0.628019521512436       0.617292416382214       0.606565311251992     
  0.595838206121772       0.585111100991550       0.574383995861329     
  0.563656890731108       0.552929785600886       0.542202680470665     
  0.531475575340444       0.520748470210223       0.676920939134971     
  0.666193834004748       0.655466728874527       0.644739623744305     
  0.634012518614085       0.623285413483863       0.612558308353642     
  0.601831203223421       0.591104098093201       0.580376992962979     
  0.569649887832757       0.725436754473404       0.714709649343183     
  0.703982544212963       0.693255439082741       0.682528333952519     
  0.671801228822300       0.661074123692077       0.650347018561856     
  0.639619913431634       0.628892808301412       0.618165703171193     
  0.772801844137911       0.762074739007689       0.751347633877468     
  0.740620528747248       0.729893423617026       0.719166318486805     
  0.708439213356583       0.697712108226362       0.686985003096141     
  0.676257897965918       0.665530792835699       0.818269232369945     
  0.807542127239723       0.796815022109501       0.786087916979282     
  0.775360811849059       0.764633706718839       0.753906601588617     
  0.743179496458397       0.732452391328175       0.721725286197954     
  0.710998181067733       0.861121871296186       0.850394766165964     
  0.839667661035743       0.828940555905523       0.818213450775301     
  0.807486345645081       0.796759240514859       0.786032135384637     
  0.775305030254416       0.764577925124195       0.753850819993974     
  0.900683949201842       0.889956844071620       0.879229738941400     
  0.868502633811179       0.857775528680958       0.847048423550737     
  0.836321318420515       0.825594213290294       0.814867108160074     
  0.804140003029852       0.793412897899630       0.936331548485103     
  0.925604443354882       0.914877338224660       0.904150233094441     
  0.893423127964219       0.882696022833996       0.871968917703776     
  0.861241812573556       0.850514707443333       0.839787602313113     
  0.829060497182891       0.967502485210426       0.956775380080206     
  0.946048274949982       0.935321169819761       0.924594064689541     
  0.913866959559319       0.903139854429099       0.892412749298877     
  0.881685644168656       0.870958539038434       0.860231433908213     
  0.993705175085038       0.982978069954817       0.972250964824594     
  0.961523859694374       0.950796754564154       0.940069649433933     
  0.929342544303710       0.918615439173490       0.907888334043269     
  0.897161228913047       0.886434123782826        1.01452638603689     
   1.00379928090667       0.993072175776445       0.982345070646224     
  0.971617965516004       0.960890860385782       0.950163755255562     
  0.939436650125341       0.928709544995119       0.917982439864899     
  0.907255334734675        1.02963775513128        1.01891065000106     
   1.00818354487083       0.997456439740614       0.986729334610394     
  0.976002229480171       0.965275124349952       0.954548019219728     
  0.943820914089507       0.933093808959286       0.922366703829064     
   1.03880096705049        1.02807386192027        1.01734675679005     
   1.00661965165983       0.995892546529609       0.985165441399387     
  0.974438336269165       0.963711231138945       0.952984126008725     
  0.942257020878502       0.931529915748281        1.04187151246873     
   1.03114440733851        1.02041730220829        1.00969019707807     
  0.998963091947848       0.988235986817628       0.977508881687407     
  0.966781776557183       0.956054671426964       0.945327566296740     
  0.934600461166522     
  3.960717710078315E-002  3.564645939070483E-002  3.168574168062652E-002
  2.772502397054821E-002  2.376430626046989E-002  1.980358855039158E-002
  1.584287084031326E-002  1.188215313023495E-002  7.921435420156629E-003
  3.960717710078312E-003  0.000000000000000E+000  3.960717710078315E-002
  3.564645939070483E-002  3.168574168062652E-002  2.772502397054821E-002
  2.376430626046989E-002  1.980358855039158E-002  1.584287084031326E-002
  1.188215313023495E-002  7.921435420156629E-003  3.960717710078312E-003
  0.000000000000000E+000  3.960717710078315E-002  3.564645939070483E-002
  3.168574168062652E-002  2.772502397054821E-002  2.376430626046989E-002
  1.980358855039158E-002  1.584287084031326E-002  1.188215313023495E-002
  7.921435420156629E-003  3.960717710078312E-003  0.000000000000000E+000
  3.960717710078315E-002  3.564645939070483E-002  3.168574168062652E-002
  2.772502397054821E-002  2.376430626046989E-002  1.980358855039158E-002
  1.584287084031326E-002  1.188215313023495E-002  7.921435420156629E-003
  3.960717710078312E-003  0.000000000000000E+000  3.960717710078315E-002
  3.564645939070483E-002  3.168574168062652E-002  2.772502397054821E-002
  2.376430626046989E-002  1.980358855039158E-002  1.584287084031326E-002
  1.188215313023495E-002  7.921435420156629E-003  3.960717710078312E-003
  0.000000000000000E+000  3.960717710078315E-002  3.564645939070483E-002
  3.168574168062652E-002  2.772502397054821E-002  2.376430626046989E-002
  1.980358855039158E-002  1.584287084031326E-002  1.188215313023495E-002
  7.921435420156629E-003  3.960717710078312E-003  0.000000000000000E+000
  3.960717710078315E-002  3.564645939070483E-002  3.168574168062652E-002
  2.772502397054821E-002  2.376430626046989E-002  1.980358855039158E-002
  1.584287084031326E-002  1.188215313023495E-002  7.921435420156629E-003
  3.960717710078312E-003  0.000000000000000E+000  3.960717710078315E-002
  3.564645939070483E-002  3.168574168062652E-002  2.772502397054821E-002
  2.376430626046989E-002  1.980358855039158E-002  1.584287084031326E-002
  1.188215313023495E-002  7.921435420156629E-003  3.960717710078312E-003
  0.000000000000000E+000  3.960717710078315E-002  3.564645939070483E-002
  3.168574168062652E-002  2.772502397054821E-002  2.376430626046989E-002
  1.980358855039158E-002  1.584287084031326E-002  1.188215313023495E-002
  7.921435420156629E-003  3.960717710078312E-003  0.000000000000000E+000
  3.960717710078315E-002  3.564645939070483E-002  3.168574168062652E-002
  2.772502397054821E-002  2.376430626046989E-002  1.980358855039158E-002
  1.584287084031326E-002  1.188215313023495E-002  7.921435420156629E-003
  3.960717710078312E-003  0.000000000000000E+000  3.960717710078315E-002
  3.564645939070483E-002  3.168574168062652E-002  2.772502397054821E-002
  2.376430626046989E-002  1.980358855039158E-002  1.584287084031326E-002
  1.188215313023495E-002  7.921435420156629E-003  3.960717710078312E-003
  0.000000000000000E+000  3.960717710078315E-002  3.564645939070483E-002
  3.168574168062652E-002  2.772502397054821E-002  2.376430626046989E-002
  1.980358855039158E-002  1.584287084031326E-002  1.188215313023495E-002
  7.921435420156629E-003  3.960717710078312E-003  0.000000000000000E+000
  3.960717710078315E-002  3.564645939070483E-002  3.168574168062652E-002
  2.772502397054821E-002  2.376430626046989E-002  1.980358855039158E-002
  1.584287084031326E-002  1.188215313023495E-002  7.921435420156629E-003
  3.960717710078312E-003  0.000000000000000E+000  3.960717710078315E-002
  3.564645939070483E-002  3.168574168062652E-002  2.772502397054821E-002
  2.376430626046989E-002  1.980358855039158E-002  1.584287084031326E-002
  1.188215313023495E-002  7.921435420156629E-003  3.960717710078312E-003
  0.000000000000000E+000  3.960717710078315E-002  3.564645939070483E-002
  3.168574168062652E-002  2.772502397054821E-002  2.376430626046989E-002
  1.980358855039158E-002  1.584287084031326E-002  1.188215313023495E-002
  7.921435420156629E-003  3.960717710078312E-003  0.000000000000000E+000
  3.960717710078315E-002  3.564645939070483E-002  3.168574168062652E-002
  2.772502397054821E-002  2.376430626046989E-002  1.980358855039158E-002
  1.584287084031326E-002  1.188215313023495E-002  7.921435420156629E-003
  3.960717710078312E-003  0.000000000000000E+000  3.960717710078315E-002
  3.564645939070483E-002  3.168574168062652E-002  2.772502397054821E-002
  2.376430626046989E-002  1.980358855039158E-002  1.584287084031326E-002
  1.188215313023495E-002  7.921435420156629E-003  3.960717710078312E-003
  0.000000000000000E+000  3.960717710078315E-002  3.564645939070483E-002
  3.168574168062652E-002  2.772502397054821E-002  2.376430626046989E-002
  1.980358855039158E-002  1.584287084031326E-002  1.188215313023495E-002
  7.921435420156629E-003  3.960717710078312E-003  0.000000000000000E+000
  3.960717710078315E-002  3.564645939070483E-002  3.168574168062652E-002
  2.772502397054821E-002  2.376430626046989E-002  1.980358855039158E-002
  1.584287084031326E-002  1.188215313023495E-002  7.921435420156629E-003
  3.960717710078312E-003  0.000000000000000E+000  3.960717710078315E-002
  3.564645939070483E-002  3.168574168062652E-002  2.772502397054821E-002
  2.376430626046989E-002  1.980358855039158E-002  1.584287084031326E-002
  1.188215313023495E-002  7.921435420156629E-003  3.960717710078312E-003
  0.000000000000000E+000  3.960717710078315E-002  3.564645939070483E-002
  3.168574168062652E-002  2.772502397054821E-002  2.376430626046989E-002
  1.980358855039158E-002  1.584287084031326E-002  1.188215313023495E-002
  7.921435420156629E-003  3.960717710078312E-003  0.000000000000000E+000
  3.960717710078315E-002  3.564645939070483E-002  3.168574168062652E-002
  2.772502397054821E-002  2.376430626046989E-002  1.980358855039158E-002
  1.584287084031326E-002  1.188215313023495E-002  7.921435420156629E-003
  3.960717710078312E-003  0.000000000000000E+000  3.960717710078315E-002
  3.564645939070483E-002  3.168574168062652E-002  2.772502397054821E-002
  2.376430626046989E-002  1.980358855039158E-002  1.584287084031326E-002
  1.188215313023495E-002  7.921435420156629E-003  3.960717710078312E-003
  0.000000000000000E+000  3.960717710078315E-002  3.564645939070483E-002
  3.168574168062652E-002  2.772502397054821E-002  2.376430626046989E-002
  1.980358855039158E-002  1.584287084031326E-002  1.188215313023495E-002
  7.921435420156629E-003  3.960717710078312E-003  0.000000000000000E+000
  3.960717710078315E-002  3.564645939070483E-002  3.168574168062652E-002
  2.772502397054821E-002  2.376430626046989E-002  1.980358855039158E-002
  1.584287084031326E-002  1.188215313023495E-002  7.921435420156629E-003
  3.960717710078312E-003  0.000000000000000E+000  3.960717710078315E-002
  3.564645939070483E-002  3.168574168062652E-002  2.772502397054821E-002
  2.376430626046989E-002  1.980358855039158E-002  1.584287084031326E-002
  1.188215313023495E-002  7.921435420156629E-003  3.960717710078312E-003
  0.000000000000000E+000
  6.462530559459165E-002  0.119050294026916       0.178226085551763     
  0.243187137205078       0.313056095298437       0.384501626681257     
  0.452458793430904       0.512307322481481       0.561063637776952     
  0.596085899118748       0.112695996905445       0.205472687436459     
  0.305100674443851       0.413933949121255       0.530870965034952     
  0.650913539160147       0.765874235047366       0.868093997516283     
  0.952535569247460        1.01655326712785       0.167436513027526     
  0.297305782342232       0.432844160052517       0.578863316163238     
  0.734767680866449       0.895958691971662        1.05283363836598     
   1.19566451796354        1.31642996516189        1.40810406108191     
  0.226819562249529       0.388276696841119       0.549733138248733     
  0.719529687560442       0.897166094102983        1.07976418289115     
   1.26153133780653        1.43169852549958        1.57767901617685     
   1.68482972921891       0.291791395276692       0.479671965051601     
  0.655735748424489       0.833211784565731        1.01382617451952     
   1.19687690128194        1.37945126669355        1.55350338388326     
   1.70498859692046        1.81522399598616       0.367872701696170     
  0.582572275543705       0.768086117085047       0.943913294639282     
   1.11591662243194        1.28509086149724        1.44879446742668     
   1.60002009304186        1.72824440521773        1.82026561907456     
  0.459893404346847       0.708666668304623       0.908727599312740     
   1.08574575819296        1.24818647178662        1.39891794559825     
   1.53753255677217        1.66033387027678        1.76085678263033     
   1.83043149424416       0.566927465422760       0.858187718468933     
   1.08075162298036        1.26772139238342        1.43039348711238     
   1.57332223936178        1.69797942861698        1.80382537886453     
   1.88833819649861        1.94533751076269       0.688665743082790     
   1.03123496217148        1.28486993426033        1.49145249641933     
   1.66587400134354        1.81478555330446        1.94121103733471     
   2.04602735293697        2.12810684154891        2.18253437069534     
  0.825914058896494        1.22850072157613        1.52084427642443     
   1.75461782612792        1.94862974772557        2.11167693848354     
   2.24818296373087        2.36001634217387        2.44676037868032     
   2.50389052404176       0.978384993814797        1.44885904728165     
   1.78611415719664        2.05256466843065        2.27127309950015     
   2.45329797241137        2.60445203542983        2.72750033512989     
   2.82255461572988        2.88515341386731        1.14532960224868     
   1.69074840578942        2.07810948501564        2.38149112384071     
   2.62851670535850        2.83261194556854        3.00100400041691     
   3.13734950731900        3.24226418184470        3.31127976335381     
   1.32543995683785        1.95189671470020        2.39352836079151     
   2.73693349892888        3.01461730383732        3.24253123978680     
   3.42940262147726        3.57983040844028        3.69497328885691     
   3.77040258181378        1.51723661815396        2.22978139143472     
   2.72883051046010        3.11431902557571        3.42396485103203     
   3.67643026777948        3.88206315392060        4.04649110037295     
   4.17149635676643        4.25279860074686        1.72171845059225     
   2.52522946120787        3.08425197309759        3.51305798916157     
   3.85502022189928        4.13178379186363        4.35551154271844     
   4.53300830006414        4.66680474000665        4.75292809048849     
   1.94661208117513        2.84782562191730        3.46957742213317     
   3.94240075887352        4.31618675503236        4.61606183896754     
   4.85632686582187        5.04518541633589        5.18607496139051     
   5.27549514523044        2.20419959310906        3.21254642846556     
   3.90009596739311        4.41716634063718        4.82169703677747     
   5.14307453707427        5.39814625800544        5.59673669210705     
   5.74331136943698        5.83489202343271        2.48134632564646     
   3.59945343513939        4.35113160823936        4.90933948463688     
   5.34126079753947        5.68109693691618        5.94850925417365     
   6.15509015671307        6.30644508412002        6.40019114973482     
   2.71301453318947        3.91624684495303        4.71316153834360     
   5.29708113067830        5.74356569963105        6.09119758712529     
   6.36226354490134        6.57008280370867        6.72153049668179     
   6.81537711929053        2.81976673943169        4.04848553415992     
   4.84826181686675        5.42488618244660        5.85952126047734     
   6.19377658552262        6.45163495306983        6.64741134466814     
   6.78880356492789        6.87611948328178        2.76943991099824     
   3.94557903131010        4.69300851911232        5.22112003168352     
   5.61288473493663        5.91051835205038        6.13795819769178     
   6.30922460414588        6.43184817536206        6.50699470721830     
   2.56576052574186        3.60708374010861        4.24633523565360     
   4.68810158228024        5.01153231897624        5.25544744064973     
   5.44122646008805        5.58127434523937        5.68244055274876     
   5.74598066114304        2.21077524919679        3.03742538595760     
   3.52565086815185        3.85835291585341        4.10094050509433     
   4.28395360232704        4.42397028689672        4.53105864391744     
   4.61246502472986        4.67437690729338        1.68827677079731     
   2.24588718231450        2.57080705406862        2.79280315700235     
   2.95535392266203        3.07850461275977        3.17317184199151     
   3.24605445391012        3.30214107099998        3.34839782417077     
   1.02594154598725        1.33816004868177        1.52180014481656     
   1.64797593293540        1.74068990378282        1.81108514917418     
   1.86522040007931        1.90666053723412        1.93744132981980     
   1.95710933260834     
  0.000000000000000E+000  0.000000000000000E+000  0.000000000000000E+000
  0.000000000000000E+000  0.000000000000000E+000  0.000000000000000E+000
  0.000000000000000E+000  0.000000000000000E+000  0.000000000000000E+000
  0.000000000000000E+000  0.000000000000000E+000  0.000000000000000E+000
  0.000000000000000E+000  0.000000000000000E+000  0.000000000000000E+000
  0.000000000000000E+000  0.000000000000000E+000  0.000000000000000E+000
  0.000000000000000E+000  0.000000000000000E+000  0.000000000000000E+000
  0.000000000000000E+000  0.000000000000000E+000  0.000000000000000E+000
  0.000000000000000E+000  0.000000000000000E+000  0.000000000000000E+000
  0.000000000000000E+000  0.000000000000000E+000  0.000000000000000E+000
  0.000000000000000E+000  0.000000000000000E+000  0.000000000000000E+000
  0.000000000000000E+000  0.000000000000000E+000  0.000000000000000E+000
  0.000000000000000E+000  0.000000000000000E+000  0.000000000000000E+000
  0.000000000000000E+000  0.000000000000000E+000  0.000000000000000E+000
  0.000000000000000E+000  0.000000000000000E+000  0.000000000000000E+000
  0.000000000000000E+000  0.000000000000000E+000  0.000000000000000E+000
  0.000000000000000E+000  0.000000000000000E+000  0.000000000000000E+000
  0.000000000000000E+000  0.000000000000000E+000  0.000000000000000E+000
  0.000000000000000E+000  0.000000000000000E+000  0.000000000000000E+000
  0.000000000000000E+000  0.000000000000000E+000  0.000000000000000E+000
  0.000000000000000E+000  0.000000000000000E+000  0.000000000000000E+000
  0.000000000000000E+000  0.000000000000000E+000  0.000000000000000E+000
  0.000000000000000E+000  0.000000000000000E+000  0.000000000000000E+000
  0.000000000000000E+000  0.000000000000000E+000  0.000000000000000E+000
  0.000000000000000E+000  0.000000000000000E+000  0.000000000000000E+000
  0.000000000000000E+000  0.000000000000000E+000  0.000000000000000E+000
  0.000000000000000E+000  0.000000000000000E+000  0.000000000000000E+000
  0.000000000000000E+000  0.000000000000000E+000  0.000000000000000E+000
  0.000000000000000E+000  0.000000000000000E+000  0.000000000000000E+000
  0.000000000000000E+000  0.000000000000000E+000  0.000000000000000E+000
  0.000000000000000E+000  0.000000000000000E+000  0.000000000000000E+000
  0.000000000000000E+000  0.000000000000000E+000  0.000000000000000E+000
  0.000000000000000E+000  0.000000000000000E+000  0.000000000000000E+000
  0.000000000000000E+000  0.000000000000000E+000  0.000000000000000E+000
  0.000000000000000E+000  0.000000000000000E+000  0.000000000000000E+000
  0.000000000000000E+000  0.000000000000000E+000  0.000000000000000E+000
  0.000000000000000E+000  0.000000000000000E+000  0.000000000000000E+000
  0.000000000000000E+000  0.000000000000000E+000  0.000000000000000E+000
  0.000000000000000E+000  0.000000000000000E+000  0.000000000000000E+000