 Title = "Wing and Wake"
 VARIABLES = "X" "Y" "Z" "GAM" "skew"
 Zone I=   11 J=   26 K=1  T="Blade"
 DATAPACKING=BLOCK
 VARLOCATION=([4]=CELLCENTERED,[5]=CELLCENTERED)
 -0.250575681882796      -0.242863252700357      -0.235150823517919     
 -0.227438394335480      -0.219725965153041      -0.212013535970603     
 -0.204301106788164      -0.196588677605725      -0.188876248423287     
 -0.181163819240848      -0.173451390058409      -0.253994151462352     
 -0.246281722279914      -0.238569293097475      -0.230856863915036     
 -0.223144434732598      -0.215432005550159      -0.207719576367720     
 -0.200007147185282      -0.192294718002843      -0.184582288820404     
 -0.176869859637966      -0.264195648893656      -0.256483219711218     
 -0.248770790528779      -0.241058361346340      -0.233345932163902     
 -0.225633502981463      -0.217921073799024      -0.210208644616586     
 -0.202496215434147      -0.194783786251708      -0.187071357069270     
 -0.281019290468138      -0.273306861285699      -0.265594432103261     
 -0.257882002920822      -0.250169573738384      -0.242457144555945     
 -0.234744715373506      -0.227032286191067      -0.219319857008629     
 -0.211607427826190      -0.203894998643752      -0.304199757308211     
 -0.296487328125772      -0.288774898943334      -0.281062469760895     
 -0.273350040578456      -0.265637611396017      -0.257925182213579     
 -0.250212753031140      -0.242500323848702      -0.234787894666263     
 -0.227075465483824      -0.333371479604467      -0.325659050422029     
 -0.317946621239590      -0.310234192057151      -0.302521762874713     
 -0.294809333692274      -0.287096904509835      -0.279384475327397     
 -0.271672046144958      -0.263959616962519      -0.256247187780081     
 -0.368074401869953      -0.360361972687515      -0.352649543505076     
 -0.344937114322637      -0.337224685140199      -0.329512255957760     
 -0.321799826775321      -0.314087397592883      -0.306374968410444     
 -0.298662539228005      -0.290950110045567      -0.407761238290021     
 -0.400048809107583      -0.392336379925144      -0.384623950742705     
 -0.376911521560267      -0.369199092377828      -0.361486663195389     
 -0.353774234012951      -0.346061804830512      -0.338349375648073     
 -0.330636946465635      -0.451806103746560      -0.444093674564121     
 -0.436381245381682      -0.428668816199244      -0.420956387016805     
 -0.413243957834366      -0.405531528651928      -0.397819099469489     
 -0.390106670287050      -0.382394241104612      -0.374681811922173     
 -0.499514384400192      -0.491801955217753      -0.484089526035314     
 -0.476377096852876      -0.468664667670437      -0.460952238487999     
 -0.453239809305559      -0.445527380123121      -0.437814950940682     
 -0.430102521758244      -0.422390092575805      -0.550133692165464     
 -0.542421262983026      -0.534708833800587      -0.526996404618148     
 -0.519283975435710      -0.511571546253271      -0.503859117070832     
 -0.496146687888393      -0.488434258705955      -0.480721829523516     
 -0.473009400341077      -0.602865730320410      -0.595153301137971     
 -0.587440871955533      -0.579728442773094      -0.572016013590655     
 -0.564303584408216      -0.556591155225778      -0.548878726043339     
 -0.541166296860900      -0.533453867678462      -0.525741438496023     
 -0.656878883122733      -0.649166453940294      -0.641454024757855     
 -0.633741595575416      -0.626029166392978      -0.618316737210539     
 -0.610604308028100      -0.602891878845662      -0.595179449663223     
 -0.587467020480785      -0.579754591298346      -0.711321330886846     
 -0.703608901704408      -0.695896472521969      -0.688184043339530     
 -0.680471614157092      -0.672759184974653      -0.665046755792215     
 -0.657334326609776      -0.649621897427337      -0.641909468244898     
 -0.634197039062460      -0.765334483689169      -0.757622054506730     
 -0.749909625324292      -0.742197196141853      -0.734484766959414     
 -0.726772337776976      -0.719059908594537      -0.711347479412098     
 -0.703635050229660      -0.695922621047221      -0.688210191864782     
 -0.818066521844115      -0.810354092661676      -0.802641663479237     
 -0.794929234296799      -0.787216805114360      -0.779504375931922     
 -0.771791946749483      -0.764079517567044      -0.756367088384605     
 -0.748654659202167      -0.740942230019728      -0.868685829609387     
 -0.860973400426948      -0.853260971244510      -0.845548542062071     
 -0.837836112879633      -0.830123683697194      -0.822411254514755     
 -0.814698825332317      -0.806986396149878      -0.799273966967439     
 -0.791561537785001      -0.916394110263019      -0.908681681080581     
 -0.900969251898142      -0.893256822715703      -0.885544393533265     
 -0.877831964350826      -0.870119535168387      -0.862407105985948     
 -0.854694676803510      -0.846982247621071      -0.839269818438632     
 -0.960438975719557      -0.952726546537119      -0.945014117354680     
 -0.937301688172242      -0.929589258989803      -0.921876829807364     
 -0.914164400624925      -0.906451971442487      -0.898739542260048     
 -0.891027113077609      -0.883314683895171       -1.00012581213963     
 -0.992413382957187      -0.984700953774748      -0.976988524592310     
 -0.969276095409871      -0.961563666227432      -0.953851237044994     
 -0.946138807862555      -0.938426378680116      -0.930713949497678     
 -0.923001520315239       -1.03482873440511       -1.02711630522267     
  -1.01940387604023       -1.01169144685780       -1.00397901767536     
 -0.996266588492918      -0.988554159310480      -0.980841730128041     
 -0.973129300945602      -0.965416871763163      -0.957704442580725     
  -1.06400045670137       -1.05628802751893       -1.04857559833649     
  -1.04086316915405       -1.03315073997161       -1.02543831078917     
  -1.01772588160674       -1.01001345242430       -1.00230102324186     
 -0.994588594059420      -0.986876164876981       -1.08718092354144     
  -1.07946849435900       -1.07175606517656       -1.06404363599412     
  -1.05633120681169       -1.04861877762925       -1.04090634844681     
  -1.03319391926437       -1.02548149008193       -1.01776906089949     
  -1.01005663171705       -1.10400456511592       -1.09629213593348     
  -1.08857970675104       -1.08086727756861       -1.07315484838617     
  -1.06544241920373       -1.05772999002129       -1.05001756083885     
  -1.04230513165641       -1.03459270247397       -1.02688027329154     
  -1.11420606254723       -1.10649363336479       -1.09878120418235     
  -1.09106877499991       -1.08335634581747       -1.07564391663503     
  -1.06793148745259       -1.06021905827016       -1.05250662908772     
  -1.04479419990528       -1.03708177072284       -1.11762453212678     
  -1.10991210294434       -1.10219967376191       -1.09448724457947     
  -1.08677481539703       -1.07906238621459       -1.07134995703215     
  -1.06363752784971       -1.05592509866727       -1.04821266948483     
  -1.04050024030240     
 -9.076407176129209E-002 -7.380135820104644E-002 -5.683864464080089E-002
 -3.987593108055525E-002 -2.291321752030964E-002 -5.950503960064055E-003
  1.101220960018159E-002  2.797492316042724E-002  4.493763672067283E-002
  6.190035028091843E-002  7.886306384116405E-002 -8.920979776786464E-002
 -7.224708420761902E-002 -5.528437064737348E-002 -3.832165708712783E-002
 -2.135894352688220E-002 -4.396229966636600E-003  1.256648359360906E-002
  2.952919715385465E-002  4.649191071410026E-002  6.345462427434588E-002
  8.041733783459151E-002 -8.457148761693711E-002 -6.760877405669165E-002
 -5.064606049644588E-002 -3.368334693620033E-002 -1.672063337595470E-002
  2.420801842909338E-004  1.720479374453655E-002  3.416750730478219E-002
  5.113022086502782E-002  6.809293442527345E-002  8.505564798551903E-002
 -7.692229023038158E-002 -5.995957667013604E-002 -4.299686310989033E-002
 -2.603414954964476E-002 -9.071435989399156E-003  7.891277570846476E-003
  2.485399113109206E-002  4.181670469133766E-002  5.877941825158332E-002
  7.574213181182893E-002  9.270484537207456E-002 -6.638283802039337E-002
 -4.942012446014771E-002 -3.245741089990205E-002 -1.549469733965647E-002
  1.468016220589194E-003  1.843072978083479E-002  3.539344334108046E-002
  5.235615690132598E-002  6.931887046157159E-002  8.628158402181718E-002
  0.103244297582063      -5.311934444428724E-002 -3.615663088404161E-002
 -1.919391732379597E-002 -2.231203763550374E-003  1.473150979669518E-002
  3.169422335694094E-002  4.865693691718647E-002  6.561965047743210E-002
  8.258236403767770E-002  9.954507759792328E-002  0.116507791158169     
 -3.734098271898549E-002 -2.037826915873998E-002 -3.415555598494368E-003
  1.354715796175132E-002  3.050987152199689E-002  4.747258508224252E-002
  6.443529864248811E-002  8.139801220273364E-002  9.836072576297923E-002
  0.115323439323225       0.132286152883471      -1.929658703443281E-002
 -2.333873474187139E-003  1.462884008605861E-002  3.159155364630413E-002
  4.855426720654975E-002  6.551698076679532E-002  8.247969432704096E-002
  9.944240788728659E-002  0.116405121447532       0.133367835007778     
  0.150330548568023       7.292717102262694E-004  1.769198527047195E-002
  3.465469883071753E-002  5.161741239096312E-002  6.858012595120883E-002
  8.554283951145440E-002  0.102505553071700       0.119468266631946     
  0.136430980192191       0.153393693752437       0.170356407312683     
  2.242077375972018E-002  3.938348731996589E-002  5.634620088021135E-002
  7.330891444045708E-002  9.027162800070276E-002  0.107234341560948     
  0.124197055121194       0.141159768681440       0.158122482241685     
  0.175085195801931       0.192047909362176       4.543583116885324E-002
  6.239854472909881E-002  7.936125828934448E-002  9.632397184958987E-002
  0.113286685409836       0.130249398970081       0.147212112530327     
  0.164174826090572       0.181137539650818       0.198100253211064     
  0.215062966771309       6.941148273375415E-002  8.637419629400006E-002
  0.103336909854246       0.120299623414491       0.137262336974737     
  0.154225050534982       0.171187764095228       0.188150477655474     
  0.205113191215719       0.222075904775965       0.239038618336210     
  9.396961810688494E-002  0.110932331667131       0.127895045227376     
  0.144857758787622       0.161820472347868       0.178783185908113     
  0.195745899468359       0.212708613028604       0.229671326588850     
  0.246634040149096       0.263596753709341       0.118722940823092     
  0.135685654383338       0.152648367943583       0.169611081503829     
  0.186573795064075       0.203536508624320       0.220499222184566     
  0.237461935744812       0.254424649305057       0.271387362865303     
  0.288350076425549       0.143281076196223       0.160243789756469     
  0.177206503316714       0.194169216876960       0.211131930437206     
  0.228094643997451       0.245057357557697       0.262020071117942     
  0.278982784678188       0.295945498238434       0.312908211798679     
  0.167256727761124       0.184219441321370       0.201182154881615     
  0.218144868441861       0.235107582002107       0.252070295562352     
  0.269033009122598       0.285995722682843       0.302958436243089     
  0.319921149803335       0.336883863363580       0.190271785170257     
  0.207234498730503       0.224197212290748       0.241159925850994     
  0.258122639411240       0.275085352971486       0.292048066531731     
  0.309010780091976       0.325973493652222       0.342936207212468     
  0.359898920772713       0.211963287219751       0.228926000779997     
  0.245888714340242       0.262851427900488       0.279814141460734     
  0.296776855020979       0.313739568581225       0.330702282141470     
  0.347664995701716       0.364627709261962       0.381590422822207     
  0.231989145964410       0.248951859524656       0.265914573084901     
  0.282877286645147       0.299840000205393       0.316802713765638     
  0.333765427325883       0.350728140886129       0.367690854446375     
  0.384653568006621       0.401616281566866       0.250033541648963     
  0.266996255209209       0.283958968769454       0.300921682329700     
  0.317884395889945       0.334847109450191       0.351809823010437     
  0.368772536570682       0.385735250130928       0.402697963691174     
  0.419660677251419       0.265811903374265       0.282774616934510     
  0.299737330494756       0.316700044055001       0.333662757615247     
  0.350625471175493       0.367588184735738       0.384550898295984     
  0.401513611856230       0.418476325416475       0.435439038976721     
  0.279075396950371       0.296038110510616       0.313000824070862     
  0.329963537631107       0.346926251191353       0.363888964751599     
  0.380851678311844       0.397814391872090       0.414777105432335     
  0.431739818992581       0.448702532552827       0.289614849160359     
  0.306577562720604       0.323540276280851       0.340502989841096     
  0.357465703401341       0.374428416961587       0.391391130521832     
  0.408353844082078       0.425316557642324       0.442279271202569     
  0.459241984762815       0.297264046546915       0.314226760107160     
  0.331189473667406       0.348152187227651       0.365114900787897     
  0.382077614348143       0.399040327908388       0.416003041468634     
  0.432965755028879       0.449928468589125       0.466891182149371     
  0.301902356697842       0.318865070258088       0.335827783818333     
  0.352790497378579       0.369753210938824       0.386715924499070     
  0.403678638059316       0.420641351619561       0.437604065179807     
  0.454566778740052       0.471529492300298       0.303456630691269     
  0.320419344251515       0.337382057811761       0.354344771372006     
  0.371307484932252       0.388270198492497       0.405232912052743     
  0.422195625612989       0.439158339173234       0.456121052733480     
  0.473083766293726     
  3.960717710078315E-002  3.564645939070483E-002  3.168574168062652E-002
  2.772502397054821E-002  2.376430626046989E-002  1.980358855039158E-002
  1.584287084031326E-002  1.188215313023495E-002  7.921435420156629E-003
  3.960717710078312E-003  0.000000000000000E+000  3.960717710078315E-002
  3.564645939070483E-002  3.168574168062652E-002  2.772502397054821E-002
  2.376430626046989E-002  1.980358855039158E-002  1.584287084031326E-002
  1.188215313023495E-002  7.921435420156629E-003  3.960717710078312E-003
  0.000000000000000E+000  3.960717710078315E-002  3.564645939070483E-002
  3.168574168062652E-002  2.772502397054821E-002  2.376430626046989E-002
  1.980358855039158E-002  1.584287084031326E-002  1.188215313023495E-002
  7.921435420156629E-003  3.960717710078312E-003  0.000000000000000E+000
  3.960717710078315E-002  3.564645939070483E-002  3.168574168062652E-002
  2.772502397054821E-002  2.376430626046989E-002  1.980358855039158E-002
  1.584287084031326E-002  1.188215313023495E-002  7.921435420156629E-003
  3.960717710078312E-003  0.000000000000000E+000  3.960717710078315E-002
  3.564645939070483E-002  3.168574168062652E-002  2.772502397054821E-002
  2.376430626046989E-002  1.980358855039158E-002  1.584287084031326E-002
  1.188215313023495E-002  7.921435420156629E-003  3.960717710078312E-003
  0.000000000000000E+000  3.960717710078315E-002  3.564645939070483E-002
  3.168574168062652E-002  2.772502397054821E-002  2.376430626046989E-002
  1.980358855039158E-002  1.584287084031326E-002  1.188215313023495E-002
  7.921435420156629E-003  3.960717710078312E-003  0.000000000000000E+000
  3.960717710078315E-002  3.564645939070483E-002  3.168574168062652E-002
  2.772502397054821E-002  2.376430626046989E-002  1.980358855039158E-002
  1.584287084031326E-002  1.188215313023495E-002  7.921435420156629E-003
  3.960717710078312E-003  0.000000000000000E+000  3.960717710078315E-002
  3.564645939070483E-002  3.168574168062652E-002  2.772502397054821E-002
  2.376430626046989E-002  1.980358855039158E-002  1.584287084031326E-002
  1.188215313023495E-002  7.921435420156629E-003  3.960717710078312E-003
  0.000000000000000E+000  3.960717710078315E-002  3.564645939070483E-002
  3.168574168062652E-002  2.772502397054821E-002  2.376430626046989E-002
  1.980358855039158E-002  1.584287084031326E-002  1.188215313023495E-002
  7.921435420156629E-003  3.960717710078312E-003  0.000000000000000E+000
  3.960717710078315E-002  3.564645939070483E-002  3.168574168062652E-002
  2.772502397054821E-002  2.376430626046989E-002  1.980358855039158E-002
  1.584287084031326E-002  1.188215313023495E-002  7.921435420156629E-003
  3.960717710078312E-003  0.000000000000000E+000  3.960717710078315E-002
  3.564645939070483E-002  3.168574168062652E-002  2.772502397054821E-002
  2.376430626046989E-002  1.980358855039158E-002  1.584287084031326E-002
  1.188215313023495E-002  7.921435420156629E-003  3.960717710078312E-003
  0.000000000000000E+000  3.960717710078315E-002  3.564645939070483E-002
  3.168574168062652E-002  2.772502397054821E-002  2.376430626046989E-002
  1.980358855039158E-002  1.584287084031326E-002  1.188215313023495E-002
  7.921435420156629E-003  3.960717710078312E-003  0.000000000000000E+000
  3.960717710078315E-002  3.564645939070483E-002  3.168574168062652E-002
  2.772502397054821E-002  2.376430626046989E-002  1.980358855039158E-002
  1.584287084031326E-002  1.188215313023495E-002  7.921435420156629E-003
  3.960717710078312E-003  0.000000000000000E+000  3.960717710078315E-002
  3.564645939070483E-002  3.168574168062652E-002  2.772502397054821E-002
  2.376430626046989E-002  1.980358855039158E-002  1.584287084031326E-002
  1.188215313023495E-002  7.921435420156629E-003  3.960717710078312E-003
  0.000000000000000E+000  3.960717710078315E-002  3.564645939070483E-002
  3.168574168062652E-002  2.772502397054821E-002  2.376430626046989E-002
  1.980358855039158E-002  1.584287084031326E-002  1.188215313023495E-002
  7.921435420156629E-003  3.960717710078312E-003  0.000000000000000E+000
  3.960717710078315E-002  3.564645939070483E-002  3.168574168062652E-002
  2.772502397054821E-002  2.376430626046989E-002  1.980358855039158E-002
  1.584287084031326E-002  1.188215313023495E-002  7.921435420156629E-003
  3.960717710078312E-003  0.000000000000000E+000  3.960717710078315E-002
  3.564645939070483E-002  3.168574168062652E-002  2.772502397054821E-002
  2.376430626046989E-002  1.980358855039158E-002  1.584287084031326E-002
  1.188215313023495E-002  7.921435420156629E-003  3.960717710078312E-003
  0.000000000000000E+000  3.960717710078315E-002  3.564645939070483E-002
  3.168574168062652E-002  2.772502397054821E-002  2.376430626046989E-002
  1.980358855039158E-002  1.584287084031326E-002  1.188215313023495E-002
  7.921435420156629E-003  3.960717710078312E-003  0.000000000000000E+000
  3.960717710078315E-002  3.564645939070483E-002  3.168574168062652E-002
  2.772502397054821E-002  2.376430626046989E-002  1.980358855039158E-002
  1.584287084031326E-002  1.188215313023495E-002  7.921435420156629E-003
  3.960717710078312E-003  0.000000000000000E+000  3.960717710078315E-002
  3.564645939070483E-002  3.168574168062652E-002  2.772502397054821E-002
  2.376430626046989E-002  1.980358855039158E-002  1.584287084031326E-002
  1.188215313023495E-002  7.921435420156629E-003  3.960717710078312E-003
  0.000000000000000E+000  3.960717710078315E-002  3.564645939070483E-002
  3.168574168062652E-002  2.772502397054821E-002  2.376430626046989E-002
  1.980358855039158E-002  1.584287084031326E-002  1.188215313023495E-002
  7.921435420156629E-003  3.960717710078312E-003  0.000000000000000E+000
  3.960717710078315E-002  3.564645939070483E-002  3.168574168062652E-002
  2.772502397054821E-002  2.376430626046989E-002  1.980358855039158E-002
  1.584287084031326E-002  1.188215313023495E-002  7.921435420156629E-003
  3.960717710078312E-003  0.000000000000000E+000  3.960717710078315E-002
  3.564645939070483E-002  3.168574168062652E-002  2.772502397054821E-002
  2.376430626046989E-002  1.980358855039158E-002  1.584287084031326E-002
  1.188215313023495E-002  7.921435420156629E-003  3.960717710078312E-003
  0.000000000000000E+000  3.960717710078315E-002  3.564645939070483E-002
  3.168574168062652E-002  2.772502397054821E-002  2.376430626046989E-002
  1.980358855039158E-002  1.584287084031326E-002  1.188215313023495E-002
  7.921435420156629E-003  3.960717710078312E-003  0.000000000000000E+000
  3.960717710078315E-002  3.564645939070483E-002  3.168574168062652E-002
  2.772502397054821E-002  2.376430626046989E-002  1.980358855039158E-002
  1.584287084031326E-002  1.188215313023495E-002  7.921435420156629E-003
  3.960717710078312E-003  0.000000000000000E+000  3.960717710078315E-002
  3.564645939070483E-002  3.168574168062652E-002  2.772502397054821E-002
  2.376430626046989E-002  1.980358855039158E-002  1.584287084031326E-002
  1.188215313023495E-002  7.921435420156629E-003  3.960717710078312E-003
  0.000000000000000E+000
  0.117258632962515       0.158431433514138       0.184865107944104     
  0.204115079346795       0.218725183772936       0.229848210636837     
  0.238063611704192       0.243641819405811       0.246627446142273     
  0.246729993625726       0.196889306913365       0.270613158165874     
  0.317477236064717       0.351420872215586       0.377099310917232     
  0.396611474913425       0.411024183371563       0.420884703940770     
  0.426469965315326       0.428262804902787       0.271674023802929     
  0.383553954317476       0.455029170880032       0.506544633497410     
  0.545338507246990       0.574732342795469       0.596459781986525     
  0.611488874818789       0.620411984298996       0.623657356751200     
  0.342091587783144       0.491508815074339       0.589265283499256     
  0.660165782104116       0.713580461961155       0.754004601288093     
  0.783820920836113       0.804265144036879       0.815727895177292     
  0.817716876756751       0.412597998003851       0.598192198987009     
  0.722159060769853       0.813121496480131       0.882035927111213     
  0.934280112076575       0.972721703387272       0.998771504940987     
   1.01272122469078        1.01392931374015       0.485649386790726     
  0.707271278341049       0.857193580083085       0.968262316401247     
   1.05295356780893        1.11738983711716        1.16483945305894     
   1.19690360989104        1.21391547831009        1.21522832621291     
  0.562407502018834       0.820894091983939       0.996984964904627     
   1.12825493153428        1.22886934484690        1.30574357250252     
   1.36256326224358        1.40114138209387        1.42186940779969     
   1.42401892016258       0.643217703068982       0.939906273977808     
   1.14279537104716        1.29462361409364        1.41143865099095     
   1.50104744547923        1.56760401936754        1.61315365709360     
   1.63813281087631        1.64164870312947       0.727774596440326     
   1.06407332298679        1.29453748654494        1.46741637279608     
   1.60079701657003        1.70346545528372        1.78009308093302     
   1.83297810795228        1.86259426706482        1.86783150303155     
  0.815166556092901        1.19217420666750        1.45083843044173     
   1.64516806486066        1.79540110459851        1.91136598021985     
   1.99828874275017        2.05873901464386        2.09322855057532     
   2.10040397052303       0.903906680224230        1.32207478936813     
   1.60913947548079        1.82500285275562        1.99211702847119     
   2.12139085330112        2.21862959464524        2.28668949685973     
   2.32612756400523        2.33534278201862       0.991978156421270     
   1.45081376511512        1.76581781272446        2.00278297397694     
   2.18638590588552        2.32862820690524        2.43590649149715     
   2.51137555685629        2.55565066809687        2.56689840824626     
   1.07688563062139        1.57468788904153        1.91630030930552     
   2.17324544477509        2.37237700441253        2.52677498666522     
   2.64342729488507        2.72579639338295        2.77457506447288     
   2.78773251594880        1.15570056905102        1.68931983835196     
   2.05514739359697        2.33009751015044        2.54309064816889     
   2.70824322107763        2.83312249026887        2.92150567472668     
   2.97418975948834        2.98900315860847        1.22509674701789     
   1.78970415095821        2.17610243551441        2.46606601696311     
   2.69040562224808        2.86420422889193        2.99558539208130     
   3.08864718713280        3.14432637065552        3.16039111326756     
   1.28138101655288        1.87023894190335        2.27211672276044     
   2.57291363150973        2.80508756124747        2.98459158572888     
   3.12007248721385        3.21595501726270        3.27336071647559     
   3.29010355126078        1.32052996017801        1.92475787530383     
   2.33536863169983        2.64144680582922        2.87679231168447     
   3.05810853159475        3.19452301036780        3.29079086615153     
   3.34826945080548        3.36494642339725        1.33824207845563     
   1.94657370461626        2.35729379027315        2.66154551227387     
   2.89411564570128        3.07231862259470        3.20570690198645     
   3.29935720426715        3.35490502030102        3.37064377857190     
   1.33000327335701        1.92852394622256        2.32862477805645     
   2.62224285161143        2.84476553746000        3.01395367641059     
   3.13969286998318        3.22732806019568        3.27876813277849     
   3.29270224710157        1.29113325250938        1.86296351117319     
   2.23941437974836        2.51190844720997        2.71601306792490     
   2.86968830547866        2.98295250603953        3.06125267410111     
   3.10665411580598        3.11820531183855        1.21670959681085     
   1.74157632857000        2.07906588489597        2.31879516315802     
   2.49586467245745        2.62788052977138        2.72453778708829     
   2.79105076024929        2.82940265919392        2.83876522625170     
   1.10108054666285        1.55486457464641        1.83684640337978     
   2.03290633677122        2.17598156483214        2.28203591677961     
   2.35964098343457        2.41340959679779        2.44521509373717     
   2.45426731376707       0.936302117223462        1.29218902690268     
   1.50512779446022        1.65117033021872        1.75733582968388     
   1.83610634717953        1.89410322373620        1.93510172568619     
   1.96138734655910        1.97438966841693       0.710038740977613     
  0.949008278676747        1.09012741053695        1.18713557209437     
   1.25792597471475        1.31065283122987        1.34963999464563     
   1.37735701555722        1.39534210280051        1.40565650980942     
  0.430435103970489       0.564150377968304       0.643837473539066     
  0.698906946958810       0.739220715203458       0.769300235477507     
  0.791535366418414       0.807230902045031       0.816951639883688     
  0.820104359272199     
  0.000000000000000E+000  0.000000000000000E+000  0.000000000000000E+000
  0.000000000000000E+000  0.000000000000000E+000  0.000000000000000E+000
  0.000000000000000E+000  0.000000000000000E+000  0.000000000000000E+000
  0.000000000000000E+000  0.000000000000000E+000  0.000000000000000E+000
  0.000000000000000E+000  0.000000000000000E+000  0.000000000000000E+000
  0.000000000000000E+000  0.000000000000000E+000  0.000000000000000E+000
  0.000000000000000E+000  0.000000000000000E+000  0.000000000000000E+000
  0.000000000000000E+000  0.000000000000000E+000  0.000000000000000E+000
  0.000000000000000E+000  0.000000000000000E+000  0.000000000000000E+000
  0.000000000000000E+000  0.000000000000000E+000  0.000000000000000E+000
  0.000000000000000E+000  0.000000000000000E+000  0.000000000000000E+000
  0.000000000000000E+000  0.000000000000000E+000  0.000000000000000E+000
  0.000000000000000E+000  0.000000000000000E+000  0.000000000000000E+000
  0.000000000000000E+000  0.000000000000000E+000  0.000000000000000E+000
  0.000000000000000E+000  0.000000000000000E+000  0.000000000000000E+000
  0.000000000000000E+000  0.000000000000000E+000  0.000000000000000E+000
  0.000000000000000E+000  0.000000000000000E+000  0.000000000000000E+000
  0.000000000000000E+000  0.000000000000000E+000  0.000000000000000E+000
  0.000000000000000E+000  0.000000000000000E+000  0.000000000000000E+000
  0.000000000000000E+000  0.000000000000000E+000  0.000000000000000E+000
  0.000000000000000E+000  0.000000000000000E+000  0.000000000000000E+000
  0.000000000000000E+000  0.000000000000000E+000  0.000000000000000E+000
  0.000000000000000E+000  0.000000000000000E+000  0.000000000000000E+000
  0.000000000000000E+000  0.000000000000000E+000  0.000000000000000E+000
  0.000000000000000E+000  0.000000000000000E+000  0.000000000000000E+000
  0.000000000000000E+000  0.000000000000000E+000  0.000000000000000E+000
  0.000000000000000E+000  0.000000000000000E+000  0.000000000000000E+000
  0.000000000000000E+000  0.000000000000000E+000  0.000000000000000E+000
  0.000000000000000E+000  0.000000000000000E+000  0.000000000000000E+000
  0.000000000000000E+000  0.000000000000000E+000  0.000000000000000E+000
  0.000000000000000E+000  0.000000000000000E+000  0.000000000000000E+000
  0.000000000000000E+000  0.000000000000000E+000  0.000000000000000E+000
  0.000000000000000E+000  0.000000000000000E+000  0.000000000000000E+000
  0.000000000000000E+000  0.000000000000000E+000  0.000000000000000E+000
  0.000000000000000E+000  0.000000000000000E+000  0.000000000000000E+000
  0.000000000000000E+000  0.000000000000000E+000  0.000000000000000E+000
  0.000000000000000E+000  0.000000000000000E+000  0.000000000000000E+000
  0.000000000000000E+000  0.000000000000000E+000  0.000000000000000E+000
  0.000000000000000E+000  0.000000000000000E+000  0.000000000000000E+000