 Title = "Wing and Wake"
 VARIABLES = "X" "Y" "Z" "GAM" "skew"
 Zone I=   11 J=   26 K=1  T="Blade"
 DATAPACKING=BLOCK
 VARLOCATION=([4]=CELLCENTERED,[5]=CELLCENTERED)
 -0.259375481947120      -0.243634428584957      -0.227893375222792     
 -0.212152321860628      -0.196411268498464      -0.180670215136300     
 -0.164929161774135      -0.149188108411971      -0.133447055049807     
 -0.117706001687643      -0.101964948325479      -0.261385059811641     
 -0.245644006449477      -0.229902953087312      -0.214161899725149     
 -0.198420846362984      -0.182679793000820      -0.166938739638656     
 -0.151197686276492      -0.135456632914328      -0.119715579552164     
 -0.103974526189999      -0.267382101161815      -0.251641047799651     
 -0.235899994437486      -0.220158941075322      -0.204417887713158     
 -0.188676834350994      -0.172935780988830      -0.157194727626666     
 -0.141453674264502      -0.125712620902337      -0.109971567540173     
 -0.277272029073092      -0.261530975710927      -0.245789922348763     
 -0.230048868986599      -0.214307815624435      -0.198566762262271     
 -0.182825708900107      -0.167084655537943      -0.151343602175778     
 -0.135602548813614      -0.119861495451450      -0.290898873474353     
 -0.275157820112189      -0.259416766750025      -0.243675713387861     
 -0.227934660025696      -0.212193606663533      -0.196452553301368     
 -0.180711499939204      -0.164970446577040      -0.149229393214876     
 -0.133488339852712      -0.308047730889110      -0.292306677526946     
 -0.276565624164781      -0.260824570802617      -0.245083517440454     
 -0.229342464078289      -0.213601410716125      -0.197860357353961     
 -0.182119303991797      -0.166378250629632      -0.150637197267468     
 -0.328448153591699      -0.312707100229536      -0.296966046867372     
 -0.281224993505208      -0.265483940143043      -0.249742886780880     
 -0.234001833418715      -0.218260780056551      -0.202519726694387     
 -0.186778673332222      -0.171037619970058      -0.351778414729482     
 -0.336037361367317      -0.320296308005154      -0.304555254642990     
 -0.288814201280825      -0.273073147918661      -0.257332094556497     
 -0.241591041194333      -0.225849987832169      -0.210108934470005     
 -0.194367881107841      -0.377670582147490      -0.361929528785326     
 -0.346188475423162      -0.330447422060998      -0.314706368698835     
 -0.298965315336670      -0.283224261974505      -0.267483208612341     
 -0.251742155250177      -0.236001101888013      -0.220260048525849     
 -0.405716320898312      -0.389975267536148      -0.374234214173984     
 -0.358493160811820      -0.342752107449656      -0.327011054087492     
 -0.311270000725327      -0.295528947363163      -0.279787894000999     
 -0.264046840638835      -0.248305787276671      -0.435473332928135     
 -0.419732279565971      -0.403991226203806      -0.388250172841643     
 -0.372509119479478      -0.356768066117315      -0.341027012755150     
 -0.325285959392985      -0.309544906030822      -0.293803852668657     
 -0.278062799306493      -0.466472332381270      -0.450731279019106     
 -0.434990225656942      -0.419249172294777      -0.403508118932613     
 -0.387767065570450      -0.372026012208286      -0.356284958846121     
 -0.340543905483957      -0.324802852121793      -0.309061798759629     
 -0.498224446518438      -0.482483393156274      -0.466742339794109     
 -0.451001286431946      -0.435260233069782      -0.419519179707617     
 -0.403778126345453      -0.388037072983289      -0.372296019621125     
 -0.356554966258960      -0.340813912896796      -0.530228925531903     
 -0.514487872169737      -0.498746818807573      -0.483005765445409     
 -0.467264712083245      -0.451523658721081      -0.435782605358916     
 -0.420041551996753      -0.404300498634589      -0.388559445272424     
 -0.372818391910260      -0.561981039669069      -0.546239986306906     
 -0.530498932944742      -0.514757879582577      -0.499016826220412     
 -0.483275772858250      -0.467534719496084      -0.451793666133919     
 -0.436052612771755      -0.420311559409591      -0.404570506047429     
 -0.592980039122205      -0.577238985760040      -0.561497932397876     
 -0.545756879035713      -0.530015825673549      -0.514274772311384     
 -0.498533718949220      -0.482792665587056      -0.467051612224892     
 -0.451310558862727      -0.435569505500564      -0.622737051152028     
 -0.606995997789863      -0.591254944427699      -0.575513891065536     
 -0.559772837703370      -0.544031784341207      -0.528290730979042     
 -0.512549677616879      -0.496808624254714      -0.481067570892550     
 -0.465326517530387      -0.650782789902849      -0.635041736540684     
 -0.619300683178520      -0.603559629816357      -0.587818576454193     
 -0.572077523092029      -0.556336469729864      -0.540595416367700     
 -0.524854363005535      -0.509113309643371      -0.493372256281208     
 -0.676674957320856      -0.660933903958692      -0.645192850596529     
 -0.629451797234365      -0.613710743872201      -0.597969690510037     
 -0.582228637147872      -0.566487583785709      -0.550746530423545     
 -0.535005477061380      -0.519264423699216      -0.700005218458639     
 -0.684264165096475      -0.668523111734311      -0.652782058372147     
 -0.637041005009984      -0.621299951647817      -0.605558898285655     
 -0.589817844923491      -0.574076791561326      -0.558335738199162     
 -0.542594684836998      -0.720405641161229      -0.704664587799066     
 -0.688923534436900      -0.673182481074736      -0.657441427712573     
 -0.641700374350408      -0.625959320988244      -0.610218267626080     
 -0.594477214263917      -0.578736160901751      -0.562995107539587     
 -0.737554498575986      -0.721813445213823      -0.706072391851657     
 -0.690331338489493      -0.674590285127331      -0.658849231765166     
 -0.643108178403000      -0.627367125040837      -0.611626071678674     
 -0.595885018316508      -0.580143964954344      -0.751181342977247     
 -0.735440289615083      -0.719699236252919      -0.703958182890755     
 -0.688217129528591      -0.672476076166427      -0.656735022804264     
 -0.640993969442100      -0.625252916079935      -0.609511862717771     
 -0.593770809355605      -0.761071270888525      -0.745330217526361     
 -0.729589164164196      -0.713848110802032      -0.698107057439869     
 -0.682366004077703      -0.666624950715540      -0.650883897353374     
 -0.635142843991210      -0.619401790629045      -0.603660737266882     
 -0.767068312238697      -0.751327258876535      -0.735586205514371     
 -0.719845152152205      -0.704104098790041      -0.688363045427876     
 -0.672621992065712      -0.656880938703548      -0.641139885341386     
 -0.625398831979220      -0.609657778617057      -0.769077890103218     
 -0.753336836741053      -0.737595783378891      -0.721854730016726     
 -0.706113676654562      -0.690372623292399      -0.674631569930235     
 -0.658890516568069      -0.643149463205906      -0.627408409843741     
 -0.611667356481578     
  6.124253781821263E-002  7.121422043804009E-002  8.118590305786753E-002
  9.115758567769502E-002  0.101129268297523       0.111100950917350     
  0.121072633537177       0.131044316157005       0.141015998776832     
  0.150987681396659       0.160959364016487       6.441480809664527E-002
  7.438649071647280E-002  8.435817333629998E-002  9.432985595612765E-002
  0.104301538575955       0.114273221195782       0.124244903815610     
  0.134216586435437       0.144188269055265       0.154159951675092     
  0.164131634294920       7.388159033462900E-002  8.385327295445634E-002
  9.382495557428377E-002  0.103796638194111       0.113768320813938     
  0.123740003433766       0.133711686053594       0.143683368673421     
  0.153655051293248       0.163626733913076       0.173598416532903     
  8.949358772108983E-002  9.946527034091754E-002  0.109436952960745     
  0.119408635580572       0.129380318200400       0.139352000820227     
  0.149323683440054       0.159295366059882       0.169267048679709     
  0.179238731299537       0.189210413919364       0.111004589731088     
  0.120976272350915       0.130947954970743       0.140919637590570     
  0.150891320210397       0.160863002830225       0.170834685450053     
  0.180806368069880       0.190778050689707       0.200749733309534     
  0.210721415929362       0.138075355012875       0.148047037632703     
  0.158018720252530       0.167990402872358       0.177962085492185     
  0.187933768112013       0.197905450731840       0.207877133351668     
  0.217848815971495       0.227820498591322       0.237792181211150     
  0.170278961426668       0.180250644046495       0.190222326666323     
  0.200194009286150       0.210165691905977       0.220137374525806     
  0.230109057145632       0.240080739765459       0.250052422385287     
  0.260024105005114       0.269995787624941       0.207107538861818     
  0.217079221481645       0.227050904101473       0.237022586721300     
  0.246994269341127       0.256965951960954       0.266937634580782     
  0.276909317200609       0.286880999820437       0.296852682440264     
  0.306824365060092       0.247980278651846       0.257951961271675     
  0.267923643891501       0.277895326511329       0.287867009131156     
  0.297838691750983       0.307810374370810       0.317782056990638     
  0.327753739610466       0.337725422230293       0.347697104850120     
  0.292252593274074       0.302224275893901       0.312195958513729     
  0.322167641133557       0.332139323753384       0.342111006373211     
  0.352082688993038       0.362054371612867       0.372026054232693     
  0.381997736852520       0.391969419472348       0.339226281879910     
  0.349197964499738       0.359169647119565       0.369141329739392     
  0.379113012359220       0.389084694979048       0.399056377598873     
  0.409028060218702       0.418999742838529       0.428971425458356     
  0.438943108078184       0.388160541339318       0.398132223959145     
  0.408103906578974       0.418075589198799       0.428047271818627     
  0.438018954438455       0.447990637058283       0.457962319678110     
  0.467934002297937       0.477905684917764       0.487877367537591     
  0.438283649148714       0.448255331768542       0.458227014388368     
  0.468198697008196       0.478170379628023       0.488142062247850     
  0.498113744867679       0.508085427487506       0.518057110107333     
  0.528028792727160       0.538000475346987       0.488805133955851     
  0.498776816575677       0.508748499195503       0.518720181815332     
  0.528691864435160       0.538663547054987       0.548635229674815     
  0.558606912294640       0.568578594914470       0.578550277534297     
  0.588521960154124       0.538928241765245       0.548899924385072     
  0.558871607004901       0.568843289624727       0.578814972244554     
  0.588786654864383       0.598758337484209       0.608730020104038     
  0.618701702723863       0.628673385343690       0.638645067963520     
  0.587862501224654       0.597834183844481       0.607805866464309     
  0.617777549084135       0.627749231703963       0.637720914323791     
  0.647692596943617       0.657664279563445       0.667635962183272     
  0.677607644803098       0.687579327422928       0.634836189830489     
  0.644807872450316       0.654779555070143       0.664751237689971     
  0.674722920309798       0.684694602929626       0.694666285549454     
  0.704637968169282       0.714609650789108       0.724581333408936     
  0.734553016028764       0.679108504452717       0.689080187072544     
  0.699051869692372       0.709023552312199       0.718995234932026     
  0.728966917551855       0.738938600171682       0.748910282791509     
  0.758881965411336       0.768853648031163       0.778825330650990     
  0.719981244242745       0.729952926862572       0.739924609482401     
  0.749896292102227       0.759867974722055       0.769839657341883     
  0.779811339961709       0.789783022581537       0.799754705201366     
  0.809726387821193       0.819698070441019       0.756809821677895     
  0.766781504297723       0.776753186917549       0.786724869537379     
  0.796696552157204       0.806668234777032       0.816639917396859     
  0.826611600016688       0.836583282636515       0.846554965256342     
  0.856526647876168       0.789013428091689       0.798985110711516     
  0.808956793331341       0.818928475951169       0.828900158570997     
  0.838871841190824       0.848843523810653       0.858815206430479     
  0.868786889050307       0.878758571670134       0.888730254289960     
  0.816084193373474       0.826055875993302       0.836027558613130     
  0.845999241232957       0.855970923852784       0.865942606472613     
  0.875914289092439       0.885885971712267       0.895857654332094     
  0.905829336951923       0.915801019571751       0.837595195383474     
  0.847566878003300       0.857538560623127       0.867510243242955     
  0.877481925862783       0.887453608482610       0.897425291102438     
  0.907396973722267       0.917368656342093       0.927340338961920     
  0.937312021581747       0.853207192769934       0.863178875389760     
  0.873150558009588       0.883122240629416       0.893093923249245     
  0.903065605869071       0.913037288488900       0.923008971108726     
  0.932980653728551       0.942952336348381       0.952924018968208     
  0.862673975007917       0.872645657627744       0.882617340247572     
  0.892589022867398       0.902560705487227       0.912532388107055     
  0.922504070726882       0.932475753346709       0.942447435966538     
  0.952419118586364       0.962390801206190       0.865846245286348     
  0.875817927906178       0.885789610526004       0.895761293145833     
  0.905732975765660       0.915704658385488       0.925676341005316     
  0.935648023625141       0.945619706244970       0.955591388864796     
  0.965563071484627     
  3.960717710078315E-002  3.564645939070483E-002  3.168574168062652E-002
  2.772502397054821E-002  2.376430626046989E-002  1.980358855039158E-002
  1.584287084031326E-002  1.188215313023495E-002  7.921435420156629E-003
  3.960717710078312E-003  0.000000000000000E+000  3.960717710078315E-002
  3.564645939070483E-002  3.168574168062652E-002  2.772502397054821E-002
  2.376430626046989E-002  1.980358855039158E-002  1.584287084031326E-002
  1.188215313023495E-002  7.921435420156629E-003  3.960717710078312E-003
  0.000000000000000E+000  3.960717710078315E-002  3.564645939070483E-002
  3.168574168062652E-002  2.772502397054821E-002  2.376430626046989E-002
  1.980358855039158E-002  1.584287084031326E-002  1.188215313023495E-002
  7.921435420156629E-003  3.960717710078312E-003  0.000000000000000E+000
  3.960717710078315E-002  3.564645939070483E-002  3.168574168062652E-002
  2.772502397054821E-002  2.376430626046989E-002  1.980358855039158E-002
  1.584287084031326E-002  1.188215313023495E-002  7.921435420156629E-003
  3.960717710078312E-003  0.000000000000000E+000  3.960717710078315E-002
  3.564645939070483E-002  3.168574168062652E-002  2.772502397054821E-002
  2.376430626046989E-002  1.980358855039158E-002  1.584287084031326E-002
  1.188215313023495E-002  7.921435420156629E-003  3.960717710078312E-003
  0.000000000000000E+000  3.960717710078315E-002  3.564645939070483E-002
  3.168574168062652E-002  2.772502397054821E-002  2.376430626046989E-002
  1.980358855039158E-002  1.584287084031326E-002  1.188215313023495E-002
  7.921435420156629E-003  3.960717710078312E-003  0.000000000000000E+000
  3.960717710078315E-002  3.564645939070483E-002  3.168574168062652E-002
  2.772502397054821E-002  2.376430626046989E-002  1.980358855039158E-002
  1.584287084031326E-002  1.188215313023495E-002  7.921435420156629E-003
  3.960717710078312E-003  0.000000000000000E+000  3.960717710078315E-002
  3.564645939070483E-002  3.168574168062652E-002  2.772502397054821E-002
  2.376430626046989E-002  1.980358855039158E-002  1.584287084031326E-002
  1.188215313023495E-002  7.921435420156629E-003  3.960717710078312E-003
  0.000000000000000E+000  3.960717710078315E-002  3.564645939070483E-002
  3.168574168062652E-002  2.772502397054821E-002  2.376430626046989E-002
  1.980358855039158E-002  1.584287084031326E-002  1.188215313023495E-002
  7.921435420156629E-003  3.960717710078312E-003  0.000000000000000E+000
  3.960717710078315E-002  3.564645939070483E-002  3.168574168062652E-002
  2.772502397054821E-002  2.376430626046989E-002  1.980358855039158E-002
  1.584287084031326E-002  1.188215313023495E-002  7.921435420156629E-003
  3.960717710078312E-003  0.000000000000000E+000  3.960717710078315E-002
  3.564645939070483E-002  3.168574168062652E-002  2.772502397054821E-002
  2.376430626046989E-002  1.980358855039158E-002  1.584287084031326E-002
  1.188215313023495E-002  7.921435420156629E-003  3.960717710078312E-003
  0.000000000000000E+000  3.960717710078315E-002  3.564645939070483E-002
  3.168574168062652E-002  2.772502397054821E-002  2.376430626046989E-002
  1.980358855039158E-002  1.584287084031326E-002  1.188215313023495E-002
  7.921435420156629E-003  3.960717710078312E-003  0.000000000000000E+000
  3.960717710078315E-002  3.564645939070483E-002  3.168574168062652E-002
  2.772502397054821E-002  2.376430626046989E-002  1.980358855039158E-002
  1.584287084031326E-002  1.188215313023495E-002  7.921435420156629E-003
  3.960717710078312E-003  0.000000000000000E+000  3.960717710078315E-002
  3.564645939070483E-002  3.168574168062652E-002  2.772502397054821E-002
  2.376430626046989E-002  1.980358855039158E-002  1.584287084031326E-002
  1.188215313023495E-002  7.921435420156629E-003  3.960717710078312E-003
  0.000000000000000E+000  3.960717710078315E-002  3.564645939070483E-002
  3.168574168062652E-002  2.772502397054821E-002  2.376430626046989E-002
  1.980358855039158E-002  1.584287084031326E-002  1.188215313023495E-002
  7.921435420156629E-003  3.960717710078312E-003  0.000000000000000E+000
  3.960717710078315E-002  3.564645939070483E-002  3.168574168062652E-002
  2.772502397054821E-002  2.376430626046989E-002  1.980358855039158E-002
  1.584287084031326E-002  1.188215313023495E-002  7.921435420156629E-003
  3.960717710078312E-003  0.000000000000000E+000  3.960717710078315E-002
  3.564645939070483E-002  3.168574168062652E-002  2.772502397054821E-002
  2.376430626046989E-002  1.980358855039158E-002  1.584287084031326E-002
  1.188215313023495E-002  7.921435420156629E-003  3.960717710078312E-003
  0.000000000000000E+000  3.960717710078315E-002  3.564645939070483E-002
  3.168574168062652E-002  2.772502397054821E-002  2.376430626046989E-002
  1.980358855039158E-002  1.584287084031326E-002  1.188215313023495E-002
  7.921435420156629E-003  3.960717710078312E-003  0.000000000000000E+000
  3.960717710078315E-002  3.564645939070483E-002  3.168574168062652E-002
  2.772502397054821E-002  2.376430626046989E-002  1.980358855039158E-002
  1.584287084031326E-002  1.188215313023495E-002  7.921435420156629E-003
  3.960717710078312E-003  0.000000000000000E+000  3.960717710078315E-002
  3.564645939070483E-002  3.168574168062652E-002  2.772502397054821E-002
  2.376430626046989E-002  1.980358855039158E-002  1.584287084031326E-002
  1.188215313023495E-002  7.921435420156629E-003  3.960717710078312E-003
  0.000000000000000E+000  3.960717710078315E-002  3.564645939070483E-002
  3.168574168062652E-002  2.772502397054821E-002  2.376430626046989E-002
  1.980358855039158E-002  1.584287084031326E-002  1.188215313023495E-002
  7.921435420156629E-003  3.960717710078312E-003  0.000000000000000E+000
  3.960717710078315E-002  3.564645939070483E-002  3.168574168062652E-002
  2.772502397054821E-002  2.376430626046989E-002  1.980358855039158E-002
  1.584287084031326E-002  1.188215313023495E-002  7.921435420156629E-003
  3.960717710078312E-003  0.000000000000000E+000  3.960717710078315E-002
  3.564645939070483E-002  3.168574168062652E-002  2.772502397054821E-002
  2.376430626046989E-002  1.980358855039158E-002  1.584287084031326E-002
  1.188215313023495E-002  7.921435420156629E-003  3.960717710078312E-003
  0.000000000000000E+000  3.960717710078315E-002  3.564645939070483E-002
  3.168574168062652E-002  2.772502397054821E-002  2.376430626046989E-002
  1.980358855039158E-002  1.584287084031326E-002  1.188215313023495E-002
  7.921435420156629E-003  3.960717710078312E-003  0.000000000000000E+000
  3.960717710078315E-002  3.564645939070483E-002  3.168574168062652E-002
  2.772502397054821E-002  2.376430626046989E-002  1.980358855039158E-002
  1.584287084031326E-002  1.188215313023495E-002  7.921435420156629E-003
  3.960717710078312E-003  0.000000000000000E+000  3.960717710078315E-002
  3.564645939070483E-002  3.168574168062652E-002  2.772502397054821E-002
  2.376430626046989E-002  1.980358855039158E-002  1.584287084031326E-002
  1.188215313023495E-002  7.921435420156629E-003  3.960717710078312E-003
  0.000000000000000E+000
  6.603229561935330E-002  9.746847122569616E-002  0.122581055846250     
  0.142825154339133       0.159217090409050       0.172768510177001     
  0.183624659517463       0.191473079296056       0.196423928351802     
  0.199170171718418       0.106546558914746       0.160230531119030     
  0.202628680785075       0.237057430553046       0.265191160340784     
  0.288458677476045       0.307165081476973       0.320987172765031     
  0.330214800093264       0.336663122018510       0.134970947323208     
  0.208914704925084       0.267110321118779       0.315076859761240     
  0.354954578603309       0.388112186043240       0.415064586758158     
  0.435798560057513       0.450898448161505       0.461857827313592     
  0.157362806263413       0.246604355458870       0.317537466696832     
  0.376914018898564       0.427015976978067       0.469080886281020     
  0.503751907995899       0.531326984081221       0.552181828256159     
  0.566177889543019       0.187752513089421       0.292221467248076     
  0.374950830330039       0.444670532689551       0.504131718544374     
  0.554609889633626       0.596840610677069       0.631199474663459     
  0.657690607191324       0.675176016363499       0.237438017698791     
  0.363975552681857       0.461908324155233       0.543773453081604     
  0.613737172733917       0.673557373799644       0.724084494031698     
  0.765726920226246       0.798309369233055       0.820059778723796     
  0.313955573087817       0.474395798525227       0.595044667168565     
  0.694031152797777       0.777795108414672       0.849303970410942     
  0.910009958541779       0.960476478627060        1.00039152970593     
   1.02744705083797       0.420003823351319       0.628051889471545     
  0.780838590304633       0.903965065620367        1.00679248287209     
   1.09379572295034        1.16730684449513        1.22835504442815     
   1.27672323077852        1.30970086538855       0.553513566360969     
  0.822166553031211        1.01617540490106        1.17036158446173     
   1.29761167400851        1.40418706747880        1.49344695956216     
   1.56701282491931        1.62489149727468        1.66407751378153     
  0.709892114920136        1.04998010579817        1.29274800978167     
   1.48373983553465        1.63993146406371        1.76959985279052     
   1.87723098554028        1.96509407718470        2.03348403929967     
   2.07917358337961       0.884375076976968        1.30440518761353     
   1.60182007201744        1.83403630422709        2.02257377771129     
   2.17797801035702        2.30599806780189        2.40961784939401     
   2.48944054263592        2.54201435872330        1.07296458849416     
   1.57939901137236        1.93582740845484        2.21247617918867     
   2.43577106089638        2.61873052076260        2.76850760614993     
   2.88888504316515        2.98081810630356        3.04064114118863     
   1.27229624303062        1.86986049660818        2.28835308254593     
   2.61156008980961        2.87111032120227        3.08265808287032     
   3.25487715182900        3.39245058793005        3.49676397003156     
   3.56398903430950        1.48012849401492        2.17227054998542     
   2.65480113869228        3.02570747839437        3.32209958566957     
   3.56243409652303        3.75702316144574        3.91155144339242     
   4.02794487187175        4.10233611053274        1.69756958015855     
   2.48765833619616        3.03570412742912        3.45472267588095     
   3.78769428580353        4.05613271985214        4.27217822126797     
   4.44266557371782        4.57019478130983        4.65102524989655     
   1.93315793872922        2.82682198997856        3.44236434024399     
   3.90964292876021        4.27834794416272        4.57354359329300     
   4.80952124360635        4.99448871499662        5.13187880616022     
   5.21822367613659        2.20025963940397        3.20632546840531     
   3.89202731230368        4.40757070668350        4.81090566511007     
   5.13144215335888        5.38603517303119        5.58449168065741     
   5.73121537367049        5.82304949628145        2.48525918105854     
   3.60544644599792        4.35893807707771        4.91907341562166     
   5.35323782832431        5.69572636738286        5.96621869419307     
   6.17628337885342        6.33145364609475        6.42904825398444     
   2.72166123764656        3.92955840998559        4.73040568589616     
   5.31819817784196        5.76879237508560        6.12086399240749     
   6.39669862769713        6.60959607354497        6.76639741331458     
   6.86562883333463        2.82953951278628        4.06354859243408     
   4.86773080721908        5.44856299607172        5.88749576763784     
   6.22623479147310        6.48876682176900        6.68939087377973     
   6.83577818537468        6.92804444706829        2.77810934317126     
   3.95902213939076        4.71043631467733        5.24228741218220     
   5.63775698204107        5.93914469734675        6.17040852520859     
   6.34556481323950        6.47212421611572        6.55110743621728     
   2.57252928405709        3.61764459799643        4.26007585656004     
   4.70480607548533        5.03112926960888        5.27792520453068     
   5.46659375718377        5.60954232139693        5.71360840637860     
   5.77994083081213        2.21564733932048        3.04504691362658     
   3.53558876739504        3.87045069709339        4.11513689284924     
   4.30022519507739        4.44230755002837        4.55145713335413     
   4.63492340870159        4.69885209940881        1.69149773029601     
   2.25090295717624        2.57735176862319        2.80078012898791     
   2.96472183225875        3.08924376791503        3.18527040955634     
   3.25950284496655        3.31693035697262        3.36450705186496     
   1.02777973425830        1.34100743005120        1.52551562443333     
   1.65250703016967        1.74601331804047        1.81718890755319     
   1.87209620823176        1.91429969172374        1.94583019170593     
   1.96620091701638     
  0.000000000000000E+000  0.000000000000000E+000  0.000000000000000E+000
  0.000000000000000E+000  0.000000000000000E+000  0.000000000000000E+000
  0.000000000000000E+000  0.000000000000000E+000  0.000000000000000E+000
  0.000000000000000E+000  0.000000000000000E+000  0.000000000000000E+000
  0.000000000000000E+000  0.000000000000000E+000  0.000000000000000E+000
  0.000000000000000E+000  0.000000000000000E+000  0.000000000000000E+000
  0.000000000000000E+000  0.000000000000000E+000  0.000000000000000E+000
  0.000000000000000E+000  0.000000000000000E+000  0.000000000000000E+000
  0.000000000000000E+000  0.000000000000000E+000  0.000000000000000E+000
  0.000000000000000E+000  0.000000000000000E+000  0.000000000000000E+000
  0.000000000000000E+000  0.000000000000000E+000  0.000000000000000E+000
  0.000000000000000E+000  0.000000000000000E+000  0.000000000000000E+000
  0.000000000000000E+000  0.000000000000000E+000  0.000000000000000E+000
  0.000000000000000E+000  0.000000000000000E+000  0.000000000000000E+000
  0.000000000000000E+000  0.000000000000000E+000  0.000000000000000E+000
  0.000000000000000E+000  0.000000000000000E+000  0.000000000000000E+000
  0.000000000000000E+000  0.000000000000000E+000  0.000000000000000E+000
  0.000000000000000E+000  0.000000000000000E+000  0.000000000000000E+000
  0.000000000000000E+000  0.000000000000000E+000  0.000000000000000E+000
  0.000000000000000E+000  0.000000000000000E+000  0.000000000000000E+000
  0.000000000000000E+000  0.000000000000000E+000  0.000000000000000E+000
  0.000000000000000E+000  0.000000000000000E+000  0.000000000000000E+000
  0.000000000000000E+000  0.000000000000000E+000  0.000000000000000E+000
  0.000000000000000E+000  0.000000000000000E+000  0.000000000000000E+000
  0.000000000000000E+000  0.000000000000000E+000  0.000000000000000E+000
  0.000000000000000E+000  0.000000000000000E+000  0.000000000000000E+000
  0.000000000000000E+000  0.000000000000000E+000  0.000000000000000E+000
  0.000000000000000E+000  0.000000000000000E+000  0.000000000000000E+000
  0.000000000000000E+000  0.000000000000000E+000  0.000000000000000E+000
  0.000000000000000E+000  0.000000000000000E+000  0.000000000000000E+000
  0.000000000000000E+000  0.000000000000000E+000  0.000000000000000E+000
  0.000000000000000E+000  0.000000000000000E+000  0.000000000000000E+000
  0.000000000000000E+000  0.000000000000000E+000  0.000000000000000E+000
  0.000000000000000E+000  0.000000000000000E+000  0.000000000000000E+000
  0.000000000000000E+000  0.000000000000000E+000  0.000000000000000E+000
  0.000000000000000E+000  0.000000000000000E+000  0.000000000000000E+000
  0.000000000000000E+000  0.000000000000000E+000  0.000000000000000E+000
  0.000000000000000E+000  0.000000000000000E+000  0.000000000000000E+000
  0.000000000000000E+000  0.000000000000000E+000  0.000000000000000E+000