 Title = "Wing and Wake"
 VARIABLES = "X" "Y" "Z" "GAM" "skew"
 Zone I=   11 J=   26 K=1  T="Blade"
 DATAPACKING=BLOCK
 VARLOCATION=([4]=CELLCENTERED,[5]=CELLCENTERED)
  7.941481183482393E-003 -5.762893659893706E-003 -1.946726850326961E-002
 -3.317164334664553E-002 -4.687601819002184E-002 -6.058039303339750E-002
 -7.428476787677360E-002 -8.798914272014959E-002 -0.101693517563525     
 -0.115397892406902      -0.129102267250278       5.397067021692160E-003
 -8.307307821683927E-003 -2.201168266505992E-002 -3.571605750843591E-002
 -4.942043235181178E-002 -6.312480719518783E-002 -7.682918203856369E-002
 -9.053355688193965E-002 -0.104237931725316      -0.117942306568692     
 -0.131646681412068      -2.196048532387566E-003 -1.590042337576359E-002
 -2.960479821913965E-002 -4.330917306251569E-002 -5.701354790589146E-002
 -7.071792274926748E-002 -8.442229759264366E-002 -9.812667243601948E-002
 -0.111831047279395      -0.125535422122771      -0.139239796966147     
 -1.471811751056183E-002 -2.842249235393799E-002 -4.212686719731395E-002
 -5.583124204068982E-002 -6.953561688406575E-002 -8.323999172744177E-002
 -9.694436657081779E-002 -0.110648741414194      -0.124353116257570     
 -0.138057491100946      -0.151761865944321      -3.197165940472295E-002
 -4.567603424809901E-002 -5.938040909147516E-002 -7.308478393485097E-002
 -8.678915877822686E-002 -0.100493533621603      -0.114197908464979     
 -0.127902283308355      -0.141606658151731      -0.155311032995107     
 -0.169015407838483      -5.368457555243412E-002 -6.738895039581043E-002
 -8.109332523918612E-002 -9.479770008256222E-002 -0.108502074925938     
 -0.122206449769315      -0.135910824612690      -0.149615199456066     
 -0.163319574299443      -0.177023949142818      -0.190728323986194     
 -7.951444029537855E-002 -9.321881513875432E-002 -0.106923189982130     
 -0.120627564825506      -0.134331939668883      -0.148036314512259     
 -0.161740689355634      -0.175445064199010      -0.189149439042386     
 -0.202853813885762      -0.216558188729138      -0.109053901236546     
 -0.122758276079922      -0.136462650923298      -0.150167025766674     
 -0.163871400610050      -0.177575775453426      -0.191280150296802     
 -0.204984525140178      -0.218688899983554      -0.232393274826930     
 -0.246097649670307      -0.141837103430877      -0.155541478274253     
 -0.169245853117629      -0.182950227961005      -0.196654602804381     
 -0.210358977647757      -0.224063352491133      -0.237767727334509     
 -0.251472102177885      -0.265176477021261      -0.278880851864636     
 -0.177347036196030      -0.191051411039406      -0.204755785882782     
 -0.218460160726158      -0.232164535569534      -0.245868910412909     
 -0.259573285256285      -0.273277660099662      -0.286982034943037     
 -0.300686409786414      -0.314390784629789      -0.215023686679693     
 -0.228728061523069      -0.242432436366445      -0.256136811209821     
 -0.269841186053197      -0.283545560896573      -0.297249935739949     
 -0.310954310583325      -0.324658685426700      -0.338363060270077     
 -0.352067435113453      -0.254272871596800      -0.267977246440175     
 -0.281681621283552      -0.295385996126927      -0.309090370970303     
 -0.322794745813679      -0.336499120657055      -0.350203495500431     
 -0.363907870343807      -0.377612245187183      -0.391316620030559     
 -0.294475607854879      -0.308179982698255      -0.321884357541631     
 -0.335588732385007      -0.349293107228383      -0.362997482071759     
 -0.376701856915135      -0.390406231758511      -0.404110606601886     
 -0.417814981445263      -0.431519356288639      -0.334997874287192     
 -0.348702249130568      -0.362406623973943      -0.376110998817320     
 -0.389815373660696      -0.403519748504072      -0.417224123347449     
 -0.430928498190823      -0.444632873034201      -0.458337247877576     
 -0.472041622720952      -0.375200610545272      -0.388904985388648     
 -0.402609360232024      -0.416313735075399      -0.430018109918776     
 -0.443722484762151      -0.457426859605527      -0.471131234448904     
 -0.484835609292279      -0.498539984135655      -0.512244358979032     
 -0.414449795462378      -0.428154170305754      -0.441858545149130     
 -0.455562919992505      -0.469267294835882      -0.482971669679258     
 -0.496676044522633      -0.510380419366010      -0.524084794209385     
 -0.537789169052761      -0.551493543896138      -0.452126445946042     
 -0.465830820789417      -0.479535195632793      -0.493239570476170     
 -0.506943945319545      -0.520648320162921      -0.534352695006297     
 -0.548057069849673      -0.561761444693049      -0.575465819536426     
 -0.589170194379801      -0.487636378711195      -0.501340753554570     
 -0.515045128397946      -0.528749503241322      -0.542453878084698     
 -0.556158252928074      -0.569862627771450      -0.583567002614826     
 -0.597271377458202      -0.610975752301578      -0.624680127144953     
 -0.520419580905525      -0.534123955748900      -0.547828330592277     
 -0.561532705435652      -0.575237080279029      -0.588941455122405     
 -0.602645829965780      -0.616350204809156      -0.630054579652533     
 -0.643758954495909      -0.657463329339284      -0.549959041846692     
 -0.563663416690069      -0.577367791533444      -0.591072166376821     
 -0.604776541220196      -0.618480916063573      -0.632185290906947     
 -0.645889665750325      -0.659594040593701      -0.673298415437077     
 -0.687002790280452      -0.575788906589637      -0.589493281433013     
 -0.603197656276388      -0.616902031119764      -0.630606405963140     
 -0.644310780806516      -0.658015155649893      -0.671719530493269     
 -0.685423905336645      -0.699128280180021      -0.712832655023397     
 -0.597501822737348      -0.611206197580724      -0.624910572424099     
 -0.638614947267477      -0.652319322110852      -0.666023696954229     
 -0.679728071797604      -0.693432446640980      -0.707136821484355     
 -0.720841196327732      -0.734545571171108      -0.614755364631509     
 -0.628459739474885      -0.642164114318261      -0.655868489161636     
 -0.669572864005012      -0.683277238848389      -0.696981613691765     
 -0.710685988535141      -0.724390363378517      -0.738094738221893     
 -0.751799113065269      -0.627277433609684      -0.640981808453059     
 -0.654686183296435      -0.668390558139811      -0.682094932983188     
 -0.695799307826564      -0.709503682669938      -0.723208057513316     
 -0.736912432356691      -0.750616807200068      -0.764321182043443     
 -0.634870549163762      -0.648574924007139      -0.662279298850514     
 -0.675983673693890      -0.689688048537267      -0.703392423380643     
 -0.717096798224018      -0.730801173067395      -0.744505547910771     
 -0.758209922754147      -0.771914297597523      -0.637414963325552     
 -0.651119338168929      -0.664823713012304      -0.678528087855682     
 -0.692232462699057      -0.705936837542433      -0.719641212385810     
 -0.733345587229184      -0.747049962072561      -0.760754336915937     
 -0.774458711759314     
 -0.266389230169557      -0.253763647989978      -0.241138065810398     
 -0.228512483630819      -0.215886901451239      -0.203261319271660     
 -0.190635737092080      -0.178010154912501      -0.165384572732922     
 -0.152758990553342      -0.140133408373763      -0.269151051757979     
 -0.256525469578400      -0.243899887398821      -0.231274305219242     
 -0.218648723039662      -0.206023140860083      -0.193397558680503     
 -0.180771976500924      -0.168146394321344      -0.155520812141765     
 -0.142895229962185      -0.277392960946966      -0.264767378767387     
 -0.252141796587807      -0.239516214408228      -0.226890632228648     
 -0.214265050049069      -0.201639467869489      -0.189013885689910     
 -0.176388303510330      -0.163762721330751      -0.151137139151172     
 -0.290984977905128      -0.278359395725549      -0.265733813545969     
 -0.253108231366390      -0.240482649186810      -0.227857067007231     
 -0.215231484827651      -0.202605902648072      -0.189980320468492     
 -0.177354738288913      -0.164729156109333      -0.309712748405557     
 -0.297087166225978      -0.284461584046398      -0.271836001866819     
 -0.259210419687239      -0.246584837507660      -0.233959255328081     
 -0.221333673148501      -0.208708090968922      -0.196082508789343     
 -0.183456926609763      -0.333280924320035      -0.320655342140456     
 -0.308029759960876      -0.295404177781297      -0.282778595601718     
 -0.270153013422138      -0.257527431242559      -0.244901849062979     
 -0.232276266883400      -0.219650684703820      -0.207025102524241     
 -0.361317821435444      -0.348692239255864      -0.336066657076285     
 -0.323441074896706      -0.310815492717126      -0.298189910537547     
 -0.285564328357967      -0.272938746178388      -0.260313163998808     
 -0.247687581819229      -0.235061999639649      -0.393381281135844     
 -0.380755698956264      -0.368130116776685      -0.355504534597105     
 -0.342878952417526      -0.330253370237947      -0.317627788058367     
 -0.305002205878788      -0.292376623699208      -0.279751041519629     
 -0.267125459340050      -0.428965643507976      -0.416340061328396     
 -0.403714479148817      -0.391088896969238      -0.378463314789659     
 -0.365837732610079      -0.353212150430499      -0.340586568250920     
 -0.327960986071341      -0.315335403891761      -0.302709821712182     
 -0.467509721900165      -0.454884139720586      -0.442258557541006     
 -0.429632975361427      -0.417007393181847      -0.404381811002268     
 -0.391756228822688      -0.379130646643109      -0.366505064463529     
 -0.353879482283950      -0.341253900104371      -0.508405653171050     
 -0.495780070991470      -0.483154488811891      -0.470528906632312     
 -0.457903324452732      -0.445277742273153      -0.432652160093573     
 -0.420026577913993      -0.407400995734414      -0.394775413554835     
 -0.382149831375255      -0.551008484054442      -0.538382901874863     
 -0.525757319695284      -0.513131737515704      -0.500506155336125     
 -0.487880573156545      -0.475254990976966      -0.462629408797387     
 -0.450003826617807      -0.437378244438228      -0.424752662258648     
 -0.594646342457616      -0.582020760278036      -0.569395178098455     
 -0.556769595918877      -0.544144013739297      -0.531518431559718     
 -0.518892849380138      -0.506267267200559      -0.493641685020980     
 -0.481016102841401      -0.468390520661821      -0.638631033285557     
 -0.626005451105977      -0.613379868926398      -0.600754286746818     
 -0.588128704567239      -0.575503122387659      -0.562877540208081     
 -0.550251958028501      -0.537626375848922      -0.525000793669342     
 -0.512375211489762      -0.682268891688729      -0.669643309509150     
 -0.657017727329570      -0.644392145149991      -0.631766562970411     
 -0.619140980790832      -0.606515398611252      -0.593889816431673     
 -0.581264234252093      -0.568638652072514      -0.556013069892935     
 -0.724871722572123      -0.712246140392542      -0.699620558212963     
 -0.686994976033384      -0.674369393853805      -0.661743811674225     
 -0.649118229494645      -0.636492647315066      -0.623867065135487     
 -0.611241482955907      -0.598615900776328      -0.765767653843007     
 -0.753142071663427      -0.740516489483848      -0.727890907304269     
 -0.715265325124688      -0.702639742945109      -0.690014160765530     
 -0.677388578585951      -0.664762996406371      -0.652137414226793     
 -0.639511832047213      -0.804311732235196      -0.791686150055615     
 -0.779060567876037      -0.766434985696457      -0.753809403516877     
 -0.741183821337299      -0.728558239157719      -0.715932656978139     
 -0.703307074798560      -0.690681492618981      -0.678055910439401     
 -0.839896094607328      -0.827270512427748      -0.814644930248169     
 -0.802019348068589      -0.789393765889011      -0.776768183709431     
 -0.764142601529852      -0.751517019350272      -0.738891437170693     
 -0.726265854991113      -0.713640272811534      -0.871959554307728     
 -0.859333972128149      -0.846708389948568      -0.834082807768989     
 -0.821457225589410      -0.808831643409830      -0.796206061230251     
 -0.783580479050672      -0.770954896871092      -0.758329314691513     
 -0.745703732511932      -0.899996451423136      -0.887370869243557     
 -0.874745287063977      -0.862119704884398      -0.849494122704819     
 -0.836868540525239      -0.824242958345660      -0.811617376166080     
 -0.798991793986502      -0.786366211806921      -0.773740629627342     
 -0.923564627337615      -0.910939045158036      -0.898313462978454     
 -0.885687880798877      -0.873062298619298      -0.860436716439718     
 -0.847811134260138      -0.835185552080559      -0.822559969900979     
 -0.809934387721399      -0.797308805541819      -0.942292397838043     
 -0.929666815658464      -0.917041233478885      -0.904415651299305     
 -0.891790069119726      -0.879164486940146      -0.866538904760567     
 -0.853913322580989      -0.841287740401408      -0.828662158221829     
 -0.816036576042249      -0.955884414796206      -0.943258832616627     
 -0.930633250437046      -0.918007668257467      -0.905382086077888     
 -0.892756503898308      -0.880130921718729      -0.867505339539149     
 -0.854879757359570      -0.842254175179991      -0.829628593000411     
 -0.964126323985190      -0.951500741805613      -0.938875159626034     
 -0.926249577446452      -0.913623995266874      -0.900998413087295     
 -0.888372830907713      -0.875747248728135      -0.863121666548557     
 -0.850496084368977      -0.837870502189398      -0.966888145573613     
 -0.954262563394034      -0.941636981214456      -0.929011399034877     
 -0.916385816855296      -0.903760234675718      -0.891134652496138     
 -0.878509070316557      -0.865883488136979      -0.853257905957400     
 -0.840632323777821     
  3.960717710078315E-002  3.564645939070483E-002  3.168574168062652E-002
  2.772502397054821E-002  2.376430626046989E-002  1.980358855039158E-002
  1.584287084031326E-002  1.188215313023495E-002  7.921435420156629E-003
  3.960717710078312E-003  0.000000000000000E+000  3.960717710078315E-002
  3.564645939070483E-002  3.168574168062652E-002  2.772502397054821E-002
  2.376430626046989E-002  1.980358855039158E-002  1.584287084031326E-002
  1.188215313023495E-002  7.921435420156629E-003  3.960717710078312E-003
  0.000000000000000E+000  3.960717710078315E-002  3.564645939070483E-002
  3.168574168062652E-002  2.772502397054821E-002  2.376430626046989E-002
  1.980358855039158E-002  1.584287084031326E-002  1.188215313023495E-002
  7.921435420156629E-003  3.960717710078312E-003  0.000000000000000E+000
  3.960717710078315E-002  3.564645939070483E-002  3.168574168062652E-002
  2.772502397054821E-002  2.376430626046989E-002  1.980358855039158E-002
  1.584287084031326E-002  1.188215313023495E-002  7.921435420156629E-003
  3.960717710078312E-003  0.000000000000000E+000  3.960717710078315E-002
  3.564645939070483E-002  3.168574168062652E-002  2.772502397054821E-002
  2.376430626046989E-002  1.980358855039158E-002  1.584287084031326E-002
  1.188215313023495E-002  7.921435420156629E-003  3.960717710078312E-003
  0.000000000000000E+000  3.960717710078315E-002  3.564645939070483E-002
  3.168574168062652E-002  2.772502397054821E-002  2.376430626046989E-002
  1.980358855039158E-002  1.584287084031326E-002  1.188215313023495E-002
  7.921435420156629E-003  3.960717710078312E-003  0.000000000000000E+000
  3.960717710078315E-002  3.564645939070483E-002  3.168574168062652E-002
  2.772502397054821E-002  2.376430626046989E-002  1.980358855039158E-002
  1.584287084031326E-002  1.188215313023495E-002  7.921435420156629E-003
  3.960717710078312E-003  0.000000000000000E+000  3.960717710078315E-002
  3.564645939070483E-002  3.168574168062652E-002  2.772502397054821E-002
  2.376430626046989E-002  1.980358855039158E-002  1.584287084031326E-002
  1.188215313023495E-002  7.921435420156629E-003  3.960717710078312E-003
  0.000000000000000E+000  3.960717710078315E-002  3.564645939070483E-002
  3.168574168062652E-002  2.772502397054821E-002  2.376430626046989E-002
  1.980358855039158E-002  1.584287084031326E-002  1.188215313023495E-002
  7.921435420156629E-003  3.960717710078312E-003  0.000000000000000E+000
  3.960717710078315E-002  3.564645939070483E-002  3.168574168062652E-002
  2.772502397054821E-002  2.376430626046989E-002  1.980358855039158E-002
  1.584287084031326E-002  1.188215313023495E-002  7.921435420156629E-003
  3.960717710078312E-003  0.000000000000000E+000  3.960717710078315E-002
  3.564645939070483E-002  3.168574168062652E-002  2.772502397054821E-002
  2.376430626046989E-002  1.980358855039158E-002  1.584287084031326E-002
  1.188215313023495E-002  7.921435420156629E-003  3.960717710078312E-003
  0.000000000000000E+000  3.960717710078315E-002  3.564645939070483E-002
  3.168574168062652E-002  2.772502397054821E-002  2.376430626046989E-002
  1.980358855039158E-002  1.584287084031326E-002  1.188215313023495E-002
  7.921435420156629E-003  3.960717710078312E-003  0.000000000000000E+000
  3.960717710078315E-002  3.564645939070483E-002  3.168574168062652E-002
  2.772502397054821E-002  2.376430626046989E-002  1.980358855039158E-002
  1.584287084031326E-002  1.188215313023495E-002  7.921435420156629E-003
  3.960717710078312E-003  0.000000000000000E+000  3.960717710078315E-002
  3.564645939070483E-002  3.168574168062652E-002  2.772502397054821E-002
  2.376430626046989E-002  1.980358855039158E-002  1.584287084031326E-002
  1.188215313023495E-002  7.921435420156629E-003  3.960717710078312E-003
  0.000000000000000E+000  3.960717710078315E-002  3.564645939070483E-002
  3.168574168062652E-002  2.772502397054821E-002  2.376430626046989E-002
  1.980358855039158E-002  1.584287084031326E-002  1.188215313023495E-002
  7.921435420156629E-003  3.960717710078312E-003  0.000000000000000E+000
  3.960717710078315E-002  3.564645939070483E-002  3.168574168062652E-002
  2.772502397054821E-002  2.376430626046989E-002  1.980358855039158E-002
  1.584287084031326E-002  1.188215313023495E-002  7.921435420156629E-003
  3.960717710078312E-003  0.000000000000000E+000  3.960717710078315E-002
  3.564645939070483E-002  3.168574168062652E-002  2.772502397054821E-002
  2.376430626046989E-002  1.980358855039158E-002  1.584287084031326E-002
  1.188215313023495E-002  7.921435420156629E-003  3.960717710078312E-003
  0.000000000000000E+000  3.960717710078315E-002  3.564645939070483E-002
  3.168574168062652E-002  2.772502397054821E-002  2.376430626046989E-002
  1.980358855039158E-002  1.584287084031326E-002  1.188215313023495E-002
  7.921435420156629E-003  3.960717710078312E-003  0.000000000000000E+000
  3.960717710078315E-002  3.564645939070483E-002  3.168574168062652E-002
  2.772502397054821E-002  2.376430626046989E-002  1.980358855039158E-002
  1.584287084031326E-002  1.188215313023495E-002  7.921435420156629E-003
  3.960717710078312E-003  0.000000000000000E+000  3.960717710078315E-002
  3.564645939070483E-002  3.168574168062652E-002  2.772502397054821E-002
  2.376430626046989E-002  1.980358855039158E-002  1.584287084031326E-002
  1.188215313023495E-002  7.921435420156629E-003  3.960717710078312E-003
  0.000000000000000E+000  3.960717710078315E-002  3.564645939070483E-002
  3.168574168062652E-002  2.772502397054821E-002  2.376430626046989E-002
  1.980358855039158E-002  1.584287084031326E-002  1.188215313023495E-002
  7.921435420156629E-003  3.960717710078312E-003  0.000000000000000E+000
  3.960717710078315E-002  3.564645939070483E-002  3.168574168062652E-002
  2.772502397054821E-002  2.376430626046989E-002  1.980358855039158E-002
  1.584287084031326E-002  1.188215313023495E-002  7.921435420156629E-003
  3.960717710078312E-003  0.000000000000000E+000  3.960717710078315E-002
  3.564645939070483E-002  3.168574168062652E-002  2.772502397054821E-002
  2.376430626046989E-002  1.980358855039158E-002  1.584287084031326E-002
  1.188215313023495E-002  7.921435420156629E-003  3.960717710078312E-003
  0.000000000000000E+000  3.960717710078315E-002  3.564645939070483E-002
  3.168574168062652E-002  2.772502397054821E-002  2.376430626046989E-002
  1.980358855039158E-002  1.584287084031326E-002  1.188215313023495E-002
  7.921435420156629E-003  3.960717710078312E-003  0.000000000000000E+000
  3.960717710078315E-002  3.564645939070483E-002  3.168574168062652E-002
  2.772502397054821E-002  2.376430626046989E-002  1.980358855039158E-002
  1.584287084031326E-002  1.188215313023495E-002  7.921435420156629E-003
  3.960717710078312E-003  0.000000000000000E+000  3.960717710078315E-002
  3.564645939070483E-002  3.168574168062652E-002  2.772502397054821E-002
  2.376430626046989E-002  1.980358855039158E-002  1.584287084031326E-002
  1.188215313023495E-002  7.921435420156629E-003  3.960717710078312E-003
  0.000000000000000E+000
  8.628409441575323E-002  0.128573276853794       0.162970551060456     
  0.193862710267063       0.222675829375487       0.249906387916962     
  0.275473117771517       0.298890585316374       0.319548934261474     
  0.335957186339136       0.147148912420317       0.221282217436450     
  0.280641402636239       0.333380762462229       0.382123587498917     
  0.427839672629947       0.470567776953223       0.509733492887492     
  0.544590878784393       0.573993476827324       0.210054045948291     
  0.319468265740127       0.405370417233348       0.480091654646980     
  0.547766561049278       0.610070728169805       0.667516334016114     
  0.719890277830877       0.766578446360805       0.805497301260540     
  0.275302892426901       0.419623528705802       0.531529864625032     
  0.626943500846213       0.711407529826415       0.787279613310077     
  0.855489662832929       0.916091587630916       0.968126900025894     
   1.00781631480933       0.345489395953832       0.524623102158752     
  0.661717949040878       0.776676477706697       0.876461247250906     
  0.964123402325100        1.04092657502567        1.10696173716411     
   1.16108446073428        1.19943362038450       0.422538323466869     
  0.637902463255000       0.800253231840409       0.934338985769998     
   1.04882304440330        1.14751172130900        1.23205278806400     
   1.30273351187410        1.35848374109647        1.39559050768166     
  0.508914858276387       0.763682827629848       0.952719818289691     
   1.10653739209075        1.23594983452583        1.34580627854260     
   1.43834420953822        1.51421918836498        1.57260102013308     
   1.60991282800319       0.607818319560066       0.907088002916604     
   1.12588366733230        1.30153218627383        1.44748261835965     
   1.56992653939514        1.67190100489670        1.75461275936666     
   1.81759539066296        1.85734103330333       0.722789249001679     
   1.07375687477444        1.32716101638950        1.52831596892015     
   1.69380138949587        1.83146051354338        1.94533104918114     
   2.03722859187220        2.10698721989450        2.15101119081479     
  0.856569132026808        1.26797272102171        1.56209725016820     
   1.79354392292957        1.98251750272566        2.13873416581345     
   2.26731635850248        2.37071482456678        2.44906233864625     
   2.49860031918384        1.00973498008324        1.49066705886379     
   1.83189632502607        2.09858378193943        2.31501689070685     
   2.49299110163333        2.63883507913552        2.75571421875175     
   2.84408929991299        2.90001878956273        1.18057563899060     
   1.73920724634678        2.13314570743983        2.43928634612369     
   2.68644270758590        2.88871415138522        3.05376639549278     
   3.18556567349244        3.28496480433197        3.34786680925912     
   1.36601343944902        2.00887340661173        2.45981874044992     
   2.80848299861895        3.08860535156456        3.31680642196993     
   3.50222376780827        3.64971541911660        3.76060388104333     
   3.83070497018631        1.56311377649112        2.29504796501742     
   2.80589301276681        3.19888978585933        3.51306994091513     
   3.76778720198211        3.97379624816082        4.13696072881671     
   4.25917311797366        4.33627236705896        1.77110611489466     
   2.59594141095455        3.16841355727756        3.60631612310581     
   3.95439940535074        4.23502032923115        4.46075199932336     
   4.63862365883418        4.77123680831501        4.85461862899734     
   1.99336269566002        2.91503881526629        3.55003287309806     
   4.03220184676407        4.41271882268480        4.71736360401350     
   4.96081292751621        5.15147431681221        5.29283779890975     
   5.38132120480065        2.23307794245223        3.25493832755467     
   3.95184418373298        4.47596936837857        4.88594081474831     
   5.21151907805381        5.46980107035695        5.67077089692073     
   5.81896083606711        5.91134228512297        2.47253669822968     
   3.58924768747745        4.34142073889983        4.90074818366045     
   5.33390462997271        5.67493240804179        5.94348669877194     
   6.15119483324091        6.30370867003416        6.39871904801906     
   2.65950817910725        3.84322565746910        4.62946645647376     
   5.20671498243267        5.64872654927526        5.99333409130055     
   6.26244867141254        6.46915194981936        6.62018251525630     
   6.71433842658696        2.73561015165058        3.93183342139351     
   4.71278736367798        5.27712684966274        5.70324118319757     
   6.03145108975679        6.28504847860835        6.47791825399920     
   6.61748122602214        6.70394019590722        2.67410654870911     
   3.81264156976985        4.53790390354566        5.05141769973249     
   5.43300182103302        5.72329677973603        5.94536907193658     
   6.11272311326735        6.23257433693349        6.30594577010660     
   2.47341098271152        3.47891297714018        4.09724873647828     
   4.52525811296908        4.83904554144030        5.07592653675238     
   5.25644922652751        5.39252648205164        5.49071066561486     
   5.55214663060112        2.13028605527138        2.92769746012565     
   3.39926568758688        3.72101889914789        3.95585941946567     
   4.13313675228179        4.26877388159877        4.37243340959956     
   4.45106169345057        4.51059547192426        1.62672031501115     
   2.16440518570712        2.47804247094079        2.69254639976802     
   2.84973108601986        2.96885742788346        3.06040691560775     
   3.13080557202168        3.18483388120291        3.22918935072295     
  0.988547624128611        1.28957868499675        1.46680776714807     
   1.58869058531701        1.67831005630092        1.74637223921327     
   1.79869331860056        1.83869140005052        1.86831232362778     
   1.88710675424758     
  0.000000000000000E+000  0.000000000000000E+000  0.000000000000000E+000
  0.000000000000000E+000  0.000000000000000E+000  0.000000000000000E+000
  0.000000000000000E+000  0.000000000000000E+000  0.000000000000000E+000
  0.000000000000000E+000  0.000000000000000E+000  0.000000000000000E+000
  0.000000000000000E+000  0.000000000000000E+000  0.000000000000000E+000
  0.000000000000000E+000  0.000000000000000E+000  0.000000000000000E+000
  0.000000000000000E+000  0.000000000000000E+000  0.000000000000000E+000
  0.000000000000000E+000  0.000000000000000E+000  0.000000000000000E+000
  0.000000000000000E+000  0.000000000000000E+000  0.000000000000000E+000
  0.000000000000000E+000  0.000000000000000E+000  0.000000000000000E+000
  0.000000000000000E+000  0.000000000000000E+000  0.000000000000000E+000
  0.000000000000000E+000  0.000000000000000E+000  0.000000000000000E+000
  0.000000000000000E+000  0.000000000000000E+000  0.000000000000000E+000
  0.000000000000000E+000  0.000000000000000E+000  0.000000000000000E+000
  0.000000000000000E+000  0.000000000000000E+000  0.000000000000000E+000
  0.000000000000000E+000  0.000000000000000E+000  0.000000000000000E+000
  0.000000000000000E+000  0.000000000000000E+000  0.000000000000000E+000
  0.000000000000000E+000  0.000000000000000E+000  0.000000000000000E+000
  0.000000000000000E+000  0.000000000000000E+000  0.000000000000000E+000
  0.000000000000000E+000  0.000000000000000E+000  0.000000000000000E+000
  0.000000000000000E+000  0.000000000000000E+000  0.000000000000000E+000
  0.000000000000000E+000  0.000000000000000E+000  0.000000000000000E+000
  0.000000000000000E+000  0.000000000000000E+000  0.000000000000000E+000
  0.000000000000000E+000  0.000000000000000E+000  0.000000000000000E+000
  0.000000000000000E+000  0.000000000000000E+000  0.000000000000000E+000
  0.000000000000000E+000  0.000000000000000E+000  0.000000000000000E+000
  0.000000000000000E+000  0.000000000000000E+000  0.000000000000000E+000
  0.000000000000000E+000  0.000000000000000E+000  0.000000000000000E+000
  0.000000000000000E+000  0.000000000000000E+000  0.000000000000000E+000
  0.000000000000000E+000  0.000000000000000E+000  0.000000000000000E+000
  0.000000000000000E+000  0.000000000000000E+000  0.000000000000000E+000
  0.000000000000000E+000  0.000000000000000E+000  0.000000000000000E+000
  0.000000000000000E+000  0.000000000000000E+000  0.000000000000000E+000
  0.000000000000000E+000  0.000000000000000E+000  0.000000000000000E+000
  0.000000000000000E+000  0.000000000000000E+000  0.000000000000000E+000
  0.000000000000000E+000  0.000000000000000E+000  0.000000000000000E+000
  0.000000000000000E+000  0.000000000000000E+000  0.000000000000000E+000
  0.000000000000000E+000  0.000000000000000E+000  0.000000000000000E+000
  0.000000000000000E+000  0.000000000000000E+000  0.000000000000000E+000