 Title = "Wing and Wake"
 VARIABLES = "X" "Y" "Z" "GAM" "skew"
 Zone I=   11 J=   26 K=1  T="Blade"
 DATAPACKING=BLOCK
 VARLOCATION=([4]=CELLCENTERED,[5]=CELLCENTERED)
  2.685251075517400E-002  3.879408636350896E-002  5.073566197184383E-002
  6.267723758017903E-002  7.461881318851417E-002  8.656038879684884E-002
  9.850196440518386E-002  0.110443540013519       0.122385115621854     
  0.134326691230189       0.146268266838524       2.973524130275600E-002
  4.167681691109109E-002  5.361839251942586E-002  6.555996812776096E-002
  7.750154373609570E-002  8.944311934443072E-002  0.101384694952766     
  0.113326270561100       0.125267846169436       0.137209421777771     
  0.149150997386106       3.833797056270621E-002  5.027954617104103E-002
  6.222112177937606E-002  7.416269738771107E-002  8.610427299604584E-002
  9.804584860438095E-002  0.109987424212716       0.121928999821051     
  0.133870575429386       0.145812151037720       0.157753726646056     
  5.252502835557436E-002  6.446660396390942E-002  7.640817957224463E-002
  8.834975518057929E-002  0.100291330788914       0.112232906397249     
  0.124174482005584       0.136116057613919       0.148057633222254     
  0.159999208830589       0.171940784438923       7.207267630502871E-002
  8.401425191336334E-002  9.595582752169862E-002  0.107897403130034     
  0.119838978738368       0.131780554346704       0.143722129955039     
  0.155663705563374       0.167605281171708       0.179546856780043     
  0.191488432388378       9.667263632570816E-002  0.108614211934044     
  0.120555787542378       0.132497363150713       0.144438938759048     
  0.156380514367384       0.168322089975718       0.180263665584053     
  0.192205241192388       0.204146816800723       0.216088392409058     
  0.125936952352783       0.137878527961118       0.149820103569453     
  0.161761679177788       0.173703254786122       0.185644830394458     
  0.197586406002793       0.209527981611127       0.221469557219462     
  0.233411132827796       0.245352708436131       0.159404108640850     
  0.171345684249185       0.183287259857521       0.195228835465855     
  0.207170411074190       0.219111986682525       0.231053562290860     
  0.242995137899195       0.254936713507530       0.266878289115864     
  0.278819864724200       0.196546308142937       0.208487883751273     
  0.220429459359608       0.232371034967943       0.244312610576278     
  0.256254186184612       0.268195761792947       0.280137337401282     
  0.292078913009618       0.304020488617953       0.315962064226287     
  0.236777796185222       0.248719371793557       0.260660947401893     
  0.272602523010228       0.284544098618563       0.296485674226897     
  0.308427249835232       0.320368825443567       0.332310401051902     
  0.344251976660237       0.356193552268572       0.279464098168153     
  0.291405673776488       0.303347249384822       0.315288824993157     
  0.327230400601492       0.339171976209828       0.351113551818161     
  0.363055127426498       0.374996703034831       0.386938278643167     
  0.398879854251502       0.323932025609896       0.335873601218230     
  0.347815176826566       0.359756752434899       0.371698328043235     
  0.383639903651570       0.395581479259905       0.407523054868240     
  0.419464630476575       0.431406206084909       0.443347781693244     
  0.369480292730844       0.381421868339178       0.393363443947513     
  0.405305019555848       0.417246595164183       0.429188170772517     
  0.441129746380853       0.453071321989188       0.465012897597523     
  0.476954473205857       0.488896048814192       0.415390576149283     
  0.427332151757617       0.439273727365951       0.451215302974286     
  0.463156878582621       0.475098454190957       0.487040029799292     
  0.498981605407625       0.510923181015963       0.522864756624297     
  0.534806332232631       0.460938843270229       0.472880418878563     
  0.484821994486900       0.496763570095233       0.508705145703569     
  0.520646721311905       0.532588296920239       0.544529872528575     
  0.556471448136908       0.568413023745242       0.580354599353580     
  0.505406770711972       0.517348346320307       0.529289921928643     
  0.541231497536976       0.553173073145313       0.565114648753647     
  0.577056224361981       0.588997799970317       0.600939375578651     
  0.612880951186985       0.624822526795322       0.548093072694902     
  0.560034648303237       0.571976223911571       0.583917799519907     
  0.595859375128241       0.607800950736577       0.619742526344912     
  0.631684101953248       0.643625677561582       0.655567253169918     
  0.667508828778252       0.588324560737187       0.600266136345522     
  0.612207711953857       0.624149287562192       0.636090863170527     
  0.648032438778863       0.659974014387197       0.671915589995532     
  0.683857165603866       0.695798741212201       0.707740316820535     
  0.625466760239274       0.637408335847609       0.649349911455945     
  0.661291487064279       0.673233062672614       0.685174638280950     
  0.697116213889283       0.709057789497619       0.720999365105955     
  0.732940940714289       0.744882516322623       0.658933916527342     
  0.670875492135677       0.682817067744011       0.694758643352348     
  0.706700218960681       0.718641794569016       0.730583370177351     
  0.742524945785688       0.754466521394022       0.766408097002357     
  0.778349672610690       0.688198232554417       0.700139808162752     
  0.712081383771085       0.724022959379419       0.735964534987756     
  0.747906110596091       0.759847686204427       0.771789261812761     
  0.783730837421095       0.795672413029431       0.807613988637765     
  0.712798192575094       0.724739768183430       0.736681343791766     
  0.748622919400100       0.760564495008435       0.772506070616772     
  0.784447646225105       0.796389221833440       0.808330797441775     
  0.820272373050111       0.832213948658447       0.732345840524551     
  0.744287416132885       0.756228991741219       0.768170567349555     
  0.780112142957891       0.792053718566225       0.803995294174560     
  0.815936869782896       0.827878445391230       0.839820020999565     
  0.851761596607899       0.746532898317418       0.758474473925753     
  0.770416049534087       0.782357625142423       0.794299200750759     
  0.806240776359094       0.818182351967429       0.830123927575764     
  0.842065503184096       0.854007078792433       0.865948654400768     
  0.755135627577367       0.767077203185702       0.779018778794037     
  0.790960354402372       0.802901930010708       0.814843505619044     
  0.826785081227379       0.838726656835713       0.850668232444049     
  0.862609808052383       0.874551383660716       0.758018358124949     
  0.769959933733286       0.781901509341620       0.793843084949955     
  0.805784660558291       0.817726236166626       0.829667811774961     
  0.841609387383294       0.853550962991631       0.865492538599965     
  0.877434114208302     
  0.265151337428004       0.250847002867757       0.236542668307510     
  0.222238333747262       0.207933999187015       0.193629664626767     
  0.179325330066520       0.165020995506273       0.150716660946026     
  0.136412326385778       0.122107991825531       0.267557904797316     
  0.253253570237069       0.238949235676821       0.224644901116574     
  0.210340566556326       0.196036231996079       0.181731897435831     
  0.167427562875584       0.153123228315337       0.138818893755090     
  0.124514559194842       0.274739653900222       0.260435319339975     
  0.246130984779727       0.231826650219480       0.217522315659233     
  0.203217981098985       0.188913646538738       0.174609311978491     
  0.160304977418244       0.146000642857996       0.131696308297749     
  0.286583324263202       0.272278989702955       0.257974655142707     
  0.243670320582461       0.229365986022213       0.215061651461965     
  0.200757316901718       0.186452982341471       0.172148647781224     
  0.157844313220976       0.143539978660729       0.302902134129565     
  0.288597799569318       0.274293465009070       0.259989130448823     
  0.245684795888576       0.231380461328329       0.217076126768082     
  0.202771792207834       0.188467457647587       0.174163123087340     
  0.159858788527092       0.323438726119335       0.309134391559088     
  0.294830056998840       0.280525722438593       0.266221387878346     
  0.251917053318098       0.237612718757851       0.223308384197604     
  0.209004049637356       0.194699715077109       0.180395380516861     
  0.347869225908866       0.333564891348619       0.319260556788373     
  0.304956222228125       0.290651887667877       0.276347553107631     
  0.262043218547383       0.247738883987135       0.233434549426888     
  0.219130214866640       0.204825880306393       0.375808349922407     
  0.361504015362159       0.347199680801913       0.332895346241665     
  0.318591011681418       0.304286677121170       0.289982342560923     
  0.275678008000676       0.261373673440428       0.247069338880181     
  0.232765004319934       0.406815481484238       0.392511146923991     
  0.378206812363743       0.363902477803496       0.349598143243250     
  0.335293808683001       0.320989474122754       0.306685139562507     
  0.292380805002260       0.278076470442012       0.263772135881765     
  0.440401619606868       0.426097285046621       0.411792950486373     
  0.397488615926125       0.383184281365879       0.368879946805631     
  0.354575612245384       0.340271277685137       0.325966943124889     
  0.311662608564641       0.297358274004394       0.476037090828716     
  0.461732756268469       0.447428421708221       0.433124087147974     
  0.418819752587726       0.404515418027480       0.390211083467231     
  0.375906748906984       0.361602414346737       0.347298079786489     
  0.332993745226242       0.513159902481014       0.498855567920767     
  0.484551233360520       0.470246898800270       0.455942564240024     
  0.441638229679778       0.427333895119530       0.413029560559282     
  0.398725225999035       0.384420891438788       0.370116556878541     
  0.551184605647914       0.536880271087667       0.522575936527418     
  0.508271601967172       0.493967267406925       0.479662932846677     
  0.465358598286429       0.451054263726182       0.436749929165936     
  0.422445594605688       0.408141260045440       0.589511528045617     
  0.575207193485369       0.560902858925122       0.546598524364874     
  0.532294189804627       0.517989855244380       0.503685520684132     
  0.489381186123885       0.475076851563639       0.460772517003390     
  0.446468182443143       0.627536231212515       0.613231896652269     
  0.598927562092022       0.584623227531773       0.570318892971526     
  0.556014558411281       0.541710223851032       0.527405889290784     
  0.513101554730536       0.498797220170288       0.484492885610043     
  0.664659042864815       0.650354708304566       0.636050373744320     
  0.621746039184073       0.607441704623826       0.593137370063578     
  0.578833035503330       0.564528700943083       0.550224366382836     
  0.535920031822587       0.521615697262342       0.700294514086662     
  0.685990179526415       0.671685844966167       0.657381510405921     
  0.643077175845672       0.628772841285426       0.614468506725178     
  0.600164172164932       0.585859837604684       0.571555503044436     
  0.557251168484190       0.733880652209292       0.719576317649043     
  0.705271983088797       0.690967648528550       0.676663313968302     
  0.662358979408055       0.648054644847807       0.633750310287559     
  0.619445975727312       0.605141641167065       0.590837306606818     
  0.764887783771121       0.750583449210874       0.736279114650628     
  0.721974780090381       0.707670445530134       0.693366110969886     
  0.679061776409638       0.664757441849391       0.650453107289145     
  0.636148772728896       0.621844438168649       0.792826907784663     
  0.778522573224414       0.764218238664167       0.749913904103920     
  0.735609569543674       0.721305234983424       0.707000900423180     
  0.692696565862932       0.678392231302683       0.664087896742437     
  0.649783562182190       0.817257407574194       0.802953073013949     
  0.788648738453699       0.774344403893451       0.760040069333205     
  0.745735734772958       0.731431400212711       0.717127065652463     
  0.702822731092217       0.688518396531968       0.674214061971721     
  0.837793999563963       0.823489665003718       0.809185330443468     
  0.794880995883222       0.780576661322976       0.766272326762729     
  0.751967992202479       0.737663657642233       0.723359323081987     
  0.709054988521738       0.694750653961491       0.854112809430328     
  0.839808474870080       0.825504140309832       0.811199805749586     
  0.796895471189339       0.782591136629091       0.768286802068844     
  0.753982467508597       0.739678132948349       0.725373798388102     
  0.711069463827853       0.865956479793308       0.851652145233062     
  0.837347810672812       0.823043476112565       0.808739141552319     
  0.794434806992070       0.780130472431825       0.765826137871576     
  0.751521803311328       0.737217468751080       0.722913134190833     
  0.873138228896213       0.858833894335966       0.844529559775721     
  0.830225225215471       0.815920890655224       0.801616556094976     
  0.787312221534729       0.773007886974482       0.758703552414236     
  0.744399217853988       0.730094883293740       0.875544796265525     
  0.861240461705277       0.846936127145032       0.832631792584783     
  0.818327458024536       0.804023123464289       0.789718788904043     
  0.775414454343793       0.761110119783547       0.746805785223299     
  0.732501450663053     
  3.960717710078315E-002  3.564645939070483E-002  3.168574168062652E-002
  2.772502397054821E-002  2.376430626046989E-002  1.980358855039158E-002
  1.584287084031326E-002  1.188215313023495E-002  7.921435420156629E-003
  3.960717710078312E-003  0.000000000000000E+000  3.960717710078315E-002
  3.564645939070483E-002  3.168574168062652E-002  2.772502397054821E-002
  2.376430626046989E-002  1.980358855039158E-002  1.584287084031326E-002
  1.188215313023495E-002  7.921435420156629E-003  3.960717710078312E-003
  0.000000000000000E+000  3.960717710078315E-002  3.564645939070483E-002
  3.168574168062652E-002  2.772502397054821E-002  2.376430626046989E-002
  1.980358855039158E-002  1.584287084031326E-002  1.188215313023495E-002
  7.921435420156629E-003  3.960717710078312E-003  0.000000000000000E+000
  3.960717710078315E-002  3.564645939070483E-002  3.168574168062652E-002
  2.772502397054821E-002  2.376430626046989E-002  1.980358855039158E-002
  1.584287084031326E-002  1.188215313023495E-002  7.921435420156629E-003
  3.960717710078312E-003  0.000000000000000E+000  3.960717710078315E-002
  3.564645939070483E-002  3.168574168062652E-002  2.772502397054821E-002
  2.376430626046989E-002  1.980358855039158E-002  1.584287084031326E-002
  1.188215313023495E-002  7.921435420156629E-003  3.960717710078312E-003
  0.000000000000000E+000  3.960717710078315E-002  3.564645939070483E-002
  3.168574168062652E-002  2.772502397054821E-002  2.376430626046989E-002
  1.980358855039158E-002  1.584287084031326E-002  1.188215313023495E-002
  7.921435420156629E-003  3.960717710078312E-003  0.000000000000000E+000
  3.960717710078315E-002  3.564645939070483E-002  3.168574168062652E-002
  2.772502397054821E-002  2.376430626046989E-002  1.980358855039158E-002
  1.584287084031326E-002  1.188215313023495E-002  7.921435420156629E-003
  3.960717710078312E-003  0.000000000000000E+000  3.960717710078315E-002
  3.564645939070483E-002  3.168574168062652E-002  2.772502397054821E-002
  2.376430626046989E-002  1.980358855039158E-002  1.584287084031326E-002
  1.188215313023495E-002  7.921435420156629E-003  3.960717710078312E-003
  0.000000000000000E+000  3.960717710078315E-002  3.564645939070483E-002
  3.168574168062652E-002  2.772502397054821E-002  2.376430626046989E-002
  1.980358855039158E-002  1.584287084031326E-002  1.188215313023495E-002
  7.921435420156629E-003  3.960717710078312E-003  0.000000000000000E+000
  3.960717710078315E-002  3.564645939070483E-002  3.168574168062652E-002
  2.772502397054821E-002  2.376430626046989E-002  1.980358855039158E-002
  1.584287084031326E-002  1.188215313023495E-002  7.921435420156629E-003
  3.960717710078312E-003  0.000000000000000E+000  3.960717710078315E-002
  3.564645939070483E-002  3.168574168062652E-002  2.772502397054821E-002
  2.376430626046989E-002  1.980358855039158E-002  1.584287084031326E-002
  1.188215313023495E-002  7.921435420156629E-003  3.960717710078312E-003
  0.000000000000000E+000  3.960717710078315E-002  3.564645939070483E-002
  3.168574168062652E-002  2.772502397054821E-002  2.376430626046989E-002
  1.980358855039158E-002  1.584287084031326E-002  1.188215313023495E-002
  7.921435420156629E-003  3.960717710078312E-003  0.000000000000000E+000
  3.960717710078315E-002  3.564645939070483E-002  3.168574168062652E-002
  2.772502397054821E-002  2.376430626046989E-002  1.980358855039158E-002
  1.584287084031326E-002  1.188215313023495E-002  7.921435420156629E-003
  3.960717710078312E-003  0.000000000000000E+000  3.960717710078315E-002
  3.564645939070483E-002  3.168574168062652E-002  2.772502397054821E-002
  2.376430626046989E-002  1.980358855039158E-002  1.584287084031326E-002
  1.188215313023495E-002  7.921435420156629E-003  3.960717710078312E-003
  0.000000000000000E+000  3.960717710078315E-002  3.564645939070483E-002
  3.168574168062652E-002  2.772502397054821E-002  2.376430626046989E-002
  1.980358855039158E-002  1.584287084031326E-002  1.188215313023495E-002
  7.921435420156629E-003  3.960717710078312E-003  0.000000000000000E+000
  3.960717710078315E-002  3.564645939070483E-002  3.168574168062652E-002
  2.772502397054821E-002  2.376430626046989E-002  1.980358855039158E-002
  1.584287084031326E-002  1.188215313023495E-002  7.921435420156629E-003
  3.960717710078312E-003  0.000000000000000E+000  3.960717710078315E-002
  3.564645939070483E-002  3.168574168062652E-002  2.772502397054821E-002
  2.376430626046989E-002  1.980358855039158E-002  1.584287084031326E-002
  1.188215313023495E-002  7.921435420156629E-003  3.960717710078312E-003
  0.000000000000000E+000  3.960717710078315E-002  3.564645939070483E-002
  3.168574168062652E-002  2.772502397054821E-002  2.376430626046989E-002
  1.980358855039158E-002  1.584287084031326E-002  1.188215313023495E-002
  7.921435420156629E-003  3.960717710078312E-003  0.000000000000000E+000
  3.960717710078315E-002  3.564645939070483E-002  3.168574168062652E-002
  2.772502397054821E-002  2.376430626046989E-002  1.980358855039158E-002
  1.584287084031326E-002  1.188215313023495E-002  7.921435420156629E-003
  3.960717710078312E-003  0.000000000000000E+000  3.960717710078315E-002
  3.564645939070483E-002  3.168574168062652E-002  2.772502397054821E-002
  2.376430626046989E-002  1.980358855039158E-002  1.584287084031326E-002
  1.188215313023495E-002  7.921435420156629E-003  3.960717710078312E-003
  0.000000000000000E+000  3.960717710078315E-002  3.564645939070483E-002
  3.168574168062652E-002  2.772502397054821E-002  2.376430626046989E-002
  1.980358855039158E-002  1.584287084031326E-002  1.188215313023495E-002
  7.921435420156629E-003  3.960717710078312E-003  0.000000000000000E+000
  3.960717710078315E-002  3.564645939070483E-002  3.168574168062652E-002
  2.772502397054821E-002  2.376430626046989E-002  1.980358855039158E-002
  1.584287084031326E-002  1.188215313023495E-002  7.921435420156629E-003
  3.960717710078312E-003  0.000000000000000E+000  3.960717710078315E-002
  3.564645939070483E-002  3.168574168062652E-002  2.772502397054821E-002
  2.376430626046989E-002  1.980358855039158E-002  1.584287084031326E-002
  1.188215313023495E-002  7.921435420156629E-003  3.960717710078312E-003
  0.000000000000000E+000  3.960717710078315E-002  3.564645939070483E-002
  3.168574168062652E-002  2.772502397054821E-002  2.376430626046989E-002
  1.980358855039158E-002  1.584287084031326E-002  1.188215313023495E-002
  7.921435420156629E-003  3.960717710078312E-003  0.000000000000000E+000
  3.960717710078315E-002  3.564645939070483E-002  3.168574168062652E-002
  2.772502397054821E-002  2.376430626046989E-002  1.980358855039158E-002
  1.584287084031326E-002  1.188215313023495E-002  7.921435420156629E-003
  3.960717710078312E-003  0.000000000000000E+000  3.960717710078315E-002
  3.564645939070483E-002  3.168574168062652E-002  2.772502397054821E-002
  2.376430626046989E-002  1.980358855039158E-002  1.584287084031326E-002
  1.188215313023495E-002  7.921435420156629E-003  3.960717710078312E-003
  0.000000000000000E+000
  4.841838046910539E-002  9.392511496616042E-002  0.144326236924732     
  0.199946580272180       0.260165446751641       0.324006281468039     
  0.390256996968167       0.457085062083508       0.521074473069744     
  0.575874895301843       8.415999777025983E-002  0.161143003349957     
  0.245649031589443       0.338682605241091       0.439384126818481     
  0.546353328154371       0.657781203331562       0.770811416504854     
  0.880194952284358       0.977318572168648       0.124572841484469     
  0.230755053089818       0.344514006311377       0.468655378911680     
  0.602823025340863       0.745599570471390       0.895492230935975     
   1.04924736689600        1.20029885215193        1.33498619334609     
  0.169518183746721       0.299844647476727       0.433431840299394     
  0.576150179476237       0.729198942854310       0.891865740949666     
   1.06297132199322        1.23916197288030        1.41225838352016     
   1.56382719787906       0.221647654668296       0.373358575977403     
  0.519053515133137       0.668631215719978       0.825672024079613     
  0.991240797558777        1.16375682157272        1.33883063175041     
   1.50882005516793        1.65915279358455       0.285856196627659     
  0.461466479571861       0.618180190052685       0.770334622246416     
  0.923257055907274        1.07932746983186        1.23839076278050     
   1.39712379189091        1.54941897961000        1.68490697315507     
  0.368569779945009       0.575931705449598       0.748629663303767     
  0.906716037704781        1.05721779518679        1.20315210327140     
   1.34546322191813        1.48335301772168        1.61402592657714     
   1.72921919820480       0.473630811657455       0.723612865990747     
  0.920458915388032        1.09170904554461        1.24710956777138     
   1.39091881615196        1.52488524708311        1.64916211973586     
   1.76219127585434        1.85755702524186       0.601549118253078     
  0.905714993054650        1.13559251473559        1.32773142182827     
   1.49533136512891        1.64445258964624        1.77798688422537     
   1.89692545347854        2.00041789170113        2.08309773949234     
  0.750430944078847        1.11944239507134        1.39063182142306     
   1.61098627355493        1.79775947876139        1.95913288836294     
   2.09930948671996        2.22015346861756        2.32136228444293     
   2.39798758826971       0.917312963919705        1.36031382345245     
   1.67991781705149        1.93472740919733        2.14650235098530     
   2.32574708868356        2.47803286809219        2.60605488913931     
   2.70995524432207        2.78497002166088        1.09927842494676     
   1.62371148871232        1.99731171029351        2.29128048142245     
   2.53224363387588        2.73319173993600        2.90114944967035     
   3.03969467020898        3.14944578122000        3.22576907673969     
   1.29317758896903        1.90469609494327        2.33632412259675     
   2.67266440402336        2.94552286176156        3.17053795321976     
   3.35628520436665        3.50729951587310        3.62473721074261     
   3.70409178504830        1.49638695309792        2.19911427492757     
   2.69146049303405        3.07209107803902        3.37827488006507     
   3.62846728548369        3.83291128879093        3.99718666465399     
   4.12306760719467        4.20623160521431        1.70918365705797     
   2.50673854173756        3.06165870741317        3.48746073732872     
   3.82724650787812        4.10253199359131        4.32541008521869     
   4.50264711681065        4.63675329311426        4.72370929417202     
   1.93888165802676        2.83655478290628        3.45596450451576     
   3.92715748952634        4.29984705751956        4.59907216018304     
   4.83908142565340        5.02804103485597        5.16935228543063     
   5.25944015465310        2.19837613884296        3.20432464138772     
   3.89048403447670        4.40677285531436        4.81098972046123     
   5.13245165798365        5.38795652173984        5.58728212255236     
   5.73484166071780        5.82755096889182        2.47657505043517     
   3.59285314340157        4.34359520545651        4.90144178423255     
   5.33348242506597        5.67386729263469        5.94220167098210     
   6.15001260948285        6.30283436587410        6.39815824845039     
   2.71015823090724        3.91225775204434        4.70862126213660     
   5.29244171680716        5.73925390503250        6.08759812632042     
   6.35969421227186        6.56878266112065        6.72165094343336     
   6.81692715185668        2.81940084161682        4.04784614367557     
   4.84750351934765        5.42424665399329        5.85927013551515     
   6.19415459678345        6.45282258396420        6.64951459145819     
   6.79183660982065        6.87995451833613        2.77068198064630     
   3.94718102818251        4.69482579831873        5.22318034760356     
   5.61528157198039        5.91335022048426        6.14128852453294     
   6.31305324361772        6.43608268084084        6.51140793918413     
   2.56738520730967        3.60926209129207        4.24883206137271     
   4.69084942085492        5.01452473697495        5.25869174014784     
   5.44471225547682        5.58494621785606        5.68616742829934     
   5.74952094941493        2.21216102476091        3.03928425453755     
   3.52777187242246        3.86065816582733        4.10339786990760     
   4.28654179413969        4.42665638333157        4.53377749331530     
   4.61509470808358        4.67671203977688        1.68925974565756     
   2.24718361290912        2.57227298198434        2.79438159023203     
   2.95701658779007        3.08022984153336        3.17493014163635     
   3.24779494730890        3.30377497782240        3.34977999045661     
   1.02651600478142        1.33890742728300        1.52264092178090     
   1.64887740806970        1.74163497650089        1.81206026441146     
   1.86620753817892        1.90762963377225        1.93834111529699     
   1.95785726697157     
  0.000000000000000E+000  0.000000000000000E+000  0.000000000000000E+000
  0.000000000000000E+000  0.000000000000000E+000  0.000000000000000E+000
  0.000000000000000E+000  0.000000000000000E+000  0.000000000000000E+000
  0.000000000000000E+000  0.000000000000000E+000  0.000000000000000E+000
  0.000000000000000E+000  0.000000000000000E+000  0.000000000000000E+000
  0.000000000000000E+000  0.000000000000000E+000  0.000000000000000E+000
  0.000000000000000E+000  0.000000000000000E+000  0.000000000000000E+000
  0.000000000000000E+000  0.000000000000000E+000  0.000000000000000E+000
  0.000000000000000E+000  0.000000000000000E+000  0.000000000000000E+000
  0.000000000000000E+000  0.000000000000000E+000  0.000000000000000E+000
  0.000000000000000E+000  0.000000000000000E+000  0.000000000000000E+000
  0.000000000000000E+000  0.000000000000000E+000  0.000000000000000E+000
  0.000000000000000E+000  0.000000000000000E+000  0.000000000000000E+000
  0.000000000000000E+000  0.000000000000000E+000  0.000000000000000E+000
  0.000000000000000E+000  0.000000000000000E+000  0.000000000000000E+000
  0.000000000000000E+000  0.000000000000000E+000  0.000000000000000E+000
  0.000000000000000E+000  0.000000000000000E+000  0.000000000000000E+000
  0.000000000000000E+000  0.000000000000000E+000  0.000000000000000E+000
  0.000000000000000E+000  0.000000000000000E+000  0.000000000000000E+000
  0.000000000000000E+000  0.000000000000000E+000  0.000000000000000E+000
  0.000000000000000E+000  0.000000000000000E+000  0.000000000000000E+000
  0.000000000000000E+000  0.000000000000000E+000  0.000000000000000E+000
  0.000000000000000E+000  0.000000000000000E+000  0.000000000000000E+000
  0.000000000000000E+000  0.000000000000000E+000  0.000000000000000E+000
  0.000000000000000E+000  0.000000000000000E+000  0.000000000000000E+000
  0.000000000000000E+000  0.000000000000000E+000  0.000000000000000E+000
  0.000000000000000E+000  0.000000000000000E+000  0.000000000000000E+000
  0.000000000000000E+000  0.000000000000000E+000  0.000000000000000E+000
  0.000000000000000E+000  0.000000000000000E+000  0.000000000000000E+000
  0.000000000000000E+000  0.000000000000000E+000  0.000000000000000E+000
  0.000000000000000E+000  0.000000000000000E+000  0.000000000000000E+000
  0.000000000000000E+000  0.000000000000000E+000  0.000000000000000E+000
  0.000000000000000E+000  0.000000000000000E+000  0.000000000000000E+000
  0.000000000000000E+000  0.000000000000000E+000  0.000000000000000E+000
  0.000000000000000E+000  0.000000000000000E+000  0.000000000000000E+000
  0.000000000000000E+000  0.000000000000000E+000  0.000000000000000E+000
  0.000000000000000E+000  0.000000000000000E+000  0.000000000000000E+000
  0.000000000000000E+000  0.000000000000000E+000  0.000000000000000E+000
  0.000000000000000E+000  0.000000000000000E+000  0.000000000000000E+000