 Title = "Wing and Wake"
 VARIABLES = "X" "Y" "Z" "GAM" "skew"
 Zone I=   11 J=   26 K=1  T="Blade"
 DATAPACKING=BLOCK
 VARLOCATION=([4]=CELLCENTERED,[5]=CELLCENTERED)
 -0.266388675277701      -0.253764049569482      -0.241139423861263     
 -0.228514798153044      -0.215890172444824      -0.203265546736605     
 -0.190640921028386      -0.178016295320166      -0.165391669611947     
 -0.152767043903727      -0.140142418195508      -0.269150674436344     
 -0.256526048728125      -0.243901423019906      -0.231276797311687     
 -0.218652171603467      -0.206027545895248      -0.193402920187029     
 -0.180778294478809      -0.168153668770590      -0.155529043062371     
 -0.142904417354151      -0.277393113535603      -0.264768487827384     
 -0.252143862119165      -0.239519236410945      -0.226894610702726     
 -0.214269984994507      -0.201645359286287      -0.189020733578068     
 -0.176396107869849      -0.163771482161629      -0.151146856453410     
 -0.290986004387089      -0.278361378678870      -0.265736752970650     
 -0.253112127262431      -0.240487501554211      -0.227862875845992     
 -0.215238250137773      -0.202613624429553      -0.189988998721334     
 -0.177364373013115      -0.164739747304895      -0.309714978982072     
 -0.297090353273853      -0.284465727565634      -0.271841101857414     
 -0.259216476149195      -0.246591850440976      -0.233967224732757     
 -0.221342599024537      -0.208717973316318      -0.196093347608099     
 -0.183468721899879      -0.333284670203045      -0.320660044494826     
 -0.308035418786606      -0.295410793078387      -0.282786167370168     
 -0.270161541661949      -0.257536915953729      -0.244912290245510     
 -0.232287664537291      -0.219663038829071      -0.207038413120852     
 -0.361323369939600      -0.348698744231381      -0.336074118523162     
 -0.323449492814943      -0.310824867106723      -0.298200241398505     
 -0.285575615690285      -0.272950989982066      -0.260326364273846     
 -0.247701738565627      -0.235077112857407      -0.393388891147387     
 -0.380764265439167      -0.368139639730948      -0.355515014022729     
 -0.342890388314510      -0.330265762606290      -0.317641136898071     
 -0.305016511189852      -0.292391885481632      -0.279767259773413     
 -0.267142634065194      -0.428975541401943      -0.416350915693723     
 -0.403726289985504      -0.391101664277285      -0.378477038569066     
 -0.365852412860846      -0.353227787152626      -0.340603161444407     
 -0.327978535736188      -0.315353910027969      -0.302729284319750     
 -0.467522097970318      -0.454897472262100      -0.442272846553880     
 -0.429648220845661      -0.417023595137442      -0.404398969429222     
 -0.391774343721003      -0.379149718012784      -0.366525092304564     
 -0.353900466596345      -0.341275840888125      -0.508420658628836     
 -0.495796032920617      -0.483171407212398      -0.470546781504178     
 -0.457922155795959      -0.445297530087740      -0.432672904379520     
 -0.420048278671300      -0.407423652963081      -0.394799027254862     
 -0.382174401546643      -0.551026228644292      -0.538401602936073     
 -0.525776977227855      -0.513152351519634      -0.500527725811415     
 -0.487903100103197      -0.475278474394977      -0.462653848686758     
 -0.450029222978538      -0.437404597270319      -0.424779971562100     
 -0.594666892726213      -0.582042267017993      -0.569417641309772     
 -0.556793015601554      -0.544168389893334      -0.531543764185115     
 -0.518919138476896      -0.506294512768677      -0.493669887060458     
 -0.481045261352238      -0.468420635644019      -0.638654411532354     
 -0.626029785824133      -0.613405160115914      -0.600780534407695     
 -0.588155908699476      -0.575531282991256      -0.562906657283037     
 -0.550282031574818      -0.537657405866599      -0.525032780158379     
 -0.512408154450160      -0.682295075614272      -0.669670449906053     
 -0.657045824197835      -0.644421198489614      -0.631796572781394     
 -0.619171947073177      -0.606547321364956      -0.593922695656736     
 -0.581298069948517      -0.568673444240297      -0.556048818532080     
 -0.724900645629729      -0.712276019921509      -0.699651394213291     
 -0.687026768505072      -0.674402142796853      -0.661777517088632     
 -0.649152891380413      -0.636528265672194      -0.623903639963975     
 -0.611279014255754      -0.598654388547536      -0.765799206288247     
 -0.753174580580027      -0.740549954871807      -0.727925329163589     
 -0.715300703455369      -0.702676077747150      -0.690051452038931     
 -0.677426826330711      -0.664802200622492      -0.652177574914273     
 -0.639552949206054      -0.804345762856623      -0.791721137148403     
 -0.779096511440183      -0.766471885731964      -0.753847260023745     
 -0.741222634315527      -0.728598008607306      -0.715973382899087     
 -0.703348757190867      -0.690724131482648      -0.678099505774429     
 -0.839932413111178      -0.827307787402957      -0.814683161694739     
 -0.802058535986520      -0.789433910278301      -0.776809284570082     
 -0.764184658861861      -0.751560033153643      -0.738935407445424     
 -0.726310781737203      -0.713686156028985      -0.871997934318964     
 -0.859373308610745      -0.846748682902524      -0.834124057194307     
 -0.821499431486087      -0.808874805777866      -0.796250180069648     
 -0.783625554361429      -0.771000928653209      -0.758376302944990     
 -0.745751677236770      -0.900036634055520      -0.887412008347301     
 -0.874787382639080      -0.862162756930861      -0.849538131222643     
 -0.836913505514423      -0.824288879806204      -0.811664254097984     
 -0.799039628389765      -0.786415002681545      -0.773790376973325     
 -0.923606325276492      -0.910981699568274      -0.898357073860053     
 -0.885732448151834      -0.873107822443616      -0.860483196735397     
 -0.847858571027176      -0.835233945318957      -0.822609319610738     
 -0.809984693902518      -0.797360068194299      -0.942335299871475     
 -0.929710674163256      -0.917086048455037      -0.904461422746818     
 -0.891836797038600      -0.879212171330380      -0.866587545622161     
 -0.853962919913941      -0.841338294205721      -0.828713668497503     
 -0.816089042789282      -0.955928190722962      -0.943303565014742     
 -0.930678939306522      -0.918054313598303      -0.905429687890085     
 -0.892805062181864      -0.880180436473646      -0.867555810765425     
 -0.854931185057206      -0.842306559348987      -0.829681933640767     
 -0.964170629822220      -0.951546004114001      -0.938921378405783     
 -0.926296752697561      -0.913672126989342      -0.901047501281123     
 -0.888422875572902      -0.875798249864683      -0.863173624156466     
 -0.850548998448246      -0.837924372740027      -0.966932628980862     
 -0.954308003272643      -0.941683377564425      -0.929058751856205     
 -0.916434126147986      -0.903809500439767      -0.891184874731548     
 -0.878560249023327      -0.865935623315109      -0.853310997606888     
 -0.840686371898671     
 -7.960072707442848E-003  5.745183253261914E-003  1.945043921396685E-002
  3.315569517467175E-002  4.686095113537691E-002  6.056620709608144E-002
  7.427146305678650E-002  8.797671901749125E-002  0.101681974978196     
  0.115387230938901       0.129092486899606      -5.415851301854954E-003
  8.289404658849916E-003  2.199466061955481E-002  3.569991658025967E-002
  4.940517254096451E-002  6.311042850166940E-002  7.681568446237422E-002
  9.052094042307900E-002  0.104226196383784       0.117931452344489     
  0.131636708305194       2.176689023497981E-003  1.588194498420279E-002
  2.958720094490780E-002  4.329245690561267E-002  5.699771286631730E-002
  7.070296882702233E-002  8.440822478772751E-002  9.811348074843208E-002
  0.111818736709137       0.125523992669842       0.139229248630546     
  1.469780937212179E-002  2.840306533282685E-002  4.210832129353180E-002
  5.581357725423652E-002  6.951883321494125E-002  8.322408917564621E-002
  9.692934513635108E-002  0.110634601097056       0.124339857057761     
  0.138045113018466       0.151750368979170       3.195004419636346E-002
  4.565530015706826E-002  5.936055611777336E-002  7.306581207847825E-002
  8.677106803918301E-002  0.100476323999888       0.114181579960593     
  0.127886835921298       0.141592091882002       0.155297347842707     
  0.169002603803412       5.366131544705947E-002  6.736657140776475E-002
  8.107182736846931E-002  9.477708332917457E-002  0.108482339289879     
  0.122187595250585       0.135892851211289       0.149598107171994     
  0.163303363132699       0.177008619093404       0.190713875054109     
  7.948922340690205E-002  9.319447936760676E-002  0.106899735328312     
  0.120604991289017       0.134310247249722       0.148015503210427     
  0.161720759171131       0.175426015131836       0.189131271092540     
  0.202836527053246       0.216541783013950       0.109026446538519     
  0.122731702499224       0.136436958459929       0.150142214420634     
  0.163847470381339       0.177552726342044       0.191257982302749     
  0.204963238263453       0.218668494224158       0.232373750184863     
  0.246079006145568       0.141807165188444       0.155512421149149     
  0.169217677109854       0.182922933070559       0.196628189031264     
  0.210333444991968       0.224038700952673       0.237743956913378     
  0.251449212874083       0.265154468834788       0.278859724795493     
  0.177314407841315       0.191019663802020       0.204724919762725     
  0.218430175723430       0.232135431684135       0.245840687644839     
  0.259545943605544       0.273251199566249       0.286956455526954     
  0.300661711487658       0.314366967448363       0.214988204069498     
  0.228693460030203       0.242398715990907       0.256103971951612     
  0.269809227912317       0.283514483873022       0.297219739833726     
  0.310924995794432       0.324630251755136       0.338335507715842     
  0.352040763676546       0.254234415601239       0.267939671561943     
  0.281644927522649       0.295350183483353       0.309055439444058     
  0.322760695404763       0.336465951365468       0.350171207326173     
  0.363876463286878       0.377581719247582       0.391286975208287     
  0.294434106236132       0.308139362196837       0.321844618157542     
  0.335549874118246       0.349255130078952       0.362960386039656     
  0.376665642000362       0.390370897961066       0.404076153921771     
  0.417781409882476       0.431486665843181       0.334953302838734     
  0.348658558799439       0.362363814760143       0.376069070720849     
  0.389774326681554       0.403479582642259       0.417184838602964     
  0.430890094563667       0.444595350524374       0.458300606485078     
  0.472005862445783       0.375152993473627       0.388858249434332     
  0.402563505395038       0.416268761355741       0.429974017316447     
  0.443679273277152       0.457384529237856       0.471089785198562     
  0.484795041159266       0.498500297119970       0.512205553080677     
  0.414399205005369       0.428104460966073       0.441809716926779     
  0.455514972887483       0.469220228848188       0.482925484808893     
  0.496630740769597       0.510335996730302       0.524041252691007     
  0.537746508651711       0.551451764612417       0.452073001233551     
  0.465778257194256       0.479483513154961       0.493188769115666     
  0.506894025076371       0.520599281037076       0.534304536997781     
  0.548009792958486       0.561715048919190       0.575420304879896     
  0.589125560840600       0.487580243886422       0.501285499847127     
  0.514990755807832       0.528696011768536       0.542401267729241     
  0.556106523689947       0.569811779650651       0.583517035611356     
  0.597222291572061       0.610927547532765       0.624632803493470     
  0.520360962536347       0.534066218497051       0.547771474457757     
  0.561476730418461       0.575181986379166       0.588887242339871     
  0.602592498300575       0.616297754261281       0.630003010221986     
  0.643708266182691       0.657413522143395       0.549898185667963     
  0.563603441628669       0.577308697589373       0.591013953550080     
  0.604719209510783       0.618424465471489       0.632129721432192     
  0.645834977392899       0.659540233353603       0.673245489314309     
  0.686950745275012       0.575726093627807       0.589431349588512     
  0.603136605549215       0.616841861509920       0.630547117470625     
  0.644252373431330       0.657957629392037       0.671662885352740     
  0.685368141313445       0.699073397274150       0.712778653234854     
  0.597437364878501       0.611142620839207       0.624847876799912     
  0.638553132760617       0.652258388721321       0.665963644682028     
  0.679668900642731       0.693374156603436       0.707079412564141     
  0.720784668524847       0.734489924485552       0.614689599702745     
  0.628394855663448       0.642100111624153       0.655805367584858     
  0.669510623545564       0.683215879506268       0.696921135466974     
  0.710626391427679       0.724331647388384       0.738036903349087     
  0.751742159309793       0.627210720051367       0.640915976012071     
  0.654621231972778       0.668326487933482       0.682031743894188     
  0.695736999854893       0.709442255815597       0.723147511776303     
  0.736852767737006       0.750558023697713       0.764263279658417     
  0.634803260376721       0.648508516337424       0.662213772298129     
  0.675919028258834       0.689624284219540       0.703329540180246     
  0.717034796140950       0.730740052101654       0.744445308062360     
  0.758150564023065       0.771855819983769       0.637347481782307     
  0.651052737743014       0.664757993703717       0.678463249664424     
  0.692168505625128       0.705873761585833       0.719579017546539     
  0.733284273507242       0.746989529467947       0.760694785428651     
  0.774400041389359     
  3.960717710078315E-002  3.564645939070483E-002  3.168574168062652E-002
  2.772502397054821E-002  2.376430626046989E-002  1.980358855039158E-002
  1.584287084031326E-002  1.188215313023495E-002  7.921435420156629E-003
  3.960717710078312E-003  0.000000000000000E+000  3.960717710078315E-002
  3.564645939070483E-002  3.168574168062652E-002  2.772502397054821E-002
  2.376430626046989E-002  1.980358855039158E-002  1.584287084031326E-002
  1.188215313023495E-002  7.921435420156629E-003  3.960717710078312E-003
  0.000000000000000E+000  3.960717710078315E-002  3.564645939070483E-002
  3.168574168062652E-002  2.772502397054821E-002  2.376430626046989E-002
  1.980358855039158E-002  1.584287084031326E-002  1.188215313023495E-002
  7.921435420156629E-003  3.960717710078312E-003  0.000000000000000E+000
  3.960717710078315E-002  3.564645939070483E-002  3.168574168062652E-002
  2.772502397054821E-002  2.376430626046989E-002  1.980358855039158E-002
  1.584287084031326E-002  1.188215313023495E-002  7.921435420156629E-003
  3.960717710078312E-003  0.000000000000000E+000  3.960717710078315E-002
  3.564645939070483E-002  3.168574168062652E-002  2.772502397054821E-002
  2.376430626046989E-002  1.980358855039158E-002  1.584287084031326E-002
  1.188215313023495E-002  7.921435420156629E-003  3.960717710078312E-003
  0.000000000000000E+000  3.960717710078315E-002  3.564645939070483E-002
  3.168574168062652E-002  2.772502397054821E-002  2.376430626046989E-002
  1.980358855039158E-002  1.584287084031326E-002  1.188215313023495E-002
  7.921435420156629E-003  3.960717710078312E-003  0.000000000000000E+000
  3.960717710078315E-002  3.564645939070483E-002  3.168574168062652E-002
  2.772502397054821E-002  2.376430626046989E-002  1.980358855039158E-002
  1.584287084031326E-002  1.188215313023495E-002  7.921435420156629E-003
  3.960717710078312E-003  0.000000000000000E+000  3.960717710078315E-002
  3.564645939070483E-002  3.168574168062652E-002  2.772502397054821E-002
  2.376430626046989E-002  1.980358855039158E-002  1.584287084031326E-002
  1.188215313023495E-002  7.921435420156629E-003  3.960717710078312E-003
  0.000000000000000E+000  3.960717710078315E-002  3.564645939070483E-002
  3.168574168062652E-002  2.772502397054821E-002  2.376430626046989E-002
  1.980358855039158E-002  1.584287084031326E-002  1.188215313023495E-002
  7.921435420156629E-003  3.960717710078312E-003  0.000000000000000E+000
  3.960717710078315E-002  3.564645939070483E-002  3.168574168062652E-002
  2.772502397054821E-002  2.376430626046989E-002  1.980358855039158E-002
  1.584287084031326E-002  1.188215313023495E-002  7.921435420156629E-003
  3.960717710078312E-003  0.000000000000000E+000  3.960717710078315E-002
  3.564645939070483E-002  3.168574168062652E-002  2.772502397054821E-002
  2.376430626046989E-002  1.980358855039158E-002  1.584287084031326E-002
  1.188215313023495E-002  7.921435420156629E-003  3.960717710078312E-003
  0.000000000000000E+000  3.960717710078315E-002  3.564645939070483E-002
  3.168574168062652E-002  2.772502397054821E-002  2.376430626046989E-002
  1.980358855039158E-002  1.584287084031326E-002  1.188215313023495E-002
  7.921435420156629E-003  3.960717710078312E-003  0.000000000000000E+000
  3.960717710078315E-002  3.564645939070483E-002  3.168574168062652E-002
  2.772502397054821E-002  2.376430626046989E-002  1.980358855039158E-002
  1.584287084031326E-002  1.188215313023495E-002  7.921435420156629E-003
  3.960717710078312E-003  0.000000000000000E+000  3.960717710078315E-002
  3.564645939070483E-002  3.168574168062652E-002  2.772502397054821E-002
  2.376430626046989E-002  1.980358855039158E-002  1.584287084031326E-002
  1.188215313023495E-002  7.921435420156629E-003  3.960717710078312E-003
  0.000000000000000E+000  3.960717710078315E-002  3.564645939070483E-002
  3.168574168062652E-002  2.772502397054821E-002  2.376430626046989E-002
  1.980358855039158E-002  1.584287084031326E-002  1.188215313023495E-002
  7.921435420156629E-003  3.960717710078312E-003  0.000000000000000E+000
  3.960717710078315E-002  3.564645939070483E-002  3.168574168062652E-002
  2.772502397054821E-002  2.376430626046989E-002  1.980358855039158E-002
  1.584287084031326E-002  1.188215313023495E-002  7.921435420156629E-003
  3.960717710078312E-003  0.000000000000000E+000  3.960717710078315E-002
  3.564645939070483E-002  3.168574168062652E-002  2.772502397054821E-002
  2.376430626046989E-002  1.980358855039158E-002  1.584287084031326E-002
  1.188215313023495E-002  7.921435420156629E-003  3.960717710078312E-003
  0.000000000000000E+000  3.960717710078315E-002  3.564645939070483E-002
  3.168574168062652E-002  2.772502397054821E-002  2.376430626046989E-002
  1.980358855039158E-002  1.584287084031326E-002  1.188215313023495E-002
  7.921435420156629E-003  3.960717710078312E-003  0.000000000000000E+000
  3.960717710078315E-002  3.564645939070483E-002  3.168574168062652E-002
  2.772502397054821E-002  2.376430626046989E-002  1.980358855039158E-002
  1.584287084031326E-002  1.188215313023495E-002  7.921435420156629E-003
  3.960717710078312E-003  0.000000000000000E+000  3.960717710078315E-002
  3.564645939070483E-002  3.168574168062652E-002  2.772502397054821E-002
  2.376430626046989E-002  1.980358855039158E-002  1.584287084031326E-002
  1.188215313023495E-002  7.921435420156629E-003  3.960717710078312E-003
  0.000000000000000E+000  3.960717710078315E-002  3.564645939070483E-002
  3.168574168062652E-002  2.772502397054821E-002  2.376430626046989E-002
  1.980358855039158E-002  1.584287084031326E-002  1.188215313023495E-002
  7.921435420156629E-003  3.960717710078312E-003  0.000000000000000E+000
  3.960717710078315E-002  3.564645939070483E-002  3.168574168062652E-002
  2.772502397054821E-002  2.376430626046989E-002  1.980358855039158E-002
  1.584287084031326E-002  1.188215313023495E-002  7.921435420156629E-003
  3.960717710078312E-003  0.000000000000000E+000  3.960717710078315E-002
  3.564645939070483E-002  3.168574168062652E-002  2.772502397054821E-002
  2.376430626046989E-002  1.980358855039158E-002  1.584287084031326E-002
  1.188215313023495E-002  7.921435420156629E-003  3.960717710078312E-003
  0.000000000000000E+000  3.960717710078315E-002  3.564645939070483E-002
  3.168574168062652E-002  2.772502397054821E-002  2.376430626046989E-002
  1.980358855039158E-002  1.584287084031326E-002  1.188215313023495E-002
  7.921435420156629E-003  3.960717710078312E-003  0.000000000000000E+000
  3.960717710078315E-002  3.564645939070483E-002  3.168574168062652E-002
  2.772502397054821E-002  2.376430626046989E-002  1.980358855039158E-002
  1.584287084031326E-002  1.188215313023495E-002  7.921435420156629E-003
  3.960717710078312E-003  0.000000000000000E+000  3.960717710078315E-002
  3.564645939070483E-002  3.168574168062652E-002  2.772502397054821E-002
  2.376430626046989E-002  1.980358855039158E-002  1.584287084031326E-002
  1.188215313023495E-002  7.921435420156629E-003  3.960717710078312E-003
  0.000000000000000E+000
  3.294301346247948E-002  5.594312446048649E-002  7.724860620076872E-002
  9.753898371834112E-002  0.116847577540195       0.135164479820506     
  0.152549470014340       0.169137009326202       0.185064778485088     
  0.199768605461231       5.737225343196752E-002  9.690437707417654E-002
  0.133099862765705       0.167448159294573       0.200135663860858     
  0.231186484834842       0.260711351886521       0.288971251709033     
  0.316340209334085       0.342651621944288       8.662412197034511E-002
  0.143627451710861       0.194445017885733       0.242096652388383     
  0.287292462328486       0.330265672789648       0.371252697166816     
  0.410653134219843       0.448940237723929       0.485190735492756     
  0.124357148116580       0.200264187107781       0.265299299413940     
  0.324866931617616       0.380635809473645       0.433283341768658     
  0.483184996167574       0.530591701428358       0.575384567341904     
  0.615187378295307       0.176553303771382       0.276140315621091     
  0.357401529541525       0.429320023097151       0.494954081295874     
  0.555639387910313       0.612014529942902       0.664293639518130     
  0.712012851782448       0.752256139324447       0.248711691033436     
  0.380226254660578       0.482600813972326       0.569845129429761     
  0.646941255157346       0.716176201389658       0.778653248013261     
  0.834702676850248       0.883732382928228       0.922700097079280     
  0.343823722351442       0.517582152229590       0.647889858393141     
  0.755361900021700       0.847481307684570       0.927756211547014     
  0.997937799242497        1.05869973862733        1.10961225507365     
   1.14768527899804       0.461754504667066       0.688485373301189     
  0.854174468647160       0.987542274495518        1.09914494725253     
   1.19402606143729        1.27481307715919        1.34269438917757     
   1.39749056053169        1.43622210403401       0.600355571488125     
  0.889997296896226        1.09816147203867        1.26302876665769     
   1.39876780363083        1.51223387836819        1.60708073496187     
   1.68508375013813        1.74631913745306        1.78772120060218     
  0.757146155017166        1.11847506342222        1.37544386674597     
   1.57687508143853        1.74099982825772        1.87670848020042     
   1.98880101404499        2.07969658981950        2.14973884515938     
   2.19569188807186       0.929905323371310        1.37047625369617     
   1.68159858000405        1.92379365474699        2.11975735766859     
   2.28061499787723        2.41243144771380        2.51834966047693     
   2.59901624093630        2.65096048874278        1.11625189733072     
   1.64229658484814        2.01183927814834        2.29802796234514     
   2.52839007839211        2.71648222276020        2.86975052737678     
   2.99213259414792        3.08461964892062        3.14350272665235     
   1.31346827614695        1.92976413456389        2.36083469708933     
   2.69323127713919        2.95962896149261        3.17619114201350     
   3.35185671176865        3.49143298367931        3.59632240678495     
   3.66263737792527        1.51915667695147        2.22912364080705     
   2.72369229327248        3.10346512686027        3.40654217687184     
   3.65186618931855        3.85000044088721        4.00673227076025     
   4.12397390807522        4.19776323516563        1.73355157503513     
   2.54012741212846        3.09938689830368        3.52676717598873     
   3.86616219031482        4.13953347545555        4.35925877418600     
   4.53227459845302        4.66116194772855        4.74205207791744     
   1.96331250497683        2.87092756176773        3.49609447125305     
   3.97069696692248        4.34519094557353        4.64501973285441     
   4.88468464362684        5.07250481930650        5.21193768085441     
   5.29941747541348        2.21907467978645        3.23434491701172     
   3.92671424185479        4.44755392647310        4.85525983166311     
   5.17949174284960        5.43727835226954        5.63855969255995     
   5.78784564520386        5.88200968553160        2.48778444704323     
   3.61039280856355        4.36626086547388        4.92862821697859     
   5.36487494900008        5.70936998752066        5.98189740735427     
   6.19414418254417        6.35179966467008        6.45235262885935     
   2.70908865604432        3.91300571183463        4.71211412406293     
   5.29918500166928        5.74968769949230        6.10219546526286     
   6.37896631698290        6.59331423112913        6.75216651713407     
   6.85418779858993        2.80869359257226        4.03501635865986     
   4.83504493524496        5.41345040975914        5.85102634499350     
   6.18921002267979        6.45185671682918        6.65320184998162     
   6.80092237868960        6.89517596754937        2.75484083086780     
   3.92679376909725        4.67315025877080        5.20191453590949     
   5.59550696558489        5.89585798127598        6.12672924719476     
   6.30203139524239        6.42922651129455        6.50929632811785     
   2.55022270815269        3.58684953910530        4.22450440300650     
   4.66628852026047        4.99075977096534        5.23643818180723     
   5.42452661446367        5.56731614123935        5.67157213153502     
   5.73837888566771        2.19623403509444        3.01872549178895     
   3.50547510201582        3.83799197437697        4.08117358441970     
   4.26531008251980        4.40683383413139        4.51571712350924     
   4.59912994043146        4.66311981234133        1.67661765693486     
   2.23132552125177        2.55521634930784        2.77704613394767     
   2.93994478766682        3.06378811646723        3.15939322597004     
   3.23339196486201        3.29071603425285        3.33822684120983     
   1.01872695730862        1.32932162122191        1.51237974146696     
   1.63845728768650        1.73136250628305        1.80214303337344     
   1.85680115077098        1.89886357971302        1.93033411733064     
   1.95070622429660     
  0.000000000000000E+000  0.000000000000000E+000  0.000000000000000E+000
  0.000000000000000E+000  0.000000000000000E+000  0.000000000000000E+000
  0.000000000000000E+000  0.000000000000000E+000  0.000000000000000E+000
  0.000000000000000E+000  0.000000000000000E+000  0.000000000000000E+000
  0.000000000000000E+000  0.000000000000000E+000  0.000000000000000E+000
  0.000000000000000E+000  0.000000000000000E+000  0.000000000000000E+000
  0.000000000000000E+000  0.000000000000000E+000  0.000000000000000E+000
  0.000000000000000E+000  0.000000000000000E+000  0.000000000000000E+000
  0.000000000000000E+000  0.000000000000000E+000  0.000000000000000E+000
  0.000000000000000E+000  0.000000000000000E+000  0.000000000000000E+000
  0.000000000000000E+000  0.000000000000000E+000  0.000000000000000E+000
  0.000000000000000E+000  0.000000000000000E+000  0.000000000000000E+000
  0.000000000000000E+000  0.000000000000000E+000  0.000000000000000E+000
  0.000000000000000E+000  0.000000000000000E+000  0.000000000000000E+000
  0.000000000000000E+000  0.000000000000000E+000  0.000000000000000E+000
  0.000000000000000E+000  0.000000000000000E+000  0.000000000000000E+000
  0.000000000000000E+000  0.000000000000000E+000  0.000000000000000E+000
  0.000000000000000E+000  0.000000000000000E+000  0.000000000000000E+000
  0.000000000000000E+000  0.000000000000000E+000  0.000000000000000E+000
  0.000000000000000E+000  0.000000000000000E+000  0.000000000000000E+000
  0.000000000000000E+000  0.000000000000000E+000  0.000000000000000E+000
  0.000000000000000E+000  0.000000000000000E+000  0.000000000000000E+000
  0.000000000000000E+000  0.000000000000000E+000  0.000000000000000E+000
  0.000000000000000E+000  0.000000000000000E+000  0.000000000000000E+000
  0.000000000000000E+000  0.000000000000000E+000  0.000000000000000E+000
  0.000000000000000E+000  0.000000000000000E+000  0.000000000000000E+000
  0.000000000000000E+000  0.000000000000000E+000  0.000000000000000E+000
  0.000000000000000E+000  0.000000000000000E+000  0.000000000000000E+000
  0.000000000000000E+000  0.000000000000000E+000  0.000000000000000E+000
  0.000000000000000E+000  0.000000000000000E+000  0.000000000000000E+000
  0.000000000000000E+000  0.000000000000000E+000  0.000000000000000E+000
  0.000000000000000E+000  0.000000000000000E+000  0.000000000000000E+000
  0.000000000000000E+000  0.000000000000000E+000  0.000000000000000E+000
  0.000000000000000E+000  0.000000000000000E+000  0.000000000000000E+000
  0.000000000000000E+000  0.000000000000000E+000  0.000000000000000E+000
  0.000000000000000E+000  0.000000000000000E+000  0.000000000000000E+000
  0.000000000000000E+000  0.000000000000000E+000  0.000000000000000E+000
  0.000000000000000E+000  0.000000000000000E+000  0.000000000000000E+000
  0.000000000000000E+000  0.000000000000000E+000  0.000000000000000E+000