 Title = "Wing and Wake"
 VARIABLES = "X" "Y" "Z" "GAM" "skew"
 Zone I=   11 J=   26 K=1  T="Blade"
 DATAPACKING=BLOCK
 VARLOCATION=([4]=CELLCENTERED,[5]=CELLCENTERED)
 -0.234694085903748      -0.216908857822372      -0.199123629740996     
 -0.181338401659620      -0.163553173578244      -0.145767945496868     
 -0.127982717415492      -0.110197489334116      -9.241226125274037E-002
 -7.462703317136411E-002 -5.684180508998826E-002 -0.235814353556153     
 -0.218029125474778      -0.200243897393401      -0.182458669312026     
 -0.164673441230649      -0.146888213149274      -0.129102985067897     
 -0.111317756986522      -9.353252890514575E-002 -7.574730082376983E-002
 -5.796207274239364E-002 -0.239157489223276      -0.221372261141900     
 -0.203587033060524      -0.185801804979148      -0.168016576897772     
 -0.150231348816396      -0.132446120735020      -0.114660892653644     
 -9.687566457226814E-002 -7.909043649089180E-002 -6.130520840951593E-002
 -0.244670769658552      -0.226885541577176      -0.209100313495800     
 -0.191315085414424      -0.173529857333048      -0.155744629251672     
 -0.137959401170297      -0.120174173088920      -0.102388945007544     
 -8.460371692616810E-002 -6.681848884479241E-002 -0.252267247136044     
 -0.234482019054668      -0.216696790973292      -0.198911562891916     
 -0.181126334810540      -0.163341106729164      -0.145555878647788     
 -0.127770650566412      -0.109985422485036      -9.220019440366023E-002
 -7.441496632228409E-002 -0.261827120668015      -0.244041892586640     
 -0.226256664505263      -0.208471436423887      -0.190686208342512     
 -0.172900980261136      -0.155115752179759      -0.137330524098384     
 -0.119545296017008      -0.101760067935631      -8.397483985425534E-002
 -0.273199625338076      -0.255414397256700      -0.237629169175325     
 -0.219843941093948      -0.202058713012572      -0.184273484931196     
 -0.166488256849820      -0.148703028768444      -0.130917800687069     
 -0.113132572605692      -9.534734452431622E-002 -0.286205409953974     
 -0.268420181872597      -0.250634953791222      -0.232849725709846     
 -0.215064497628470      -0.197279269547094      -0.179494041465718     
 -0.161708813384342      -0.143923585302966      -0.126138357221590     
 -0.108353129140214      -0.300639365523037      -0.282854137441661     
 -0.265068909360285      -0.247283681278909      -0.229498453197534     
 -0.211713225116157      -0.193927997034781      -0.176142768953405     
 -0.158357540872029      -0.140572312790653      -0.122787084709277     
 -0.316273859943514      -0.298488631862138      -0.280703403780762     
 -0.262918175699386      -0.245132947618010      -0.227347719536634     
 -0.209562491455258      -0.191777263373883      -0.173992035292506     
 -0.156206807211130      -0.138421579129754      -0.332862327898801     
 -0.315077099817425      -0.297291871736048      -0.279506643654673     
 -0.261721415573296      -0.243936187491921      -0.226150959410545     
 -0.208365731329168      -0.190580503247793      -0.172795275166416     
 -0.155010047085040      -0.350143159339770      -0.332357931258394     
 -0.314572703177018      -0.296787475095641      -0.279002247014266     
 -0.261217018932891      -0.243431790851514      -0.225646562770138     
 -0.207861334688762      -0.190076106607386      -0.172290878526011     
 -0.367843825231531      -0.350058597150155      -0.332273369068778     
 -0.314488140987403      -0.296702912906027      -0.278917684824651     
 -0.261132456743274      -0.243347228661899      -0.225562000580523     
 -0.207776772499147      -0.189991544417771      -0.385685175499105     
 -0.367899947417728      -0.350114719336353      -0.332329491254976     
 -0.314544263173600      -0.296759035092224      -0.278973807010848     
 -0.261188578929473      -0.243403350848097      -0.225618122766720     
 -0.207832894685344      -0.403385841390865      -0.385600613309489     
 -0.367815385228113      -0.350030157146737      -0.332244929065360     
 -0.314459700983986      -0.296674472902609      -0.278889244821232     
 -0.261104016739857      -0.243318788658481      -0.225533560577105     
 -0.420666672831835      -0.402881444750458      -0.385096216669083     
 -0.367310988587708      -0.349525760506331      -0.331740532424955     
 -0.313955304343579      -0.296170076262203      -0.278384848180827     
 -0.260599620099451      -0.242814392018075      -0.437255140787121     
 -0.419469912705745      -0.401684684624368      -0.383899456542993     
 -0.366114228461616      -0.348329000380241      -0.330543772298864     
 -0.312758544217489      -0.294973316136113      -0.277188088054736     
 -0.259402859973362      -0.452889635207598      -0.435104407126221     
 -0.417319179044846      -0.399533950963470      -0.381748722882094     
 -0.363963494800718      -0.346178266719342      -0.328393038637965     
 -0.310607810556590      -0.292822582475214      -0.275037354393838     
 -0.467323590776660      -0.449538362695284      -0.431753134613908     
 -0.413967906532533      -0.396182678451157      -0.378397450369781     
 -0.360612222288405      -0.342826994207029      -0.325041766125654     
 -0.307256538044276      -0.289471309962901      -0.480329375392559     
 -0.462544147311182      -0.444758919229807      -0.426973691148430     
 -0.409188463067056      -0.391403234985677      -0.373618006904304     
 -0.355832778822928      -0.338047550741550      -0.320262322660175     
 -0.302477094578800      -0.491701880062619      -0.473916651981244     
 -0.456131423899866      -0.438346195818490      -0.420560967737115     
 -0.402775739655740      -0.384990511574363      -0.367205283492987     
 -0.349420055411613      -0.331634827330235      -0.313849599248859     
 -0.501261753594591      -0.483476525513216      -0.465691297431837     
 -0.447906069350462      -0.430120841269088      -0.412335613187712     
 -0.394550385106334      -0.376765157024960      -0.358979928943584     
 -0.341194700862206      -0.323409472780830      -0.508858231072083     
 -0.491073002990707      -0.473287774909330      -0.455502546827955     
 -0.437717318746579      -0.419932090665202      -0.402146862583828     
 -0.384361634502451      -0.366576406421075      -0.348791178339700     
 -0.331005950258322      -0.514371511507360      -0.496586283425985     
 -0.478801055344607      -0.461015827263231      -0.443230599181855     
 -0.425445371100478      -0.407660143019104      -0.389874914937726     
 -0.372089686856350      -0.354304458774974      -0.336519230693598     
 -0.517714647174481      -0.499929419093105      -0.482144191011731     
 -0.464358962930353      -0.446573734848977      -0.428788506767600     
 -0.411003278686224      -0.393218050604849      -0.375432822523473     
 -0.357647594442097      -0.339862366360721      -0.518834914826887     
 -0.501049686745510      -0.483264458664136      -0.465479230582758     
 -0.447694002501383      -0.429908774420006      -0.412123546338631     
 -0.394338318257254      -0.376553090175878      -0.358767862094502     
 -0.340982634013127     
  0.126273414127915       0.131832269883779       0.137391125639643     
  0.142949981395507       0.148508837151372       0.154067692907235     
  0.159626548663099       0.165185404418963       0.170744260174827     
  0.176303115930691       0.181861971686555       0.129857643794102     
  0.135416499549966       0.140975355305830       0.146534211061694     
  0.152093066817557       0.157651922573421       0.163210778329285     
  0.168769634085149       0.174328489841013       0.179887345596877     
  0.185446201352741       0.140553807349710       0.146112663105574     
  0.151671518861438       0.157230374617302       0.162789230373165     
  0.168348086129029       0.173906941884894       0.179465797640757     
  0.185024653396621       0.190583509152485       0.196142364908349     
  0.158193219905890       0.163752075661754       0.169310931417618     
  0.174869787173482       0.180428642929345       0.185987498685209     
  0.191546354441073       0.197105210196937       0.202664065952801     
  0.208222921708665       0.213781777464528       0.182497697389355     
  0.188056553145219       0.193615408901083       0.199174264656947     
  0.204733120412811       0.210291976168675       0.215850831924539     
  0.221409687680403       0.226968543436266       0.232527399192130     
  0.238086254947994       0.213083943671402       0.218642799427266     
  0.224201655183129       0.229760510938993       0.235319366694857     
  0.240878222450722       0.246437078206585       0.251995933962449     
  0.257554789718313       0.263113645474177       0.268672501230041     
  0.249469595376823       0.255028451132687       0.260587306888551     
  0.266146162644415       0.271705018400278       0.277263874156144     
  0.282822729912007       0.288381585667870       0.293940441423734     
  0.299499297179597       0.305058152935461       0.291080829042491     
  0.296639684798354       0.302198540554219       0.307757396310083     
  0.313316252065946       0.318875107821810       0.324433963577674     
  0.329992819333538       0.335551675089402       0.341110530845266     
  0.346669386601130       0.337261410656151       0.342820266412015     
  0.348379122167878       0.353937977923743       0.359496833679607     
  0.365055689435470       0.370614545191334       0.376173400947198     
  0.381732256703062       0.387291112458926       0.392849968214790     
  0.387283044858813       0.392841900614676       0.398400756370541     
  0.403959612126405       0.409518467882269       0.415077323638132     
  0.420636179393996       0.426195035149861       0.431753890905723     
  0.437312746661587       0.442871602417451       0.440356860597626     
  0.445915716353490       0.451474572109353       0.457033427865218     
  0.462592283621081       0.468151139376946       0.473709995132808     
  0.479268850888673       0.484827706644536       0.490386562400400     
  0.495945418156264       0.495645852093627       0.501204707849490     
  0.506763563605356       0.512322419361217       0.517881275117082     
  0.523440130872947       0.528998986628811       0.534557842384674     
  0.540116698140538       0.545675553896401       0.551234409652265     
  0.552278078922884       0.557836934678747       0.563395790434611     
  0.568954646190474       0.574513501946339       0.580072357702202     
  0.585631213458067       0.591190069213931       0.596748924969794     
  0.602307780725658       0.607866636481521       0.609360417037844     
  0.614919272793708       0.620478128549570       0.626036984305434     
  0.631595840061299       0.637154695817163       0.642713551573027     
  0.648272407328889       0.653831263084757       0.659390118840618     
  0.664948974596482       0.665992643867099       0.671551499622962     
  0.677110355378827       0.682669211134690       0.688228066890554     
  0.693786922646420       0.699345778402282       0.704904634158147     
  0.710463489914009       0.716022345669872       0.721581201425739     
  0.721281635363100       0.726840491118964       0.732399346874829     
  0.737958202630692       0.743517058386557       0.749075914142420     
  0.754634769898283       0.760193625654148       0.765752481410011     
  0.771311337165873       0.776870192921741       0.774355451101914     
  0.779914306857777       0.785473162613640       0.791032018369505     
  0.796590874125368       0.802149729881233       0.807708585637097     
  0.813267441392962       0.818826297148825       0.824385152904690     
  0.829944008660553       0.824377085304575       0.829935941060439     
  0.835494796816303       0.841053652572167       0.846612508328031     
  0.852171364083896       0.857730219839759       0.863289075595623     
  0.868847931351486       0.874406787107350       0.879965642863213     
  0.870557666918235       0.876116522674098       0.881675378429963     
  0.887234234185827       0.892793089941691       0.898351945697555     
  0.903910801453417       0.909469657209282       0.915028512965147     
  0.920587368721010       0.926146224476873       0.912168900583903     
  0.917727756339766       0.923286612095630       0.928845467851495     
  0.934404323607358       0.939963179363221       0.945522035119085     
  0.951080890874951       0.956639746630814       0.962198602386678     
  0.967757458142540       0.948554552289325       0.954113408045190     
  0.959672263801050       0.965231119556913       0.970789975312780     
  0.976348831068644       0.981907686824509       0.987466542580371     
  0.993025398336235       0.998584254092100        1.00414310984796     
  0.979140798571369       0.984699654327234       0.990258510083099     
  0.995817365838962        1.00137622159483        1.00693507735069     
   1.01249393310655        1.01805278886242        1.02361164461828     
   1.02917050037415        1.03472935613001        1.00344527605484     
   1.00900413181070        1.01456298756656        1.02012184332243     
   1.02568069907829        1.03123955483416        1.03679841059002     
   1.04235726634588        1.04791612210175        1.05347497785761     
   1.05903383361347        1.02108468861102        1.02664354436688     
   1.03220240012274        1.03776125587861        1.04332011163447     
   1.04887896739034        1.05443782314620        1.05999667890206     
   1.06555553465792        1.07111439041379        1.07667324616966     
   1.03178085216662        1.03733970792249        1.04289856367835     
   1.04845741943421        1.05401627519008        1.05957513094594     
   1.06513398670181        1.07069284245767        1.07625169821354     
   1.08181055396940        1.08736940972526        1.03536508183281     
   1.04092393758867        1.04648279334454        1.05204164910040     
   1.05760050485627        1.06315936061213        1.06871821636800     
   1.07427707212386        1.07983592787972        1.08539478363558     
   1.09095363939145     
  3.960717710078315E-002  3.564645939070483E-002  3.168574168062652E-002
  2.772502397054821E-002  2.376430626046989E-002  1.980358855039158E-002
  1.584287084031326E-002  1.188215313023495E-002  7.921435420156629E-003
  3.960717710078312E-003  0.000000000000000E+000  3.960717710078315E-002
  3.564645939070483E-002  3.168574168062652E-002  2.772502397054821E-002
  2.376430626046989E-002  1.980358855039158E-002  1.584287084031326E-002
  1.188215313023495E-002  7.921435420156629E-003  3.960717710078312E-003
  0.000000000000000E+000  3.960717710078315E-002  3.564645939070483E-002
  3.168574168062652E-002  2.772502397054821E-002  2.376430626046989E-002
  1.980358855039158E-002  1.584287084031326E-002  1.188215313023495E-002
  7.921435420156629E-003  3.960717710078312E-003  0.000000000000000E+000
  3.960717710078315E-002  3.564645939070483E-002  3.168574168062652E-002
  2.772502397054821E-002  2.376430626046989E-002  1.980358855039158E-002
  1.584287084031326E-002  1.188215313023495E-002  7.921435420156629E-003
  3.960717710078312E-003  0.000000000000000E+000  3.960717710078315E-002
  3.564645939070483E-002  3.168574168062652E-002  2.772502397054821E-002
  2.376430626046989E-002  1.980358855039158E-002  1.584287084031326E-002
  1.188215313023495E-002  7.921435420156629E-003  3.960717710078312E-003
  0.000000000000000E+000  3.960717710078315E-002  3.564645939070483E-002
  3.168574168062652E-002  2.772502397054821E-002  2.376430626046989E-002
  1.980358855039158E-002  1.584287084031326E-002  1.188215313023495E-002
  7.921435420156629E-003  3.960717710078312E-003  0.000000000000000E+000
  3.960717710078315E-002  3.564645939070483E-002  3.168574168062652E-002
  2.772502397054821E-002  2.376430626046989E-002  1.980358855039158E-002
  1.584287084031326E-002  1.188215313023495E-002  7.921435420156629E-003
  3.960717710078312E-003  0.000000000000000E+000  3.960717710078315E-002
  3.564645939070483E-002  3.168574168062652E-002  2.772502397054821E-002
  2.376430626046989E-002  1.980358855039158E-002  1.584287084031326E-002
  1.188215313023495E-002  7.921435420156629E-003  3.960717710078312E-003
  0.000000000000000E+000  3.960717710078315E-002  3.564645939070483E-002
  3.168574168062652E-002  2.772502397054821E-002  2.376430626046989E-002
  1.980358855039158E-002  1.584287084031326E-002  1.188215313023495E-002
  7.921435420156629E-003  3.960717710078312E-003  0.000000000000000E+000
  3.960717710078315E-002  3.564645939070483E-002  3.168574168062652E-002
  2.772502397054821E-002  2.376430626046989E-002  1.980358855039158E-002
  1.584287084031326E-002  1.188215313023495E-002  7.921435420156629E-003
  3.960717710078312E-003  0.000000000000000E+000  3.960717710078315E-002
  3.564645939070483E-002  3.168574168062652E-002  2.772502397054821E-002
  2.376430626046989E-002  1.980358855039158E-002  1.584287084031326E-002
  1.188215313023495E-002  7.921435420156629E-003  3.960717710078312E-003
  0.000000000000000E+000  3.960717710078315E-002  3.564645939070483E-002
  3.168574168062652E-002  2.772502397054821E-002  2.376430626046989E-002
  1.980358855039158E-002  1.584287084031326E-002  1.188215313023495E-002
  7.921435420156629E-003  3.960717710078312E-003  0.000000000000000E+000
  3.960717710078315E-002  3.564645939070483E-002  3.168574168062652E-002
  2.772502397054821E-002  2.376430626046989E-002  1.980358855039158E-002
  1.584287084031326E-002  1.188215313023495E-002  7.921435420156629E-003
  3.960717710078312E-003  0.000000000000000E+000  3.960717710078315E-002
  3.564645939070483E-002  3.168574168062652E-002  2.772502397054821E-002
  2.376430626046989E-002  1.980358855039158E-002  1.584287084031326E-002
  1.188215313023495E-002  7.921435420156629E-003  3.960717710078312E-003
  0.000000000000000E+000  3.960717710078315E-002  3.564645939070483E-002
  3.168574168062652E-002  2.772502397054821E-002  2.376430626046989E-002
  1.980358855039158E-002  1.584287084031326E-002  1.188215313023495E-002
  7.921435420156629E-003  3.960717710078312E-003  0.000000000000000E+000
  3.960717710078315E-002  3.564645939070483E-002  3.168574168062652E-002
  2.772502397054821E-002  2.376430626046989E-002  1.980358855039158E-002
  1.584287084031326E-002  1.188215313023495E-002  7.921435420156629E-003
  3.960717710078312E-003  0.000000000000000E+000  3.960717710078315E-002
  3.564645939070483E-002  3.168574168062652E-002  2.772502397054821E-002
  2.376430626046989E-002  1.980358855039158E-002  1.584287084031326E-002
  1.188215313023495E-002  7.921435420156629E-003  3.960717710078312E-003
  0.000000000000000E+000  3.960717710078315E-002  3.564645939070483E-002
  3.168574168062652E-002  2.772502397054821E-002  2.376430626046989E-002
  1.980358855039158E-002  1.584287084031326E-002  1.188215313023495E-002
  7.921435420156629E-003  3.960717710078312E-003  0.000000000000000E+000
  3.960717710078315E-002  3.564645939070483E-002  3.168574168062652E-002
  2.772502397054821E-002  2.376430626046989E-002  1.980358855039158E-002
  1.584287084031326E-002  1.188215313023495E-002  7.921435420156629E-003
  3.960717710078312E-003  0.000000000000000E+000  3.960717710078315E-002
  3.564645939070483E-002  3.168574168062652E-002  2.772502397054821E-002
  2.376430626046989E-002  1.980358855039158E-002  1.584287084031326E-002
  1.188215313023495E-002  7.921435420156629E-003  3.960717710078312E-003
  0.000000000000000E+000  3.960717710078315E-002  3.564645939070483E-002
  3.168574168062652E-002  2.772502397054821E-002  2.376430626046989E-002
  1.980358855039158E-002  1.584287084031326E-002  1.188215313023495E-002
  7.921435420156629E-003  3.960717710078312E-003  0.000000000000000E+000
  3.960717710078315E-002  3.564645939070483E-002  3.168574168062652E-002
  2.772502397054821E-002  2.376430626046989E-002  1.980358855039158E-002
  1.584287084031326E-002  1.188215313023495E-002  7.921435420156629E-003
  3.960717710078312E-003  0.000000000000000E+000  3.960717710078315E-002
  3.564645939070483E-002  3.168574168062652E-002  2.772502397054821E-002
  2.376430626046989E-002  1.980358855039158E-002  1.584287084031326E-002
  1.188215313023495E-002  7.921435420156629E-003  3.960717710078312E-003
  0.000000000000000E+000  3.960717710078315E-002  3.564645939070483E-002
  3.168574168062652E-002  2.772502397054821E-002  2.376430626046989E-002
  1.980358855039158E-002  1.584287084031326E-002  1.188215313023495E-002
  7.921435420156629E-003  3.960717710078312E-003  0.000000000000000E+000
  3.960717710078315E-002  3.564645939070483E-002  3.168574168062652E-002
  2.772502397054821E-002  2.376430626046989E-002  1.980358855039158E-002
  1.584287084031326E-002  1.188215313023495E-002  7.921435420156629E-003
  3.960717710078312E-003  0.000000000000000E+000  3.960717710078315E-002
  3.564645939070483E-002  3.168574168062652E-002  2.772502397054821E-002
  2.376430626046989E-002  1.980358855039158E-002  1.584287084031326E-002
  1.188215313023495E-002  7.921435420156629E-003  3.960717710078312E-003
  0.000000000000000E+000
  0.127284234520595       0.184339365968894       0.232143377137524     
  0.270025138214709       0.298333365941963       0.318370998885722     
  0.331750252022327       0.340725541435479       0.345834791806687     
  0.347568589830655       0.202626177427725       0.298697293614199     
  0.378412327681229       0.442086485118858       0.490803594165198     
  0.526081691062938       0.550063322793316       0.566489846478250     
  0.576639753121657       0.582551427308546       0.244150962531042     
  0.371044805113582       0.474923352606938       0.559376437426686     
  0.628101180444242       0.680625402055928       0.718061285934935     
  0.744956384420285       0.763497550095520       0.774999915283354     
  0.255384965044647       0.397707019507770       0.511636349131851     
  0.606417377094778       0.687924831251785       0.754971606767944     
  0.805951767253962       0.844264343257755       0.871727855645244     
  0.886856897307574       0.258772048550325       0.404830090208919     
  0.522064965561838       0.622179857800674       0.709132184442360     
  0.783083233919907       0.843376766504179       0.890756733562664     
  0.925412657419289       0.945222849424054       0.282072904043155     
  0.436406047092379       0.558417084495016       0.662381554460601     
  0.752414410159889       0.829759707028986       0.894825321768231     
  0.947685425128271       0.987645877456807        1.01215228998349     
  0.340909800251749       0.518738109162847       0.654711023935584     
  0.767846721502704       0.864584623417359       0.947567433293110     
   1.01788440514197        1.07573761622125        1.12035952706184     
   1.14887759366303       0.434271568680870       0.651801997371601     
  0.813126975339142       0.944211215610361        1.05432656508452     
   1.14769284366189        1.22634968076809        1.29105133754826     
   1.34130770427137        1.37418565648962       0.558071697765687     
  0.830162919390011        1.02746111438502        1.18483315426927     
   1.31505288059211        1.42416621429521        1.51530116626510     
   1.58990398456537        1.64788368298826        1.68625179862290     
  0.707267694178273        1.04649553097136        1.28889832619971     
   1.47977221921592        1.63596882683279        1.76564205776082     
   1.87314350929984        1.96064227206844        2.02839358253078     
   2.07323153491844       0.877036975567042        1.29351556652241     
   1.58835660661476        1.81851745514138        2.00535910770149     
   2.15934718904733        2.28616801567355        2.38875922767423     
   2.46771613959280        2.51965185004490        1.06316971685460     
   1.56469070000841        1.91746252656177        2.19113568164475     
   2.41194797292251        2.59284388382555        2.74094316154808     
   2.86001998513934        2.95105143426465        3.01044559879454     
   1.26175709572022        1.85398135123804        2.26847705023165     
   2.58842366887926        2.84525629826563        3.05455788005847     
   3.22497761068971        3.36120181476087        3.46465602294614     
   3.53159882418788        1.46973955023845        2.15660734080551     
   2.63519540710250        3.00289502332544        3.29662454040582     
   3.53477223788361        3.72763103421761        3.88089167903355     
   3.99651838040087        4.07072594279422        1.68721993847378     
   2.47212792268229        3.01635760471582        3.43231802097765     
   3.76278481671678        4.02919329311089        4.24366082671527     
   4.41302761971717        4.53992496092579        4.62067909701892     
   1.92168317771365        2.80985397870906        3.42150234627518     
   3.88576034111019        4.25205828085445        4.54534883094709     
   4.77988039201777        4.96386007753096        5.10075399515803     
   5.18715894327653        2.18651069083988        3.18630470045809     
   3.86774228369221        4.38008579013419        4.78092978705431     
   5.09952427952274        5.35265841307493        5.55012932731873     
   5.69637617886863        5.78832414037656        2.47057227292728     
   3.58411409843582        4.33311869283056        4.88990756337961     
   5.32147798879484        5.66194295930403        5.93090026557149     
   6.13989842207363        6.29450253287444        6.39212137868697     
   2.70950837171361        3.91168751229605        4.70857967076525     
   5.29339426549375        5.74167733243410        6.09195251422706     
   6.36643526417066        6.57840336542409        6.73471378500808     
   6.83394153722466        2.82216930792863        4.05229778717537     
   4.85361215940535        5.43222045392733        5.86941034154951     
   6.20678309931207        6.46827243632756        6.66816292702474     
   6.81413549312994        6.90632638086498        2.77495088882684     
   3.95375505638989        4.70340696436318        5.23378740292181     
   5.62805764391337        5.92849141306387        6.15902362215840     
   6.33365693368828        6.45989633166824        6.53875783200704     
   2.57186534214630        3.61602263827842        4.25747310137210     
   4.70130061224775        5.02684142203707        5.27298847921051     
   5.46114217843012        5.60370605380524        5.70751096084617     
   5.77369331924611        2.21613248702133        3.04514096369626     
   3.53513369260306        3.86944277286327        4.11362847425121     
   4.29828977381583        4.44002488787771        4.54890667903653     
   4.63217859534748        4.69596979076673        1.69228278745837     
   2.25151401737978        2.57764356398170        2.80073546028575     
   2.96436673901320        3.08862083440141        3.18442758576213     
   3.25848877586707        3.31579061608207        3.36327563861846     
   1.02834317099629        1.34147945751470        1.52581185182119     
   1.65261630354548        1.74594938472575        1.81697513563896     
   1.87175917304991        1.91386663273590        1.94532725718121     
   1.96565070717379     
  0.000000000000000E+000  0.000000000000000E+000  0.000000000000000E+000
  0.000000000000000E+000  0.000000000000000E+000  0.000000000000000E+000
  0.000000000000000E+000  0.000000000000000E+000  0.000000000000000E+000
  0.000000000000000E+000  0.000000000000000E+000  0.000000000000000E+000
  0.000000000000000E+000  0.000000000000000E+000  0.000000000000000E+000
  0.000000000000000E+000  0.000000000000000E+000  0.000000000000000E+000
  0.000000000000000E+000  0.000000000000000E+000  0.000000000000000E+000
  0.000000000000000E+000  0.000000000000000E+000  0.000000000000000E+000
  0.000000000000000E+000  0.000000000000000E+000  0.000000000000000E+000
  0.000000000000000E+000  0.000000000000000E+000  0.000000000000000E+000
  0.000000000000000E+000  0.000000000000000E+000  0.000000000000000E+000
  0.000000000000000E+000  0.000000000000000E+000  0.000000000000000E+000
  0.000000000000000E+000  0.000000000000000E+000  0.000000000000000E+000
  0.000000000000000E+000  0.000000000000000E+000  0.000000000000000E+000
  0.000000000000000E+000  0.000000000000000E+000  0.000000000000000E+000
  0.000000000000000E+000  0.000000000000000E+000  0.000000000000000E+000
  0.000000000000000E+000  0.000000000000000E+000  0.000000000000000E+000
  0.000000000000000E+000  0.000000000000000E+000  0.000000000000000E+000
  0.000000000000000E+000  0.000000000000000E+000  0.000000000000000E+000
  0.000000000000000E+000  0.000000000000000E+000  0.000000000000000E+000
  0.000000000000000E+000  0.000000000000000E+000  0.000000000000000E+000
  0.000000000000000E+000  0.000000000000000E+000  0.000000000000000E+000
  0.000000000000000E+000  0.000000000000000E+000  0.000000000000000E+000
  0.000000000000000E+000  0.000000000000000E+000  0.000000000000000E+000
  0.000000000000000E+000  0.000000000000000E+000  0.000000000000000E+000
  0.000000000000000E+000  0.000000000000000E+000  0.000000000000000E+000
  0.000000000000000E+000  0.000000000000000E+000  0.000000000000000E+000
  0.000000000000000E+000  0.000000000000000E+000  0.000000000000000E+000
  0.000000000000000E+000  0.000000000000000E+000  0.000000000000000E+000
  0.000000000000000E+000  0.000000000000000E+000  0.000000000000000E+000
  0.000000000000000E+000  0.000000000000000E+000  0.000000000000000E+000
  0.000000000000000E+000  0.000000000000000E+000  0.000000000000000E+000
  0.000000000000000E+000  0.000000000000000E+000  0.000000000000000E+000
  0.000000000000000E+000  0.000000000000000E+000  0.000000000000000E+000
  0.000000000000000E+000  0.000000000000000E+000  0.000000000000000E+000
  0.000000000000000E+000  0.000000000000000E+000  0.000000000000000E+000
  0.000000000000000E+000  0.000000000000000E+000  0.000000000000000E+000
  0.000000000000000E+000  0.000000000000000E+000  0.000000000000000E+000
  0.000000000000000E+000  0.000000000000000E+000  0.000000000000000E+000