 Title = "Wing and Wake"
 VARIABLES = "X" "Y" "Z" "GAM" "skew"
 Zone I=   11 J=   26 K=1  T="Blade"
 DATAPACKING=BLOCK
 VARLOCATION=([4]=CELLCENTERED,[5]=CELLCENTERED)
 -0.109292439904937      -9.179931133381081E-002 -7.430618276268408E-002
 -5.681305419155736E-002 -3.931992562043039E-002 -2.182679704930394E-002
 -4.333668478177180E-003  1.315946009294950E-002  3.065258866407608E-002
  4.814571723520290E-002  6.563884580632960E-002 -0.107998795630593     
 -9.050566705946639E-002 -7.301253848833954E-002 -5.551940991721305E-002
 -3.802628134608625E-002 -2.053315277495961E-002 -3.040024203832936E-003
  1.445310436729370E-002  3.194623293842043E-002  4.943936150954709E-002
  6.693249008067401E-002 -0.104138264350552      -8.664513577942566E-002
 -6.915200720829875E-002 -5.165887863717208E-002 -3.416575006604549E-002
 -1.667262149491881E-002  8.205070762081112E-004  1.831363564733449E-002
  3.580676421846106E-002  5.329989278958797E-002  7.079302136071444E-002
 -9.777172894927073E-002 -8.027860037814395E-002 -6.278547180701710E-002
 -4.529234323589070E-002 -2.779921466476402E-002 -1.030608609363722E-002
  7.187042477489336E-003  2.468017104861597E-002  4.217329961974275E-002
  5.966642819086965E-002  7.715955676199583E-002 -8.899959349321065E-002
 -7.150646492208415E-002 -5.401333635095728E-002 -3.652020777983057E-002
 -1.902707920870395E-002 -1.533950637577068E-003  1.595917793354964E-002
  3.345230650467607E-002  5.094543507580267E-002  6.843856364692937E-002
  8.593169221805617E-002 -7.796019979873399E-002 -6.046707122760714E-002
 -4.297394265648052E-002 -2.548081408535361E-002 -7.987685514227285E-003
  9.505443056899888E-003  2.699857162802614E-002  4.449170019915290E-002
  6.198482877027993E-002  7.947795734140643E-002  9.697108591253324E-002
 -6.482764569901606E-002 -4.733451712788962E-002 -2.984138855676303E-002
 -1.234825998563631E-002  5.144868585490635E-003  2.263799715661720E-002
  4.013112572774368E-002  5.762425429887021E-002  7.511738286999664E-002
  9.261051144112370E-002  0.110103640012250      -4.980903941721812E-002
 -3.231591084609136E-002 -1.482278227496441E-002  2.670346296162073E-003
  2.016347486728855E-002  3.765660343841535E-002  5.514973200954212E-002
  7.264286058066838E-002  9.013598915179544E-002  0.107629117722922     
  0.125122246294049      -3.314123334608369E-002 -1.564810477495662E-002
  1.845023796169663E-003  1.933815236729617E-002  3.683128093842275E-002
  5.432440950954949E-002  7.181753808067633E-002  8.931066665180300E-002
  0.106803795222930       0.124296923794056       0.141790052365183     
 -1.508708874421952E-002  2.406039826906700E-003  1.989916839803369E-002
  3.739229696916058E-002  5.488542554028710E-002  7.237855411141340E-002
  8.987168268254001E-002  0.107364811253667       0.124857939824794     
  0.142351068395920       0.159844196967047       4.068669742979510E-003
  2.156179831410610E-002  3.905492688523252E-002  5.654805545635903E-002
  7.404118402748595E-002  9.153431259861293E-002  0.109027441169739     
  0.126520569740866       0.144013698311992       0.161506826883119     
  0.178999955454246       2.402394436107519E-002  4.151707293220139E-002
  5.901020150332843E-002  7.650333007445488E-002  9.399645864558180E-002
  0.111489587216708       0.128982715787835       0.146475844358962     
  0.163968972930089       0.181462101501215       0.198955230072341     
  4.446402850863619E-002  6.195715707976297E-002  7.945028565088998E-002
  9.694341422201622E-002  0.114436542793143       0.131929671364269     
  0.149422799935397       0.166915928506523       0.184409057077649     
  0.201902185648776       0.219395314219903       6.506656984834172E-002
  8.255969841946909E-002  0.100052826990595       0.117545955561722     
  0.135039084132849       0.152532212703976       0.170025341275103     
  0.187518469846228       0.205011598417356       0.222504726988483     
  0.239997855559609       8.550665399590360E-002  0.102999782567030     
  0.120492911138157       0.137986039709283       0.155479168280410     
  0.172972296851536       0.190465425422663       0.207958553993791     
  0.225451682564917       0.242944811136043       0.260437939707171     
  0.105461928613999       0.122955057185126       0.140448185756252     
  0.157941314327379       0.175434442898506       0.192927571469633     
  0.210420700040759       0.227913828611886       0.245406957183012     
  0.262900085754139       0.280393214325266       0.124617687101198     
  0.142110815672325       0.159603944243452       0.177097072814578     
  0.194590201385705       0.212083329956831       0.229576458527958     
  0.247069587099085       0.264562715670212       0.282055844241339     
  0.299548972812465       0.142671831703062       0.160164960274189     
  0.177658088845316       0.195151217416442       0.212644345987568     
  0.230137474558696       0.247630603129822       0.265123731700949     
  0.282616860272075       0.300109988843202       0.317603117414328     
  0.159339637774197       0.176832766345323       0.194325894916450     
  0.211819023487576       0.229312152058703       0.246805280629830     
  0.264298409200956       0.281791537772083       0.299284666343210     
  0.316777794914337       0.334270923485463       0.174358244055994     
  0.191851372627122       0.209344501198247       0.226837629769375     
  0.244330758340500       0.261823886911629       0.279317015482753     
  0.296810144053882       0.314303272625009       0.331796401196136     
  0.349289529767261       0.187490798155713       0.204983926726840     
  0.222477055297965       0.239970183869092       0.257463312440219     
  0.274956441011345       0.292449569582473       0.309942698153599     
  0.327435826724726       0.344928955295852       0.362422083866978     
  0.198530191850188       0.216023320421315       0.233516448992443     
  0.251009577563569       0.268502706134695       0.285995834705823     
  0.303488963276949       0.320982091848075       0.338475220419202     
  0.355968348990329       0.373461477561457       0.207302327306250     
  0.224795455877375       0.242288584448502       0.259781713019628     
  0.277274841590756       0.294767970161882       0.312261098733010     
  0.329754227304137       0.347247355875263       0.364740484446388     
  0.382233613017516       0.213668862707530       0.231161991278656     
  0.248655119849784       0.266148248420910       0.283641376992037     
  0.301134505563165       0.318627634134290       0.336120762705418     
  0.353613891276543       0.371107019847672       0.388600148418797     
  0.217529393987571       0.235022522558697       0.252515651129823     
  0.270008779700951       0.287501908272078       0.304995036843205     
  0.322488165414331       0.339981293985458       0.357474422556585     
  0.374967551127711       0.392460679698838       0.218823038261915     
  0.236316166833043       0.253809295404168       0.271302423975296     
  0.288795552546422       0.306288681117549       0.323781809688676     
  0.341274938259803       0.358768066830929       0.376261195402055     
  0.393754323973183     
  0.243066763777655       0.236647599656439       0.230228435535224     
  0.223809271414008       0.217390107292793       0.210970943171577     
  0.204551779050362       0.198132614929146       0.191713450807931     
  0.185294286686715       0.178875122565500       0.246592127078714     
  0.240172962957498       0.233753798836282       0.227334634715067     
  0.220915470593852       0.214496306472636       0.208077142351421     
  0.201657978230205       0.195238814108990       0.188819649987774     
  0.182400485866559       0.257112619896682       0.250693455775467     
  0.244274291654251       0.237855127533036       0.231435963411820     
  0.225016799290605       0.218597635169389       0.212178471048174     
  0.205759306926958       0.199340142805743       0.192920978684527     
  0.274462327775184       0.268043163653969       0.261623999532753     
  0.255204835411538       0.248785671290322       0.242366507169106     
  0.235947343047891       0.229528178926675       0.223109014805460     
  0.216689850684244       0.210270686563029       0.298367635456761     
  0.291948471335546       0.285529307214330       0.279110143093114     
  0.272690978971899       0.266271814850684       0.259852650729468     
  0.253433486608253       0.247014322487037       0.240595158365822     
  0.234175994244606       0.328451541958936       0.322032377837721     
  0.315613213716505       0.309194049595290       0.302774885474075     
  0.296355721352860       0.289936557231644       0.283517393110428     
  0.277098228989213       0.270679064867997       0.264259900746782     
  0.364239606104917       0.357820441983701       0.351401277862486     
  0.344982113741271       0.338562949620055       0.332143785498840     
  0.325724621377624       0.319305457256409       0.312886293135193     
  0.306467129013977       0.300047964892761       0.405167428744367     
  0.398748264623151       0.392329100501936       0.385909936380720     
  0.379490772259505       0.373071608138289       0.366652444017074     
  0.360233279895858       0.353814115774642       0.347394951653427     
  0.340975787532212       0.450589553665166       0.444170389543950     
  0.437751225422735       0.431332061301519       0.424912897180304     
  0.418493733059088       0.412074568937872       0.405655404816657     
  0.399236240695442       0.392817076574226       0.386397912453011     
  0.499789646823450       0.493370482702234       0.486951318581019     
  0.480532154459803       0.474112990338588       0.467693826217372     
  0.461274662096156       0.454855497974942       0.448436333853725     
  0.442017169732510       0.435598005611295       0.551991793359404     
  0.545572629238188       0.539153465116972       0.532734300995757     
  0.526315136874541       0.519895972753326       0.513476808632110     
  0.507057644510895       0.500638480389679       0.494219316268464     
  0.487800152147248       0.606372734238102       0.599953570116886     
  0.593534405995672       0.587115241874455       0.580696077753240     
  0.574276913632025       0.567857749510809       0.561438585389594     
  0.555019421268378       0.548600257147163       0.542181093025947     
  0.662074849536291       0.655655685415075       0.649236521293858     
  0.642817357172644       0.636398193051428       0.629979028930213     
  0.623559864808998       0.617140700687782       0.610721536566567     
  0.604302372445351       0.597883208324136       0.718219683620886     
  0.711800519499669       0.705381355378453       0.698962191257238     
  0.692543027136023       0.686123863014807       0.679704698893592     
  0.673285534772376       0.666866370651162       0.660447206529946     
  0.654028042408730       0.773921798919073       0.767502634797858     
  0.761083470676644       0.754664306555426       0.748245142434210     
  0.741825978312996       0.735406814191779       0.728987650070564     
  0.722568485949348       0.716149321828133       0.709730157706919     
  0.828302739797773       0.821883575676556       0.815464411555342     
  0.809045247434126       0.802626083312911       0.796206919191695     
  0.789787755070478       0.783368590949264       0.776949426828048     
  0.770530262706831       0.764111098585618       0.880504886333726     
  0.874085722212510       0.867666558091294       0.861247393970080     
  0.854828229848863       0.848409065727648       0.841989901606433     
  0.835570737485217       0.829151573364002       0.822732409242787     
  0.816313245121571       0.929704979492010       0.923285815370794     
  0.916866651249579       0.910447487128363       0.904028323007147     
  0.897609158885934       0.891189994764717       0.884770830643501     
  0.878351666522286       0.871932502401070       0.865513338279854     
  0.975127104412809       0.968707940291592       0.962288776170377     
  0.955869612049162       0.949450447927947       0.943031283806731     
  0.936612119685515       0.930192955564301       0.923773791443085     
  0.917354627321869       0.910935463200654        1.01605492705226     
   1.00963576293104        1.00321659880983       0.996797434688613     
  0.990378270567396       0.983959106446180       0.977539942324965     
  0.971120778203751       0.964701614082534       0.958282449961319     
  0.951863285840103        1.05184299119824        1.04542382707702     
   1.03900466295581        1.03258549883459        1.02616633471338     
   1.01974717059216        1.01332800647095        1.00690884234973     
   1.00048967822852       0.994070514107298       0.987651349986082     
   1.08192689770041        1.07550773357920        1.06908856945798     
   1.06266940533677        1.05625024121555        1.04983107709434     
   1.04341191297312        1.03699274885191        1.03057358473069     
   1.02415442060947        1.01773525648826        1.10583220538199     
   1.09941304126078        1.09299387713956        1.08657471301834     
   1.08015554889713        1.07373638477591        1.06731722065470     
   1.06089805653348        1.05447889241227        1.04805972829105     
   1.04164056416984        1.12318191326049        1.11676274913928     
   1.11034358501806        1.10392442089685        1.09750525677563     
   1.09108609265441        1.08466692853320        1.07824776441198     
   1.07182860029077        1.06540943616955        1.05899027204834     
   1.13370240607846        1.12728324195725        1.12086407783603     
   1.11444491371481        1.10802574959360        1.10160658547238     
   1.09518742135117        1.08876825722995        1.08234909310874     
   1.07592992898752        1.06951076486631        1.13722776937952     
   1.13080860525830        1.12438944113709        1.11797027701587     
   1.11155111289466        1.10513194877344        1.09871278465223     
   1.09229362053101        1.08587445640980        1.07945529228858     
   1.07303612816737     
  3.960717710078315E-002  3.564645939070483E-002  3.168574168062652E-002
  2.772502397054821E-002  2.376430626046989E-002  1.980358855039158E-002
  1.584287084031326E-002  1.188215313023495E-002  7.921435420156629E-003
  3.960717710078312E-003  0.000000000000000E+000  3.960717710078315E-002
  3.564645939070483E-002  3.168574168062652E-002  2.772502397054821E-002
  2.376430626046989E-002  1.980358855039158E-002  1.584287084031326E-002
  1.188215313023495E-002  7.921435420156629E-003  3.960717710078312E-003
  0.000000000000000E+000  3.960717710078315E-002  3.564645939070483E-002
  3.168574168062652E-002  2.772502397054821E-002  2.376430626046989E-002
  1.980358855039158E-002  1.584287084031326E-002  1.188215313023495E-002
  7.921435420156629E-003  3.960717710078312E-003  0.000000000000000E+000
  3.960717710078315E-002  3.564645939070483E-002  3.168574168062652E-002
  2.772502397054821E-002  2.376430626046989E-002  1.980358855039158E-002
  1.584287084031326E-002  1.188215313023495E-002  7.921435420156629E-003
  3.960717710078312E-003  0.000000000000000E+000  3.960717710078315E-002
  3.564645939070483E-002  3.168574168062652E-002  2.772502397054821E-002
  2.376430626046989E-002  1.980358855039158E-002  1.584287084031326E-002
  1.188215313023495E-002  7.921435420156629E-003  3.960717710078312E-003
  0.000000000000000E+000  3.960717710078315E-002  3.564645939070483E-002
  3.168574168062652E-002  2.772502397054821E-002  2.376430626046989E-002
  1.980358855039158E-002  1.584287084031326E-002  1.188215313023495E-002
  7.921435420156629E-003  3.960717710078312E-003  0.000000000000000E+000
  3.960717710078315E-002  3.564645939070483E-002  3.168574168062652E-002
  2.772502397054821E-002  2.376430626046989E-002  1.980358855039158E-002
  1.584287084031326E-002  1.188215313023495E-002  7.921435420156629E-003
  3.960717710078312E-003  0.000000000000000E+000  3.960717710078315E-002
  3.564645939070483E-002  3.168574168062652E-002  2.772502397054821E-002
  2.376430626046989E-002  1.980358855039158E-002  1.584287084031326E-002
  1.188215313023495E-002  7.921435420156629E-003  3.960717710078312E-003
  0.000000000000000E+000  3.960717710078315E-002  3.564645939070483E-002
  3.168574168062652E-002  2.772502397054821E-002  2.376430626046989E-002
  1.980358855039158E-002  1.584287084031326E-002  1.188215313023495E-002
  7.921435420156629E-003  3.960717710078312E-003  0.000000000000000E+000
  3.960717710078315E-002  3.564645939070483E-002  3.168574168062652E-002
  2.772502397054821E-002  2.376430626046989E-002  1.980358855039158E-002
  1.584287084031326E-002  1.188215313023495E-002  7.921435420156629E-003
  3.960717710078312E-003  0.000000000000000E+000  3.960717710078315E-002
  3.564645939070483E-002  3.168574168062652E-002  2.772502397054821E-002
  2.376430626046989E-002  1.980358855039158E-002  1.584287084031326E-002
  1.188215313023495E-002  7.921435420156629E-003  3.960717710078312E-003
  0.000000000000000E+000  3.960717710078315E-002  3.564645939070483E-002
  3.168574168062652E-002  2.772502397054821E-002  2.376430626046989E-002
  1.980358855039158E-002  1.584287084031326E-002  1.188215313023495E-002
  7.921435420156629E-003  3.960717710078312E-003  0.000000000000000E+000
  3.960717710078315E-002  3.564645939070483E-002  3.168574168062652E-002
  2.772502397054821E-002  2.376430626046989E-002  1.980358855039158E-002
  1.584287084031326E-002  1.188215313023495E-002  7.921435420156629E-003
  3.960717710078312E-003  0.000000000000000E+000  3.960717710078315E-002
  3.564645939070483E-002  3.168574168062652E-002  2.772502397054821E-002
  2.376430626046989E-002  1.980358855039158E-002  1.584287084031326E-002
  1.188215313023495E-002  7.921435420156629E-003  3.960717710078312E-003
  0.000000000000000E+000  3.960717710078315E-002  3.564645939070483E-002
  3.168574168062652E-002  2.772502397054821E-002  2.376430626046989E-002
  1.980358855039158E-002  1.584287084031326E-002  1.188215313023495E-002
  7.921435420156629E-003  3.960717710078312E-003  0.000000000000000E+000
  3.960717710078315E-002  3.564645939070483E-002  3.168574168062652E-002
  2.772502397054821E-002  2.376430626046989E-002  1.980358855039158E-002
  1.584287084031326E-002  1.188215313023495E-002  7.921435420156629E-003
  3.960717710078312E-003  0.000000000000000E+000  3.960717710078315E-002
  3.564645939070483E-002  3.168574168062652E-002  2.772502397054821E-002
  2.376430626046989E-002  1.980358855039158E-002  1.584287084031326E-002
  1.188215313023495E-002  7.921435420156629E-003  3.960717710078312E-003
  0.000000000000000E+000  3.960717710078315E-002  3.564645939070483E-002
  3.168574168062652E-002  2.772502397054821E-002  2.376430626046989E-002
  1.980358855039158E-002  1.584287084031326E-002  1.188215313023495E-002
  7.921435420156629E-003  3.960717710078312E-003  0.000000000000000E+000
  3.960717710078315E-002  3.564645939070483E-002  3.168574168062652E-002
  2.772502397054821E-002  2.376430626046989E-002  1.980358855039158E-002
  1.584287084031326E-002  1.188215313023495E-002  7.921435420156629E-003
  3.960717710078312E-003  0.000000000000000E+000  3.960717710078315E-002
  3.564645939070483E-002  3.168574168062652E-002  2.772502397054821E-002
  2.376430626046989E-002  1.980358855039158E-002  1.584287084031326E-002
  1.188215313023495E-002  7.921435420156629E-003  3.960717710078312E-003
  0.000000000000000E+000  3.960717710078315E-002  3.564645939070483E-002
  3.168574168062652E-002  2.772502397054821E-002  2.376430626046989E-002
  1.980358855039158E-002  1.584287084031326E-002  1.188215313023495E-002
  7.921435420156629E-003  3.960717710078312E-003  0.000000000000000E+000
  3.960717710078315E-002  3.564645939070483E-002  3.168574168062652E-002
  2.772502397054821E-002  2.376430626046989E-002  1.980358855039158E-002
  1.584287084031326E-002  1.188215313023495E-002  7.921435420156629E-003
  3.960717710078312E-003  0.000000000000000E+000  3.960717710078315E-002
  3.564645939070483E-002  3.168574168062652E-002  2.772502397054821E-002
  2.376430626046989E-002  1.980358855039158E-002  1.584287084031326E-002
  1.188215313023495E-002  7.921435420156629E-003  3.960717710078312E-003
  0.000000000000000E+000  3.960717710078315E-002  3.564645939070483E-002
  3.168574168062652E-002  2.772502397054821E-002  2.376430626046989E-002
  1.980358855039158E-002  1.584287084031326E-002  1.188215313023495E-002
  7.921435420156629E-003  3.960717710078312E-003  0.000000000000000E+000
  3.960717710078315E-002  3.564645939070483E-002  3.168574168062652E-002
  2.772502397054821E-002  2.376430626046989E-002  1.980358855039158E-002
  1.584287084031326E-002  1.188215313023495E-002  7.921435420156629E-003
  3.960717710078312E-003  0.000000000000000E+000  3.960717710078315E-002
  3.564645939070483E-002  3.168574168062652E-002  2.772502397054821E-002
  2.376430626046989E-002  1.980358855039158E-002  1.584287084031326E-002
  1.188215313023495E-002  7.921435420156629E-003  3.960717710078312E-003
  0.000000000000000E+000
  0.150117150460308       0.234993220516303       0.307820364777638     
  0.366281243206848       0.408568593200154       0.433608078142661     
  0.441998950600327       0.436534570101615       0.420279144425704     
  0.396284752229107       0.246950210529963       0.390269571639597     
  0.512083387475058       0.610425847311140       0.683117513543653     
  0.727606302320704       0.743955564937996       0.736533208372974     
  0.710712279014697       0.673105790521929       0.320847421279049     
  0.512827366362639       0.673001082856108       0.804997365890215     
  0.907754521821132       0.975353929073729        1.00513242781911     
   1.00178996911146       0.972194540059939       0.924704598772360     
  0.364990325464797       0.582878095588335       0.760613139274384     
  0.910670224286901        1.03365891504730        1.12082981145109     
   1.16613798495394        1.17425466398548        1.14979190496549     
   1.09887822852018       0.389624821215000       0.613437198404971     
  0.794728514795322       0.947846521244619        1.07383912102577     
   1.16538167282515        1.22131650397015        1.24493190351731     
   1.23673522982495        1.19793258652391       0.421074288949329     
  0.648499523718634       0.826782522110316       0.975414932356949     
   1.09716272774466        1.18955613981264        1.25253297607595     
   1.28854527834574        1.29750985398717        1.27737382147223     
  0.476251364935792       0.720362624011570       0.903811349088646     
   1.05252229627074        1.17407559353143        1.27070491287584     
   1.34294244574876        1.39073315419486        1.41320135541333     
   1.40832741259226       0.564286376383944       0.843423495170311     
   1.04731317795641        1.20944846982351        1.34121201086988     
   1.44730250383361        1.52964148866312        1.58864110775622     
   1.62329152433948        1.63071042215838       0.685451503966349     
   1.01665093125796        1.25394810104578        1.44005383563501     
   1.59030796311524        1.71168735027943        1.80748612946597     
   1.87881955297930        1.92488349123151        1.94231214129271     
  0.835190287235663        1.23276980315134        1.51397385211104     
   1.73227759945967        1.90736957183509        2.04857491446415     
   2.16062777035869        2.24553633136452        2.30291653472943     
   2.32908858856571        1.00604973769393        1.48081600349530     
   1.81404630024307        2.07111457844085        2.27634758197847     
   2.44141356683697        2.57247737707075        2.67242631599345     
   2.74134257474434        2.77538029285565        1.18972434758729     
   1.74876555168411        2.13977206404333        2.44056952332497     
   2.68006588466501        2.87240329518244        3.02512335260536     
   3.14196567004692        3.22342193317421        3.26543974510354     
   1.38000389788599        2.02651310479346        2.47747140286764     
   2.82360793669474        3.09890736108729        3.31980402701860     
   3.49518553391489        3.62971370270562        3.72437746153203     
   3.77513732228984        1.57381547198050        2.30870800034026     
   2.81972221832342        3.21084248455775        3.52121984875648     
   3.77009107483000        3.96797053738170        4.12040199091317     
   4.22891601067915        4.28944720996023        1.77171533154905     
   2.59566488413001        3.16631144901578        3.60142120893845     
   3.94559484104403        4.22098111788741        4.43990460227870     
   4.60910266134147        4.73084940510053        4.80119360821223     
   1.97956570682048        2.89447362732677        3.52422959824188     
   4.00161932068216        4.37729609292695        4.67668542560680     
   4.91418356064299        5.09795332933857        5.23126118178125     
   5.31058144106867        2.20651953374755        3.21601118562118     
   3.90413357012915        4.42115719055570        4.82492621404043     
   5.14476477910585        5.39750036548090        5.59296715742795     
   5.73566572205432        5.82281513529266        2.44563445596151     
   3.54894321057452        4.29123709955385        4.84258368601029     
   5.26905049395205        5.60436344269739        5.86802078952637     
   6.07165242531777        6.22111544365572        6.31460478976079     
   2.64911818918311        3.82536386803962        4.60501546530508     
   5.17653229409080        5.61370854124460        5.95437422601385     
   6.22048389952693        6.42530392144499        6.57597129414952     
   6.67189131249300        2.74831384835181        3.94637712746026     
   4.72652200965797        5.28928573233050        5.71384773460734     
   6.04089099742253        6.29395210510834        6.48721859338758     
   6.62856534442836        6.71873217409741        2.70347049850822     
   3.85105374028559        4.58020562582507        5.09554607362584     
   5.47819288210036        5.76944085358302        5.99275289496858     
   6.16197127873732        6.28470012906455        6.36233487050270     
   2.50950579804277        3.52693682207995        4.15111196460690     
   4.58242549177470        4.89841996222382        5.13713390744780     
   5.31954261972303        5.45787858252135        5.55900290391833     
   5.62429182966379        2.16530499475064        2.97375260116539     
   3.45075235439906        3.77570400384556        4.01276129687481     
   4.19187765758033        4.32932781979363        4.43503440535461     
   4.51620026477693        4.57898736203575        1.65488363286367     
   2.20041235127113        2.51792247818428        2.73477239814564     
   2.89362631980148        3.01415176669165        3.10706776081631     
   3.17897463775017        3.23482363460713        3.28150682896788     
   1.00594045097697        1.31140279417609        1.49085721444784     
   1.61410889588686        1.70471389124697        1.77360636351524     
   1.82673558250441        1.86761414971949        1.89826942968926     
   1.91828487039035     
  0.000000000000000E+000  0.000000000000000E+000  0.000000000000000E+000
  0.000000000000000E+000  0.000000000000000E+000  0.000000000000000E+000
  0.000000000000000E+000  0.000000000000000E+000  0.000000000000000E+000
  0.000000000000000E+000  0.000000000000000E+000  0.000000000000000E+000
  0.000000000000000E+000  0.000000000000000E+000  0.000000000000000E+000
  0.000000000000000E+000  0.000000000000000E+000  0.000000000000000E+000
  0.000000000000000E+000  0.000000000000000E+000  0.000000000000000E+000
  0.000000000000000E+000  0.000000000000000E+000  0.000000000000000E+000
  0.000000000000000E+000  0.000000000000000E+000  0.000000000000000E+000
  0.000000000000000E+000  0.000000000000000E+000  0.000000000000000E+000
  0.000000000000000E+000  0.000000000000000E+000  0.000000000000000E+000
  0.000000000000000E+000  0.000000000000000E+000  0.000000000000000E+000
  0.000000000000000E+000  0.000000000000000E+000  0.000000000000000E+000
  0.000000000000000E+000  0.000000000000000E+000  0.000000000000000E+000
  0.000000000000000E+000  0.000000000000000E+000  0.000000000000000E+000
  0.000000000000000E+000  0.000000000000000E+000  0.000000000000000E+000
  0.000000000000000E+000  0.000000000000000E+000  0.000000000000000E+000
  0.000000000000000E+000  0.000000000000000E+000  0.000000000000000E+000
  0.000000000000000E+000  0.000000000000000E+000  0.000000000000000E+000
  0.000000000000000E+000  0.000000000000000E+000  0.000000000000000E+000
  0.000000000000000E+000  0.000000000000000E+000  0.000000000000000E+000
  0.000000000000000E+000  0.000000000000000E+000  0.000000000000000E+000
  0.000000000000000E+000  0.000000000000000E+000  0.000000000000000E+000
  0.000000000000000E+000  0.000000000000000E+000  0.000000000000000E+000
  0.000000000000000E+000  0.000000000000000E+000  0.000000000000000E+000
  0.000000000000000E+000  0.000000000000000E+000  0.000000000000000E+000
  0.000000000000000E+000  0.000000000000000E+000  0.000000000000000E+000
  0.000000000000000E+000  0.000000000000000E+000  0.000000000000000E+000
  0.000000000000000E+000  0.000000000000000E+000  0.000000000000000E+000
  0.000000000000000E+000  0.000000000000000E+000  0.000000000000000E+000
  0.000000000000000E+000  0.000000000000000E+000  0.000000000000000E+000
  0.000000000000000E+000  0.000000000000000E+000  0.000000000000000E+000
  0.000000000000000E+000  0.000000000000000E+000  0.000000000000000E+000
  0.000000000000000E+000  0.000000000000000E+000  0.000000000000000E+000
  0.000000000000000E+000  0.000000000000000E+000  0.000000000000000E+000
  0.000000000000000E+000  0.000000000000000E+000  0.000000000000000E+000
  0.000000000000000E+000  0.000000000000000E+000  0.000000000000000E+000
  0.000000000000000E+000  0.000000000000000E+000  0.000000000000000E+000
  0.000000000000000E+000  0.000000000000000E+000  0.000000000000000E+000