 Title = "Wing and Wake"
 VARIABLES = "X" "Y" "Z" "GAM" "skew"
 Zone I=   11 J=   26 K=1  T="Blade"
 DATAPACKING=BLOCK
 VARLOCATION=([4]=CELLCENTERED,[5]=CELLCENTERED)
 -0.263071925751640      -0.252343757293433      -0.241615588835225     
 -0.230887420377018      -0.220159251918811      -0.209431083460604     
 -0.198702915002397      -0.187974746544189      -0.177246578085982     
 -0.166518409627775      -0.155790241169568      -0.266142320287253     
 -0.255414151829046      -0.244685983370839      -0.233957814912632     
 -0.223229646454424      -0.212501477996217      -0.201773309538010     
 -0.191045141079803      -0.180316972621596      -0.169588804163389     
 -0.158860635705181      -0.275305081938102      -0.264576913479895     
 -0.253848745021688      -0.243120576563480      -0.232392408105273     
 -0.221664239647066      -0.210936071188859      -0.200207902730652     
 -0.189479734272444      -0.178751565814237      -0.168023397356030     
 -0.290415708479384      -0.279687540021177      -0.268959371562970     
 -0.258231203104763      -0.247503034646555      -0.236774866188348     
 -0.226046697730141      -0.215318529271934      -0.204590360813726     
 -0.193862192355519      -0.183134023897312      -0.311235896303892     
 -0.300507727845685      -0.289779559387478      -0.279051390929270     
 -0.268323222471063      -0.257595054012856      -0.246866885554649     
 -0.236138717096442      -0.225410548638235      -0.214682380180027     
 -0.203954211721820      -0.337437298612256      -0.326709130154050     
 -0.315980961695842      -0.305252793237635      -0.294524624779428     
 -0.283796456321221      -0.273068287863013      -0.262340119404806     
 -0.251611950946599      -0.240883782488391      -0.230155614030185     
 -0.368606703638115      -0.357878535179908      -0.347150366721701     
 -0.336422198263494      -0.325694029805287      -0.314965861347080     
 -0.304237692888872      -0.293509524430665      -0.282781355972458     
 -0.272053187514251      -0.261325019056043      -0.404252551244512     
 -0.393524382786304      -0.382796214328097      -0.372068045869890     
 -0.361339877411682      -0.350611708953476      -0.339883540495268     
 -0.329155372037061      -0.318427203578853      -0.307699035120646     
 -0.296970866662440      -0.443812685120894      -0.433084516662686     
 -0.422356348204479      -0.411628179746272      -0.400900011288065     
 -0.390171842829858      -0.379443674371650      -0.368715505913443     
 -0.357987337455236      -0.347259168997029      -0.336531000538822     
 -0.486663218323953      -0.475935049865746      -0.465206881407540     
 -0.454478712949332      -0.443750544491125      -0.433022376032917     
 -0.422294207574710      -0.411566039116503      -0.400837870658295     
 -0.390109702200089      -0.379381533741881      -0.532128372347411     
 -0.521400203889204      -0.510672035430997      -0.499943866972789     
 -0.489215698514582      -0.478487530056376      -0.467759361598167     
 -0.457031193139960      -0.446303024681753      -0.435574856223546     
 -0.424846687765339      -0.579491134552749      -0.568762966094542     
 -0.558034797636336      -0.547306629178127      -0.536578460719920     
 -0.525850292261713      -0.515122123803506      -0.504393955345299     
 -0.493665786887091      -0.482937618428884      -0.472209449970677     
 -0.628004565886848      -0.617276397428641      -0.606548228970432     
 -0.595820060512226      -0.585091892054018      -0.574363723595812     
 -0.563635555137604      -0.552907386679398      -0.542179218221190     
 -0.531451049762983      -0.520722881304776      -0.676903580557049     
 -0.666175412098841      -0.655447243640634      -0.644719075182427     
 -0.633990906724220      -0.623262738266012      -0.612534569807806     
 -0.601806401349598      -0.591078232891392      -0.580350064433184     
 -0.569621895974976      -0.725417011891147      -0.714688843432940     
 -0.703960674974734      -0.693232506516525      -0.682504338058317     
 -0.671776169600111      -0.661048001141903      -0.650319832683696     
 -0.639591664225489      -0.628863495767281      -0.618135327309076     
 -0.772779774096486      -0.762051605638277      -0.751323437180071     
 -0.740595268721864      -0.729867100263657      -0.719138931805450     
 -0.708410763347242      -0.697682594889035      -0.686954426430828     
 -0.676226257972619      -0.665498089514414      -0.818244928119943     
 -0.807516759661736      -0.796788591203528      -0.786060422745322     
 -0.775332254287114      -0.764604085828906      -0.753875917370700     
 -0.743147748912493      -0.732419580454285      -0.721691411996079     
 -0.710963243537871      -0.861095461323003      -0.850367292864795     
 -0.839639124406588      -0.828910955948381      -0.818182787490173     
 -0.807454619031967      -0.796726450573759      -0.785998282115552     
 -0.775270113657345      -0.764541945199137      -0.753813776740930     
 -0.900655595199384      -0.889927426741177      -0.879199258282970     
 -0.868471089824763      -0.857742921366556      -0.847014752908349     
 -0.836286584450141      -0.825558415991935      -0.814830247533728     
 -0.804102079075520      -0.793373910617313      -0.936301442805780     
 -0.925573274347574      -0.914845105889365      -0.904116937431160     
 -0.893388768972952      -0.882660600514744      -0.871932432056537     
 -0.861204263598331      -0.850476095140122      -0.839747926681916     
 -0.829019758223708      -0.967470847831639      -0.956742679373433     
 -0.946014510915224      -0.935286342457018      -0.924558173998812     
 -0.913830005540603      -0.903101837082397      -0.892373668624188     
 -0.881645500165983      -0.870917331707773      -0.860189163249566     
 -0.993672250140004      -0.982944081681797      -0.972215913223588     
 -0.961487744765382      -0.950759576307176      -0.940031407848970     
 -0.929303239390761      -0.918575070932553      -0.907846902474347     
 -0.897118734016138      -0.886390565557932       -1.01449243796451     
  -1.00376426950630      -0.993036101048097      -0.982307932589890     
 -0.971579764131684      -0.960851595673476      -0.950123427215269     
 -0.939395258757062      -0.928667090298854      -0.917938921840647     
 -0.907210753382439       -1.02960306450579       -1.01887489604759     
  -1.00814672758938      -0.997418559131172      -0.986690390672966     
 -0.975962222214758      -0.965234053756551      -0.954505885298342     
 -0.943777716840136      -0.933049548381929      -0.922321379923721     
  -1.03876582615664       -1.02803765769844       -1.01730948924023     
  -1.00658132078202      -0.995853152323813      -0.985124983865606     
 -0.974396815407398      -0.963668646949191      -0.952940478490986     
 -0.942212310032778      -0.931484141574570       -1.04183622069225     
  -1.03110805223405       -1.02037988377584       -1.00965171531763     
 -0.998923546859427      -0.988195378401221      -0.977467209943014     
 -0.966739041484805      -0.956010873026599      -0.945282704568390     
 -0.934554536110185     
 -4.265502262384049E-002 -2.741948466965602E-002 -1.218394671547151E-002
  3.051591238713024E-003  1.828712919289786E-002  3.352266714708209E-002
  4.875820510126673E-002  6.399374305545127E-002  7.922928100963569E-002
  9.446481896382035E-002  0.109700356918005      -4.049299133158969E-002
 -2.525745337740524E-002 -1.002191542322064E-002  5.213622530963827E-003
  2.044916048514834E-002  3.568469843933290E-002  5.092023639351741E-002
  6.615577434770183E-002  8.139131230188648E-002  9.662685025607107E-002
  0.111862388210256      -3.404099397985148E-002 -1.880545602566700E-002
 -3.569918071482302E-003  1.166561988270223E-002  2.690115783688661E-002
  4.213669579107120E-002  5.737223374525593E-002  7.260777169944023E-002
  8.784330965362459E-002  0.103078847607809       0.118314385561994     
 -2.340078242109873E-002 -8.165244466914088E-003  7.070293487270591E-003
  2.230583144145487E-002  3.754136939563931E-002  5.277690734982396E-002
  6.801244530400839E-002  8.324798325819283E-002  9.848352121237744E-002
  0.113719059166562       0.128954597120746      -8.740159147767681E-003
  6.495378806416850E-003  2.173091676060152E-002  3.696645471478609E-002
  5.220199266897046E-002  6.743753062315533E-002  8.267306857733984E-002
  9.790860653152411E-002  0.113144144485709       0.128379682439893     
  0.143615220394078       9.709669053289752E-003  2.494520700747450E-002
  4.018074496165878E-002  5.541628291584366E-002  7.065182087002796E-002
  8.588735882421290E-002  0.101122896778397       0.116358434732582     
  0.131593972686767       0.146829510640951       0.162065048595135     
  3.165773736994983E-002  4.689327532413421E-002  6.212881327831873E-002
  7.736435123250325E-002  9.259988918668793E-002  0.107835427140873     
  0.123070965095057       0.138306503049241       0.153542041003425     
  0.168777578957610       0.184013116911794       5.675791165371790E-002
  7.199344960790235E-002  8.722898756208708E-002  0.102464525516271     
  0.117700063470456       0.132935601424640       0.148171139378825     
  0.163406677333009       0.178642215287194       0.193877753241378     
  0.209113291195563       8.461434716202189E-002  9.984988511620677E-002
  0.115085423070391       0.130320961024575       0.145556498978760     
  0.160792036932944       0.176027574887129       0.191263112841313     
  0.206498650795498       0.221734188749682       0.236969726703867     
  0.114787731266268       0.130023269220452       0.145258807174637     
  0.160494345128822       0.175729883083006       0.190965421037190     
  0.206200958991374       0.221436496945559       0.236672034899744     
  0.251907572853928       0.267143110808113       0.146802211674426     
  0.162037749628611       0.177273287582795       0.192508825536979     
  0.207744363491164       0.222979901445349       0.238215439399532     
  0.253450977353718       0.268686515307901       0.283922053262086     
  0.299157591216271       0.180152900905936       0.195388438860120     
  0.210623976814305       0.225859514768489       0.241095052722674     
  0.256330590676858       0.271566128631043       0.286801666585227     
  0.302037204539412       0.317272742493596       0.332508280447780     
  0.214313838668880       0.229549376623065       0.244784914577249     
  0.260020452531434       0.275255990485618       0.290491528439802     
  0.305727066393988       0.320962604348172       0.336198142302356     
  0.351433680256541       0.366669218210726       0.248746286567983     
  0.263981824522167       0.279217362476351       0.294452900430536     
  0.309688438384721       0.324923976338906       0.340159514293091     
  0.355395052247274       0.370630590201460       0.385866128155644     
  0.401101666109828       0.282907224330927       0.298142762285112     
  0.313378300239297       0.328613838193480       0.343849376147665     
  0.359084914101849       0.374320452056034       0.389555990010219     
  0.404791527964403       0.420027065918587       0.435262603872773     
  0.316257913562437       0.331493451516621       0.346728989470806     
  0.361964527424990       0.377200065379175       0.392435603333360     
  0.407671141287544       0.422906679241729       0.438142217195913     
  0.453377755150097       0.468613293104283       0.348272393970595     
  0.363507931924779       0.378743469878964       0.393979007833149     
  0.409214545787333       0.424450083741517       0.439685621695703     
  0.454921159649887       0.470156697604071       0.485392235558256     
  0.500627773512440       0.378445778074841       0.393681316029025     
  0.408916853983210       0.424152391937394       0.439387929891579     
  0.454623467845764       0.469859005799948       0.485094543754133     
  0.500330081708317       0.515565619662501       0.530801157616685     
  0.406302213583145       0.421537751537329       0.436773289491515     
  0.452008827445698       0.467244365399883       0.482479903354068     
  0.497715441308251       0.512950979262436       0.528186517216621     
  0.543422055170806       0.558657593124990       0.431402387866912     
  0.446637925821098       0.461873463775281       0.477109001729468     
  0.492344539683650       0.507580077637836       0.522815615592019     
  0.538051153546205       0.553286691500389       0.568522229454575     
  0.583757767408758       0.453350456183573       0.468585994137758     
  0.483821532091941       0.499057070046125       0.514292608000311     
  0.529528145954494       0.544763683908681       0.559999221862865     
  0.575234759817050       0.590470297771233       0.605705835725417     
  0.471800284384629       0.487035822338814       0.502271360292999     
  0.517506898247184       0.532742436201367       0.547977974155554     
  0.563213512109738       0.578449050063921       0.593684588018106     
  0.608920125972291       0.624155663926477       0.486460907657962     
  0.501696445612145       0.516931983566330       0.532167521520514     
  0.547403059474699       0.562638597428884       0.577874135383069     
  0.593109673337254       0.608345211291438       0.623580749245621     
  0.638816287199807       0.497101119216714       0.512336657170898     
  0.527572195125083       0.542807733079267       0.558043271033452     
  0.573278808987638       0.588514346941821       0.603749884896006     
  0.618985422850189       0.634220960804376       0.649456498758559     
  0.503553116568452       0.518788654522636       0.534024192476820     
  0.549259730431005       0.564495268385190       0.579730806339376     
  0.594966344293559       0.610201882247744       0.625437420201928     
  0.640672958156113       0.655908496110297       0.505715147860702     
  0.520950685814888       0.536186223769071       0.551421761723257     
  0.566657299677441       0.581892837631625       0.597128375585811     
  0.612363913539995       0.627599451494179       0.642834989448363     
  0.658070527402549     
  3.960717710078315E-002  3.564645939070483E-002  3.168574168062652E-002
  2.772502397054821E-002  2.376430626046989E-002  1.980358855039158E-002
  1.584287084031326E-002  1.188215313023495E-002  7.921435420156629E-003
  3.960717710078312E-003  0.000000000000000E+000  3.960717710078315E-002
  3.564645939070483E-002  3.168574168062652E-002  2.772502397054821E-002
  2.376430626046989E-002  1.980358855039158E-002  1.584287084031326E-002
  1.188215313023495E-002  7.921435420156629E-003  3.960717710078312E-003
  0.000000000000000E+000  3.960717710078315E-002  3.564645939070483E-002
  3.168574168062652E-002  2.772502397054821E-002  2.376430626046989E-002
  1.980358855039158E-002  1.584287084031326E-002  1.188215313023495E-002
  7.921435420156629E-003  3.960717710078312E-003  0.000000000000000E+000
  3.960717710078315E-002  3.564645939070483E-002  3.168574168062652E-002
  2.772502397054821E-002  2.376430626046989E-002  1.980358855039158E-002
  1.584287084031326E-002  1.188215313023495E-002  7.921435420156629E-003
  3.960717710078312E-003  0.000000000000000E+000  3.960717710078315E-002
  3.564645939070483E-002  3.168574168062652E-002  2.772502397054821E-002
  2.376430626046989E-002  1.980358855039158E-002  1.584287084031326E-002
  1.188215313023495E-002  7.921435420156629E-003  3.960717710078312E-003
  0.000000000000000E+000  3.960717710078315E-002  3.564645939070483E-002
  3.168574168062652E-002  2.772502397054821E-002  2.376430626046989E-002
  1.980358855039158E-002  1.584287084031326E-002  1.188215313023495E-002
  7.921435420156629E-003  3.960717710078312E-003  0.000000000000000E+000
  3.960717710078315E-002  3.564645939070483E-002  3.168574168062652E-002
  2.772502397054821E-002  2.376430626046989E-002  1.980358855039158E-002
  1.584287084031326E-002  1.188215313023495E-002  7.921435420156629E-003
  3.960717710078312E-003  0.000000000000000E+000  3.960717710078315E-002
  3.564645939070483E-002  3.168574168062652E-002  2.772502397054821E-002
  2.376430626046989E-002  1.980358855039158E-002  1.584287084031326E-002
  1.188215313023495E-002  7.921435420156629E-003  3.960717710078312E-003
  0.000000000000000E+000  3.960717710078315E-002  3.564645939070483E-002
  3.168574168062652E-002  2.772502397054821E-002  2.376430626046989E-002
  1.980358855039158E-002  1.584287084031326E-002  1.188215313023495E-002
  7.921435420156629E-003  3.960717710078312E-003  0.000000000000000E+000
  3.960717710078315E-002  3.564645939070483E-002  3.168574168062652E-002
  2.772502397054821E-002  2.376430626046989E-002  1.980358855039158E-002
  1.584287084031326E-002  1.188215313023495E-002  7.921435420156629E-003
  3.960717710078312E-003  0.000000000000000E+000  3.960717710078315E-002
  3.564645939070483E-002  3.168574168062652E-002  2.772502397054821E-002
  2.376430626046989E-002  1.980358855039158E-002  1.584287084031326E-002
  1.188215313023495E-002  7.921435420156629E-003  3.960717710078312E-003
  0.000000000000000E+000  3.960717710078315E-002  3.564645939070483E-002
  3.168574168062652E-002  2.772502397054821E-002  2.376430626046989E-002
  1.980358855039158E-002  1.584287084031326E-002  1.188215313023495E-002
  7.921435420156629E-003  3.960717710078312E-003  0.000000000000000E+000
  3.960717710078315E-002  3.564645939070483E-002  3.168574168062652E-002
  2.772502397054821E-002  2.376430626046989E-002  1.980358855039158E-002
  1.584287084031326E-002  1.188215313023495E-002  7.921435420156629E-003
  3.960717710078312E-003  0.000000000000000E+000  3.960717710078315E-002
  3.564645939070483E-002  3.168574168062652E-002  2.772502397054821E-002
  2.376430626046989E-002  1.980358855039158E-002  1.584287084031326E-002
  1.188215313023495E-002  7.921435420156629E-003  3.960717710078312E-003
  0.000000000000000E+000  3.960717710078315E-002  3.564645939070483E-002
  3.168574168062652E-002  2.772502397054821E-002  2.376430626046989E-002
  1.980358855039158E-002  1.584287084031326E-002  1.188215313023495E-002
  7.921435420156629E-003  3.960717710078312E-003  0.000000000000000E+000
  3.960717710078315E-002  3.564645939070483E-002  3.168574168062652E-002
  2.772502397054821E-002  2.376430626046989E-002  1.980358855039158E-002
  1.584287084031326E-002  1.188215313023495E-002  7.921435420156629E-003
  3.960717710078312E-003  0.000000000000000E+000  3.960717710078315E-002
  3.564645939070483E-002  3.168574168062652E-002  2.772502397054821E-002
  2.376430626046989E-002  1.980358855039158E-002  1.584287084031326E-002
  1.188215313023495E-002  7.921435420156629E-003  3.960717710078312E-003
  0.000000000000000E+000  3.960717710078315E-002  3.564645939070483E-002
  3.168574168062652E-002  2.772502397054821E-002  2.376430626046989E-002
  1.980358855039158E-002  1.584287084031326E-002  1.188215313023495E-002
  7.921435420156629E-003  3.960717710078312E-003  0.000000000000000E+000
  3.960717710078315E-002  3.564645939070483E-002  3.168574168062652E-002
  2.772502397054821E-002  2.376430626046989E-002  1.980358855039158E-002
  1.584287084031326E-002  1.188215313023495E-002  7.921435420156629E-003
  3.960717710078312E-003  0.000000000000000E+000  3.960717710078315E-002
  3.564645939070483E-002  3.168574168062652E-002  2.772502397054821E-002
  2.376430626046989E-002  1.980358855039158E-002  1.584287084031326E-002
  1.188215313023495E-002  7.921435420156629E-003  3.960717710078312E-003
  0.000000000000000E+000  3.960717710078315E-002  3.564645939070483E-002
  3.168574168062652E-002  2.772502397054821E-002  2.376430626046989E-002
  1.980358855039158E-002  1.584287084031326E-002  1.188215313023495E-002
  7.921435420156629E-003  3.960717710078312E-003  0.000000000000000E+000
  3.960717710078315E-002  3.564645939070483E-002  3.168574168062652E-002
  2.772502397054821E-002  2.376430626046989E-002  1.980358855039158E-002
  1.584287084031326E-002  1.188215313023495E-002  7.921435420156629E-003
  3.960717710078312E-003  0.000000000000000E+000  3.960717710078315E-002
  3.564645939070483E-002  3.168574168062652E-002  2.772502397054821E-002
  2.376430626046989E-002  1.980358855039158E-002  1.584287084031326E-002
  1.188215313023495E-002  7.921435420156629E-003  3.960717710078312E-003
  0.000000000000000E+000  3.960717710078315E-002  3.564645939070483E-002
  3.168574168062652E-002  2.772502397054821E-002  2.376430626046989E-002
  1.980358855039158E-002  1.584287084031326E-002  1.188215313023495E-002
  7.921435420156629E-003  3.960717710078312E-003  0.000000000000000E+000
  3.960717710078315E-002  3.564645939070483E-002  3.168574168062652E-002
  2.772502397054821E-002  2.376430626046989E-002  1.980358855039158E-002
  1.584287084031326E-002  1.188215313023495E-002  7.921435420156629E-003
  3.960717710078312E-003  0.000000000000000E+000  3.960717710078315E-002
  3.564645939070483E-002  3.168574168062652E-002  2.772502397054821E-002
  2.376430626046989E-002  1.980358855039158E-002  1.584287084031326E-002
  1.188215313023495E-002  7.921435420156629E-003  3.960717710078312E-003
  0.000000000000000E+000
  5.206632367068365E-002  0.106540137735577       0.168889310971173     
  0.239979220611418       0.318610243134560       0.403216644602784     
  0.488527208597071       0.564931146547297       0.623217018914072     
  0.656219228886402       9.475442068301562E-002  0.188503614764260     
  0.294635688727609       0.414948319664478       0.547428337817091     
  0.689436289336934       0.832973522072808       0.962539754239086     
   1.06298641009261        1.12382792324866       0.153484369179084     
  0.288633456588772       0.436830735028475       0.602072809767495     
  0.782090320022947       0.973143721258189        1.16747557841124     
   1.34621966675309        1.48868947004294        1.57666624913258     
  0.228553403338537       0.404834999599694       0.587680441108235     
  0.785299663724216       0.997236908956136        1.22035303250730     
   1.44641994183554        1.65753637643687        1.82866853562821     
   1.93244809511789       0.320498009876677       0.539119124943748     
  0.750151165487692       0.967889863616738        1.19565779428606     
   1.43054657110211        1.66248015288696        1.87715820754033     
   2.05440312717081        2.16148416986304       0.430507239300245     
  0.696043099668072       0.934513171350956        1.16650018502821     
   1.39761445019446        1.62698603754057        1.84691877872830     
   2.04271570417585        2.19366233738120        2.27695842598266     
  0.558871131435602       0.877445638932157        1.14603285128646     
   1.39309917453090        1.62595916942595        1.84417214906957     
   2.04228214547087        2.21003005227309        2.33269996586255     
   2.39315485199903       0.702926642371686        1.07972298036298     
   1.38063197122614        1.64413118297687        1.88113068340951     
   2.09315077157462        2.27673227249750        2.42448828821364     
   2.52541294595233        2.56614312628253       0.856168348644889     
   1.29363162093438        1.62689622638304        1.90562103112541     
   2.14546467749654        2.35110253220369        2.52196912785458     
   2.65407799026069        2.74046559658269        2.77131071004983     
   1.01345020298208        1.51389028967633        1.88160717708814     
   2.17786478535101        2.42339231314364        2.62639573204115     
   2.78975819502328        2.91309328405308        2.99328858628354     
   3.02336609094574        1.17265992274051        1.73913424703477     
   2.14595985644004        2.46634831898738        2.72630417624461     
   2.93740723720615        3.10498587524719        3.23075307316427     
   3.31326705533864        3.34698224671744        1.33410069831198     
   1.96982066974827        2.42026713547092        2.77061202716002     
   3.05191736968527        3.27869686132606        3.45824201526444     
   3.59368387473790        3.68465637431361        3.72618053564844     
   1.49856093915072        2.20629777989644        2.70355100198846     
   3.08745884402131        3.39401665387742        3.64049989248780     
   3.83598657268354        3.98483105618447        4.08748193343682     
   4.13913860960457        1.66817824312381        2.45090304218321     
   2.99749363285478        3.41726611668532        3.75115148943879     
   4.01912782796578        4.23199943942277        4.39530918700560     
   4.51030932377706        4.57238735791282        1.84696587286811     
   2.70845343537796        3.30659931771546        3.76354992103533     
   4.12542113436238        4.41502457128167        4.64497575006197     
   4.82207729527710        4.94846850445003        5.01987872434862     
   2.04289280361830        2.98879435710637        3.64078942196803     
   4.13544890659858        4.52477445044149        4.83480338653678     
   5.08020739220805        5.26921634966983        5.40499348451085     
   5.48380717780934        2.26643775403976        3.30443654233933     
   4.01243540961068        4.54443754489504        4.95964090796036     
   5.28798207191037        5.54654353598638        5.74517240766705     
   5.88817173988182        5.97247889533073        2.50760552108812     
   3.63966607836659        4.40156374231412        4.96737870958192     
   5.40463327039282        5.74768624295120        6.01626137256553     
   6.22192117002810        6.37016750419648        6.45868202540857     
   2.71072732799160        3.91529586685902        4.71410966949656     
   5.29964653439815        5.74713323028553        6.09500574472826     
   6.36542082593238        6.57153942577393        6.72006715370554     
   6.80978500285763        2.80271271115674        4.02587127000709     
   4.82294556857021        5.39796295418232        5.83136086912568     
   6.16437777710054        6.42074304147109        6.61454615416725     
   6.75326435857297        6.83710501204211        2.74752845971386     
   3.91552384550504        4.65841670571114        5.18362330061923     
   5.57327675297891        5.86913049355037        6.09481454882354     
   6.26410205917708        6.38428952713879        6.45638166076676     
   2.54385779666771        3.57699650550187        4.21163931825325     
   4.65042269455382        4.97169106944453        5.21383113756169     
   5.39794124155808        5.53620386508956        5.63525490340204     
   5.69618519320870        2.19132349122957        3.01116005029928     
   3.49563227947589        3.82589888825089        4.06670656472032     
   4.24825491723019        4.38690348842756        4.49254253032833     
   4.57223008168296        4.63195831055406        1.67320563276667     
   2.22614420496663        2.54850755451572        2.76882494633864     
   2.93013362407165        3.05225392711933        3.14595701388710     
   3.21782269368311        3.27271181277144        3.31742468096600     
   1.01673762669699        1.32633304091713        1.50851995754980     
   1.63373267135197        1.72572923168062        1.79552702506743     
   1.84910345951564        1.88995856964441        1.92006498194793     
   1.93892384620795     
  0.000000000000000E+000  0.000000000000000E+000  0.000000000000000E+000
  0.000000000000000E+000  0.000000000000000E+000  0.000000000000000E+000
  0.000000000000000E+000  0.000000000000000E+000  0.000000000000000E+000
  0.000000000000000E+000  0.000000000000000E+000  0.000000000000000E+000
  0.000000000000000E+000  0.000000000000000E+000  0.000000000000000E+000
  0.000000000000000E+000  0.000000000000000E+000  0.000000000000000E+000
  0.000000000000000E+000  0.000000000000000E+000  0.000000000000000E+000
  0.000000000000000E+000  0.000000000000000E+000  0.000000000000000E+000
  0.000000000000000E+000  0.000000000000000E+000  0.000000000000000E+000
  0.000000000000000E+000  0.000000000000000E+000  0.000000000000000E+000
  0.000000000000000E+000  0.000000000000000E+000  0.000000000000000E+000
  0.000000000000000E+000  0.000000000000000E+000  0.000000000000000E+000
  0.000000000000000E+000  0.000000000000000E+000  0.000000000000000E+000
  0.000000000000000E+000  0.000000000000000E+000  0.000000000000000E+000
  0.000000000000000E+000  0.000000000000000E+000  0.000000000000000E+000
  0.000000000000000E+000  0.000000000000000E+000  0.000000000000000E+000
  0.000000000000000E+000  0.000000000000000E+000  0.000000000000000E+000
  0.000000000000000E+000  0.000000000000000E+000  0.000000000000000E+000
  0.000000000000000E+000  0.000000000000000E+000  0.000000000000000E+000
  0.000000000000000E+000  0.000000000000000E+000  0.000000000000000E+000
  0.000000000000000E+000  0.000000000000000E+000  0.000000000000000E+000
  0.000000000000000E+000  0.000000000000000E+000  0.000000000000000E+000
  0.000000000000000E+000  0.000000000000000E+000  0.000000000000000E+000
  0.000000000000000E+000  0.000000000000000E+000  0.000000000000000E+000
  0.000000000000000E+000  0.000000000000000E+000  0.000000000000000E+000
  0.000000000000000E+000  0.000000000000000E+000  0.000000000000000E+000
  0.000000000000000E+000  0.000000000000000E+000  0.000000000000000E+000
  0.000000000000000E+000  0.000000000000000E+000  0.000000000000000E+000
  0.000000000000000E+000  0.000000000000000E+000  0.000000000000000E+000
  0.000000000000000E+000  0.000000000000000E+000  0.000000000000000E+000
  0.000000000000000E+000  0.000000000000000E+000  0.000000000000000E+000
  0.000000000000000E+000  0.000000000000000E+000  0.000000000000000E+000
  0.000000000000000E+000  0.000000000000000E+000  0.000000000000000E+000
  0.000000000000000E+000  0.000000000000000E+000  0.000000000000000E+000
  0.000000000000000E+000  0.000000000000000E+000  0.000000000000000E+000
  0.000000000000000E+000  0.000000000000000E+000  0.000000000000000E+000
  0.000000000000000E+000  0.000000000000000E+000  0.000000000000000E+000
  0.000000000000000E+000  0.000000000000000E+000  0.000000000000000E+000
  0.000000000000000E+000  0.000000000000000E+000  0.000000000000000E+000