 Title = "Wing and Wake"
 VARIABLES = "X" "Y" "Z" "GAM" "skew"
 Zone I=   11 J=   26 K=1  T="Blade"
 DATAPACKING=BLOCK
 VARLOCATION=([4]=CELLCENTERED,[5]=CELLCENTERED)
  0.265145709433903       0.250838874947384       0.236532040460866     
  0.222225205974346       0.207918371487828       0.193611537001309     
  0.179304702514790       0.164997868028271       0.150691033541752     
  0.136384199055233       0.122077364568714       0.267551673185419     
  0.253244838698900       0.238938004212381       0.224631169725862     
  0.210324335239343       0.196017500752824       0.181710666266305     
  0.167403831779786       0.153096997293268       0.138790162806749     
  0.124483328320230       0.274731620954351       0.260424786467833     
  0.246117951981314       0.231811117494795       0.217504283008276     
  0.203197448521757       0.188890614035238       0.174583779548719     
  0.160276945062200       0.145970110575681       0.131663276089162     
  0.286572320675292       0.272265486188773       0.257958651702254     
  0.243651817215735       0.229344982729217       0.215038148242697     
  0.200731313756179       0.186424479269660       0.172117644783141     
  0.157810810296622       0.143503975810103       0.302887037440350     
  0.288580202953831       0.274273368467312       0.259966533980793     
  0.245659699494274       0.231352865007755       0.217046030521237     
  0.202739196034718       0.188432361548199       0.174125527061680     
  0.159818692575161       0.323418478420201       0.309111643933682     
  0.294804809447163       0.280497974960644       0.266191140474126     
  0.251884305987607       0.237577471501088       0.223270637014569     
  0.208963802528050       0.194656968041531       0.180350133555012     
  0.347842850525705       0.333536016039186       0.319229181552667     
  0.304922347066148       0.290615512579629       0.276308678093111     
  0.262001843606592       0.247695009120073       0.233388174633554     
  0.219081340147035       0.204774505660516       0.375774966818345     
  0.361468132331826       0.347161297845307       0.332854463358788     
  0.318547628872269       0.304240794385751       0.289933959899232     
  0.275627125412713       0.261320290926193       0.247013456439675     
  0.232706621953156       0.406774321138349       0.392467486651830     
  0.378160652165311       0.363853817678792       0.349546983192273     
  0.335240148705754       0.320933314219235       0.306626479732716     
  0.292319645246198       0.278012810759679       0.263705976273160     
  0.440352035149973       0.426045200663454       0.411738366176935     
  0.397431531690416       0.383124697203897       0.368817862717379     
  0.354511028230859       0.340204193744341       0.325897359257821     
  0.311590524771303       0.297283690284784       0.475978568244900     
  0.461671733758382       0.447364899271863       0.433058064785344     
  0.418751230298825       0.404444395812306       0.390137561325787     
  0.375830726839268       0.361523892352749       0.347217057866231     
  0.332910223379711       0.513092068713965       0.498785234227446     
  0.484478399740927       0.470171565254408       0.455864730767889     
  0.441557896281370       0.427251061794852       0.412944227308333     
  0.398637392821814       0.384330558335295       0.370023723848776     
  0.551107234484239       0.536800399997719       0.522493565511200     
  0.508186731024682       0.493879896538163       0.479573062051644     
  0.465266227565124       0.450959393078606       0.436652558592087     
  0.422345724105569       0.408038889619049       0.589424543682365     
  0.575117709195846       0.560810874709327       0.546504040222808     
  0.532197205736289       0.517890371249770       0.503583536763252     
  0.489276702276732       0.474969867790214       0.460663033303695     
  0.446356198817176       0.627439709452639       0.613132874966120     
  0.598826040479601       0.584519205993082       0.570212371506562     
  0.555905537020044       0.541598702533525       0.527291868047005     
  0.512985033560487       0.498678199073968       0.484371364587450     
  0.664553209921703       0.650246375435183       0.635939540948665     
  0.621632706462146       0.607325871975627       0.593019037489108     
  0.578712203002589       0.564405368516071       0.550098534029552     
  0.535791699543032       0.521484865056514       0.700179743016630     
  0.685872908530111       0.671566074043592       0.657259239557074     
  0.642952405070555       0.628645570584036       0.614338736097516     
  0.600031901610998       0.585725067124479       0.571418232637960     
  0.557111398151442       0.733757457028255       0.719450622541735     
  0.705143788055217       0.690836953568698       0.676530119082179     
  0.662223284595660       0.647916450109141       0.633609615622622     
  0.619302781136103       0.604995946649584       0.590689112163065     
  0.764756811348257       0.750449976861739       0.736143142375220     
  0.721836307888701       0.707529473402183       0.693222638915664     
  0.678915804429144       0.664608969942626       0.650302135456107     
  0.635995300969588       0.621688466483069       0.792688927640898     
  0.778382093154380       0.764075258667860       0.749768424181341     
  0.735461589694823       0.721154755208303       0.706847920721785     
  0.692541086235266       0.678234251748747       0.663927417262228     
  0.649620582775708       0.817113299746403       0.802806465259883     
  0.788499630773364       0.774192796286845       0.759885961800326     
  0.745579127313807       0.731272292827288       0.716965458340770     
  0.702658623854251       0.688351789367731       0.674044954881213     
  0.837644740726253       0.823337906239735       0.809031071753214     
  0.794724237266696       0.780417402780179       0.766110568293659     
  0.751803733807140       0.737496899320621       0.723190064834102     
  0.708883230347583       0.694576395861064       0.853959457491311     
  0.839652623004792       0.825345788518274       0.811038954031754     
  0.796732119545236       0.782425285058717       0.768118450572198     
  0.753811616085679       0.739504781599159       0.725197947112641     
  0.710891112626122       0.865800157212252       0.851493322725734     
  0.837186488239214       0.822879653752695       0.808572819266177     
  0.794265984779657       0.779959150293138       0.765652315806620     
  0.751345481320101       0.737038646833582       0.722731812347063     
  0.872980104981184       0.858673270494665       0.844366436008147     
  0.830059601521627       0.815752767035109       0.801445932548590     
  0.787139098062070       0.772832263575551       0.758525429089033     
  0.744218594602513       0.729911760115994       0.875386068732700     
  0.861079234246181       0.846772399759662       0.832465565273144     
  0.818158730786624       0.803851896300106       0.789545061813586     
  0.775238227327067       0.760931392840550       0.746624558354029     
  0.732317723867512     
 -2.690802561521704E-002 -3.884660602481466E-002 -5.078518643441213E-002
 -6.272376684400940E-002 -7.466234725360721E-002 -8.660092766320440E-002
 -9.853950807280186E-002 -0.110478088482399      -0.122416668891997     
 -0.134355249301594      -0.146293829711192      -2.979125996909621E-002
 -4.172984037869377E-002 -5.366842078829125E-002 -6.560700119788870E-002
 -7.754558160748608E-002 -8.948416201708355E-002 -0.101422742426681     
 -0.113361322836278      -0.125299903245876      -0.137238483655473     
 -0.149177064065071      -3.839549270261193E-002 -5.033407311220941E-002
 -6.227265352180699E-002 -7.421123393140446E-002 -8.614981434100177E-002
 -9.808839475059927E-002 -0.110026975160197      -0.121965555569794     
 -0.133904135979392      -0.145842716388989      -0.157781296798587     
 -5.258502992563763E-002 -6.452361033523515E-002 -7.646219074483274E-002
 -8.840077115443000E-002 -0.100339351564027      -0.112277931973625     
 -0.124216512383222      -0.136155092792820      -0.148093673202417     
 -0.160032253612015      -0.171970834021612      -7.213609415974696E-002
 -8.407467456934448E-002 -9.601325497894204E-002 -0.107951835388539     
 -0.119890415798137      -0.131828996207734      -0.143767576617332     
 -0.155706157026929      -0.167644737436527      -0.179583317846124     
 -0.191521898255722      -9.674035344272874E-002 -0.108678933852326     
 -0.120617514261924      -0.132556094671521      -0.144494675081119     
 -0.156433255490717      -0.168371835900314      -0.180310416309911     
 -0.192248996719509      -0.204187577129106      -0.216126157538703     
 -0.126009783907818      -0.137948364317416      -0.149886944727013     
 -0.161825525136611      -0.173764105546208      -0.185702685955806     
 -0.197641266365403      -0.209579846775001      -0.221518427184598     
 -0.233457007594195      -0.245395588003793      -0.159482789151871     
 -0.171421369561468      -0.183359949971066      -0.195298530380663     
 -0.207237110790261      -0.219175691199858      -0.231114271609456     
 -0.243052852019053      -0.254991432428650      -0.266930012838248     
 -0.278868593247846      -0.196631479886384      -0.208570060295981     
 -0.220508640705578      -0.232447221115176      -0.244385801524773     
 -0.256324381934371      -0.268262962343968      -0.280201542753566     
 -0.292140123163164      -0.304078703572761      -0.316017283982358     
 -0.236869999066921      -0.248808579476518      -0.260747159886116     
 -0.272685740295713      -0.284624320705311      -0.296562901114908     
 -0.308501481524505      -0.320440061934103      -0.332378642343700     
 -0.344317222753298      -0.356255803162895      -0.279563761208680     
 -0.291502341618277      -0.303440922027875      -0.315379502437472     
 -0.327318082847070      -0.339256663256667      -0.351195243666265     
 -0.363133824075862      -0.375072404485459      -0.387010984895057     
 -0.398949565304654      -0.324039460178667      -0.335978040588265     
 -0.347916620997862      -0.359855201407459      -0.371793781817057     
 -0.383732362226654      -0.395670942636252      -0.407609523045850     
 -0.419548103455447      -0.431486683865044      -0.443425264274642     
 -0.369595687635632      -0.381534268045229      -0.393472848454826     
 -0.405411428864424      -0.417350009274022      -0.429288589683619     
 -0.441227170093217      -0.453165750502814      -0.465104330912411     
 -0.477042911322009      -0.488981491731607      -0.415513994658606     
 -0.427452575068204      -0.439391155477801      -0.451329735887398     
 -0.463268316296996      -0.475206896706594      -0.487145477116192     
 -0.499084057525788      -0.511022637935386      -0.522961218344984     
 -0.534899798754580      -0.461070222115571      -0.473008802525168     
 -0.484947382934766      -0.496885963344362      -0.508824543753961     
 -0.520763124163558      -0.532701704573155      -0.544640284982752     
 -0.556578865392350      -0.568517445801948      -0.580456026211546     
 -0.505545921085558      -0.517484501495155      -0.529423081904753     
 -0.541361662314350      -0.553300242723948      -0.565238823133546     
 -0.577177403543142      -0.589115983952741      -0.601054564362338     
 -0.612993144771935      -0.624931725181533      -0.548239683227317     
 -0.560178263636915      -0.572116844046512      -0.584055424456110     
 -0.595994004865707      -0.607932585275304      -0.619871165684902     
 -0.631809746094499      -0.643748326504097      -0.655686906913695     
 -0.667625487323292      -0.588478202407855      -0.600416782817452     
 -0.612355363227050      -0.624293943636646      -0.636232524046244     
 -0.648171104455842      -0.660109684865439      -0.672048265275037     
 -0.683986845684634      -0.695925426094232      -0.707864006503828     
 -0.625626893142367      -0.637565473551964      -0.649504053961562     
 -0.661442634371159      -0.673381214780757      -0.685319795190354     
 -0.697258375599951      -0.709196956009549      -0.721135536419146     
 -0.733074116828744      -0.745012697238342      -0.659099898386419     
 -0.671038478796017      -0.682977059205614      -0.694915639615213     
 -0.706854220024809      -0.718792800434407      -0.730731380844004     
 -0.742669961253602      -0.754608541663199      -0.766547122072797     
 -0.778485702482394      -0.688369328851510      -0.700307909261107     
 -0.712246489670703      -0.724185070080301      -0.736123650489899     
 -0.748062230899496      -0.760000811309094      -0.771939391718692     
 -0.783877972128288      -0.795816552537886      -0.807755132947484     
 -0.712973588134491      -0.724912168544088      -0.736850748953685     
 -0.748789329363283      -0.760727909772880      -0.772666490182479     
 -0.784605070592076      -0.796543651001673      -0.808482231411270     
 -0.820420811820868      -0.832359392230466      -0.732524652368600     
 -0.744463232778197      -0.756401813187795      -0.768340393597392     
 -0.780278974006990      -0.792217554416588      -0.804156134826185     
 -0.816094715235782      -0.828033295645380      -0.839971876054977     
 -0.851910456464574      -0.746714189591626      -0.758652770001223     
 -0.770591350410820      -0.782529930820419      -0.794468511230015     
 -0.806407091639613      -0.818345672049210      -0.830284252458809     
 -0.842222832868405      -0.854161413278003      -0.866099993687600     
 -0.755318422325141      -0.767257002734738      -0.779195583144336     
 -0.791134163553933      -0.803072743963531      -0.815011324373129     
 -0.826949904782726      -0.838888485192324      -0.850827065601922     
 -0.862765646011518      -0.874704226421115      -0.758201656679020     
 -0.770140237088618      -0.782078817498215      -0.794017397907814     
 -0.805955978317410      -0.817894558727008      -0.829833139136606     
 -0.841771719546202      -0.853710299955801      -0.865648880365397     
 -0.877587460774996     
  3.960717710078315E-002  3.564645939070483E-002  3.168574168062652E-002
  2.772502397054821E-002  2.376430626046989E-002  1.980358855039158E-002
  1.584287084031326E-002  1.188215313023495E-002  7.921435420156629E-003
  3.960717710078312E-003  0.000000000000000E+000  3.960717710078315E-002
  3.564645939070483E-002  3.168574168062652E-002  2.772502397054821E-002
  2.376430626046989E-002  1.980358855039158E-002  1.584287084031326E-002
  1.188215313023495E-002  7.921435420156629E-003  3.960717710078312E-003
  0.000000000000000E+000  3.960717710078315E-002  3.564645939070483E-002
  3.168574168062652E-002  2.772502397054821E-002  2.376430626046989E-002
  1.980358855039158E-002  1.584287084031326E-002  1.188215313023495E-002
  7.921435420156629E-003  3.960717710078312E-003  0.000000000000000E+000
  3.960717710078315E-002  3.564645939070483E-002  3.168574168062652E-002
  2.772502397054821E-002  2.376430626046989E-002  1.980358855039158E-002
  1.584287084031326E-002  1.188215313023495E-002  7.921435420156629E-003
  3.960717710078312E-003  0.000000000000000E+000  3.960717710078315E-002
  3.564645939070483E-002  3.168574168062652E-002  2.772502397054821E-002
  2.376430626046989E-002  1.980358855039158E-002  1.584287084031326E-002
  1.188215313023495E-002  7.921435420156629E-003  3.960717710078312E-003
  0.000000000000000E+000  3.960717710078315E-002  3.564645939070483E-002
  3.168574168062652E-002  2.772502397054821E-002  2.376430626046989E-002
  1.980358855039158E-002  1.584287084031326E-002  1.188215313023495E-002
  7.921435420156629E-003  3.960717710078312E-003  0.000000000000000E+000
  3.960717710078315E-002  3.564645939070483E-002  3.168574168062652E-002
  2.772502397054821E-002  2.376430626046989E-002  1.980358855039158E-002
  1.584287084031326E-002  1.188215313023495E-002  7.921435420156629E-003
  3.960717710078312E-003  0.000000000000000E+000  3.960717710078315E-002
  3.564645939070483E-002  3.168574168062652E-002  2.772502397054821E-002
  2.376430626046989E-002  1.980358855039158E-002  1.584287084031326E-002
  1.188215313023495E-002  7.921435420156629E-003  3.960717710078312E-003
  0.000000000000000E+000  3.960717710078315E-002  3.564645939070483E-002
  3.168574168062652E-002  2.772502397054821E-002  2.376430626046989E-002
  1.980358855039158E-002  1.584287084031326E-002  1.188215313023495E-002
  7.921435420156629E-003  3.960717710078312E-003  0.000000000000000E+000
  3.960717710078315E-002  3.564645939070483E-002  3.168574168062652E-002
  2.772502397054821E-002  2.376430626046989E-002  1.980358855039158E-002
  1.584287084031326E-002  1.188215313023495E-002  7.921435420156629E-003
  3.960717710078312E-003  0.000000000000000E+000  3.960717710078315E-002
  3.564645939070483E-002  3.168574168062652E-002  2.772502397054821E-002
  2.376430626046989E-002  1.980358855039158E-002  1.584287084031326E-002
  1.188215313023495E-002  7.921435420156629E-003  3.960717710078312E-003
  0.000000000000000E+000  3.960717710078315E-002  3.564645939070483E-002
  3.168574168062652E-002  2.772502397054821E-002  2.376430626046989E-002
  1.980358855039158E-002  1.584287084031326E-002  1.188215313023495E-002
  7.921435420156629E-003  3.960717710078312E-003  0.000000000000000E+000
  3.960717710078315E-002  3.564645939070483E-002  3.168574168062652E-002
  2.772502397054821E-002  2.376430626046989E-002  1.980358855039158E-002
  1.584287084031326E-002  1.188215313023495E-002  7.921435420156629E-003
  3.960717710078312E-003  0.000000000000000E+000  3.960717710078315E-002
  3.564645939070483E-002  3.168574168062652E-002  2.772502397054821E-002
  2.376430626046989E-002  1.980358855039158E-002  1.584287084031326E-002
  1.188215313023495E-002  7.921435420156629E-003  3.960717710078312E-003
  0.000000000000000E+000  3.960717710078315E-002  3.564645939070483E-002
  3.168574168062652E-002  2.772502397054821E-002  2.376430626046989E-002
  1.980358855039158E-002  1.584287084031326E-002  1.188215313023495E-002
  7.921435420156629E-003  3.960717710078312E-003  0.000000000000000E+000
  3.960717710078315E-002  3.564645939070483E-002  3.168574168062652E-002
  2.772502397054821E-002  2.376430626046989E-002  1.980358855039158E-002
  1.584287084031326E-002  1.188215313023495E-002  7.921435420156629E-003
  3.960717710078312E-003  0.000000000000000E+000  3.960717710078315E-002
  3.564645939070483E-002  3.168574168062652E-002  2.772502397054821E-002
  2.376430626046989E-002  1.980358855039158E-002  1.584287084031326E-002
  1.188215313023495E-002  7.921435420156629E-003  3.960717710078312E-003
  0.000000000000000E+000  3.960717710078315E-002  3.564645939070483E-002
  3.168574168062652E-002  2.772502397054821E-002  2.376430626046989E-002
  1.980358855039158E-002  1.584287084031326E-002  1.188215313023495E-002
  7.921435420156629E-003  3.960717710078312E-003  0.000000000000000E+000
  3.960717710078315E-002  3.564645939070483E-002  3.168574168062652E-002
  2.772502397054821E-002  2.376430626046989E-002  1.980358855039158E-002
  1.584287084031326E-002  1.188215313023495E-002  7.921435420156629E-003
  3.960717710078312E-003  0.000000000000000E+000  3.960717710078315E-002
  3.564645939070483E-002  3.168574168062652E-002  2.772502397054821E-002
  2.376430626046989E-002  1.980358855039158E-002  1.584287084031326E-002
  1.188215313023495E-002  7.921435420156629E-003  3.960717710078312E-003
  0.000000000000000E+000  3.960717710078315E-002  3.564645939070483E-002
  3.168574168062652E-002  2.772502397054821E-002  2.376430626046989E-002
  1.980358855039158E-002  1.584287084031326E-002  1.188215313023495E-002
  7.921435420156629E-003  3.960717710078312E-003  0.000000000000000E+000
  3.960717710078315E-002  3.564645939070483E-002  3.168574168062652E-002
  2.772502397054821E-002  2.376430626046989E-002  1.980358855039158E-002
  1.584287084031326E-002  1.188215313023495E-002  7.921435420156629E-003
  3.960717710078312E-003  0.000000000000000E+000  3.960717710078315E-002
  3.564645939070483E-002  3.168574168062652E-002  2.772502397054821E-002
  2.376430626046989E-002  1.980358855039158E-002  1.584287084031326E-002
  1.188215313023495E-002  7.921435420156629E-003  3.960717710078312E-003
  0.000000000000000E+000  3.960717710078315E-002  3.564645939070483E-002
  3.168574168062652E-002  2.772502397054821E-002  2.376430626046989E-002
  1.980358855039158E-002  1.584287084031326E-002  1.188215313023495E-002
  7.921435420156629E-003  3.960717710078312E-003  0.000000000000000E+000
  3.960717710078315E-002  3.564645939070483E-002  3.168574168062652E-002
  2.772502397054821E-002  2.376430626046989E-002  1.980358855039158E-002
  1.584287084031326E-002  1.188215313023495E-002  7.921435420156629E-003
  3.960717710078312E-003  0.000000000000000E+000  3.960717710078315E-002
  3.564645939070483E-002  3.168574168062652E-002  2.772502397054821E-002
  2.376430626046989E-002  1.980358855039158E-002  1.584287084031326E-002
  1.188215313023495E-002  7.921435420156629E-003  3.960717710078312E-003
  0.000000000000000E+000
  0.179004603200250       0.255506884191438       0.314597173069504     
  0.365277154679888       0.409670254756946       0.448469576211866     
  0.481870216184793       0.509574751012488       0.531705406858826     
  0.548023438490706       0.295486613146634       0.428284086690977     
  0.529312932320663       0.615281250238107       0.690311479418911     
  0.755863184395858       0.812371534277367       0.859618314007427     
  0.898140857856627       0.929716711952408       0.388985650132838     
  0.577640665506910       0.719593440139605       0.838747724233253     
  0.941854859261783        1.03175269780981        1.10951098192865     
   1.17525907028066        1.23001172561282        1.27495952472288     
  0.453509343596002       0.684173567429786       0.858847901843614     
   1.00414686401013        1.12889273144397        1.23694497993723     
   1.32986704788940        1.40816973261849        1.47238743822782     
   1.52099752330864       0.494851228106225       0.751996809381219     
  0.948329126152215        1.11131143365812        1.25044212643456     
   1.37014742394331        1.47232972931310        1.55785521359261     
   1.62684905539805        1.67657204663861       0.524504905859505     
  0.797716151745100        1.00643442211676        1.17967556805978     
   1.32733245813260        1.45387785467507        1.56137765961129     
   1.65063835444311        1.72141536031523        1.77070173496640     
  0.559029138273634       0.847149104686307        1.06554404645907     
   1.24583688785281        1.39890588674661        1.52958949477143     
   1.64020732562307        1.73164918922378        1.80347199707590     
   1.85232783410575       0.613844091381904       0.924444115225350     
   1.15661687800379        1.34632379864802        1.50621801532650     
   1.64202950979428        1.75655528222991        1.85089120307134     
   1.92451903286584        1.97377152545037       0.699632937628840     
   1.04646253638328        1.30151578854620        1.50727452501513     
   1.67902353291889        1.82386351214307        1.94534197805864     
   2.04492757964189        2.12220997017445        2.17329411672535     
  0.819316733971244        1.21823639270150        1.50716741074231     
   1.73733229410291        1.92746849397152        2.08645521878597     
   2.21887734864954        2.32681107414806        2.41009383730552     
   2.46461791604954       0.969731623972019        1.43538518255815     
   1.76847944911933        2.03091811484874        2.24562974740923     
   2.42365823587658        2.57084812883931        2.69002081366305     
   2.78137427039228        2.84067116975229        1.14500160508752     
   1.68918015023193        2.07469275568481        2.37571146085875     
   2.61994085626571        2.82088046728963        2.98581522980197     
   3.11844486168252        3.21942785596588        3.28444959977412     
   1.33925705457798        1.97075669371828        2.41469188784796     
   2.75874934969204        3.03589623792463        3.26234403874736     
   3.44697592004078        3.59447521145485        3.70603250158417     
   3.77731485094171        1.54811849351145        2.27322348453847     
   2.77953376777156        3.16930502555324        3.48119898507381     
   3.73438370791991        3.93949909903402        4.10232332838164     
   4.22467647798343        4.30230407390353        1.76884894678768     
   2.59179265090697        3.16250229063519        3.59883935650766     
   3.94561627596125        4.22523043338421        4.45027396421204     
   4.62777559308990        4.76031401983114        4.84384368499600     
   1.99840552066979        2.92089221647586        3.55560118965157     
   4.03708790274353        4.41682554345275        4.72075196569230     
   4.96363366759104        5.15392237045389        5.29510548665108     
   5.38352494486266        2.22667574836395        3.24477554762919     
   3.93868394285617        4.46029512822378        4.86810593160503     
   5.19181700253412        5.44851446687930        5.64819315463364     
   5.79539014740796        5.88706589472280        2.42748887375303     
   3.52511476365840        4.26505518151815        4.81544676766849     
   5.24150660790822        5.57657821282688        5.83999850556546     
   6.04327678714210        6.19206741215047        6.28426857296780     
   2.56274907713408        3.70630147863025        4.46711510854156     
   5.02591623549408        5.45337027680369        5.78583947935438     
   6.04452292831097        6.24218132031080        6.38549307740533     
   6.47367456758671        2.60130496511535        3.74142444225202     
   4.48667685615741        5.02513760991336        5.43100944419225     
   5.74257438422927        5.98208314708141        6.16291548760961     
   6.29235056961428        6.37102681996018        2.52799049940824     
   3.60539440650381        4.29178803338385        4.77725737060313     
   5.13710236788142        5.40973767365348        5.61706337249043     
   5.77200557461137        5.88161281879256        5.94730391568496     
   2.33546656301100        3.28440804182168        3.86727259045400     
   4.26986759475789        4.56403113215304        4.78502418114499     
   4.95232732289187        5.07732160463701        5.16640585709452     
   5.22110036041940        2.01284166474065        2.76480383924300     
   3.20844501728966        3.51021487932917        3.72956193608414     
   3.89423627097010        4.01933214876414        4.11406976733052     
   4.18516948333766        4.23859364478376        1.53853119988607     
   2.04535983441537        2.34006627970495        2.54088932968918     
   2.68737241698178        2.79773359593209        2.88191016000426     
   2.94603367549879        2.99472604211822        3.03454679287041     
  0.935392320491418        1.21906563622760        1.38550973696413     
   1.49953731759943        1.58298121823991        1.64596912125884     
   1.69401623806616        1.73038731800114        1.75698449204952     
   1.77353588504507     
  0.000000000000000E+000  0.000000000000000E+000  0.000000000000000E+000
  0.000000000000000E+000  0.000000000000000E+000  0.000000000000000E+000
  0.000000000000000E+000  0.000000000000000E+000  0.000000000000000E+000
  0.000000000000000E+000  0.000000000000000E+000  0.000000000000000E+000
  0.000000000000000E+000  0.000000000000000E+000  0.000000000000000E+000
  0.000000000000000E+000  0.000000000000000E+000  0.000000000000000E+000
  0.000000000000000E+000  0.000000000000000E+000  0.000000000000000E+000
  0.000000000000000E+000  0.000000000000000E+000  0.000000000000000E+000
  0.000000000000000E+000  0.000000000000000E+000  0.000000000000000E+000
  0.000000000000000E+000  0.000000000000000E+000  0.000000000000000E+000
  0.000000000000000E+000  0.000000000000000E+000  0.000000000000000E+000
  0.000000000000000E+000  0.000000000000000E+000  0.000000000000000E+000
  0.000000000000000E+000  0.000000000000000E+000  0.000000000000000E+000
  0.000000000000000E+000  0.000000000000000E+000  0.000000000000000E+000
  0.000000000000000E+000  0.000000000000000E+000  0.000000000000000E+000
  0.000000000000000E+000  0.000000000000000E+000  0.000000000000000E+000
  0.000000000000000E+000  0.000000000000000E+000  0.000000000000000E+000
  0.000000000000000E+000  0.000000000000000E+000  0.000000000000000E+000
  0.000000000000000E+000  0.000000000000000E+000  0.000000000000000E+000
  0.000000000000000E+000  0.000000000000000E+000  0.000000000000000E+000
  0.000000000000000E+000  0.000000000000000E+000  0.000000000000000E+000
  0.000000000000000E+000  0.000000000000000E+000  0.000000000000000E+000
  0.000000000000000E+000  0.000000000000000E+000  0.000000000000000E+000
  0.000000000000000E+000  0.000000000000000E+000  0.000000000000000E+000
  0.000000000000000E+000  0.000000000000000E+000  0.000000000000000E+000
  0.000000000000000E+000  0.000000000000000E+000  0.000000000000000E+000
  0.000000000000000E+000  0.000000000000000E+000  0.000000000000000E+000
  0.000000000000000E+000  0.000000000000000E+000  0.000000000000000E+000
  0.000000000000000E+000  0.000000000000000E+000  0.000000000000000E+000
  0.000000000000000E+000  0.000000000000000E+000  0.000000000000000E+000
  0.000000000000000E+000  0.000000000000000E+000  0.000000000000000E+000
  0.000000000000000E+000  0.000000000000000E+000  0.000000000000000E+000
  0.000000000000000E+000  0.000000000000000E+000  0.000000000000000E+000
  0.000000000000000E+000  0.000000000000000E+000  0.000000000000000E+000
  0.000000000000000E+000  0.000000000000000E+000  0.000000000000000E+000
  0.000000000000000E+000  0.000000000000000E+000  0.000000000000000E+000
  0.000000000000000E+000  0.000000000000000E+000  0.000000000000000E+000
  0.000000000000000E+000  0.000000000000000E+000  0.000000000000000E+000
  0.000000000000000E+000  0.000000000000000E+000  0.000000000000000E+000