 Title = "Wing and Wake"
 VARIABLES = "X" "Y" "Z" "GAM" "skew"
 Zone I=   11 J=   26 K=1  T="Blade"
 DATAPACKING=BLOCK
 VARLOCATION=([4]=CELLCENTERED,[5]=CELLCENTERED)
  0.234676458147854       0.216890454324678       0.199104450501501     
  0.181318446678324       0.163532442855148       0.145746439031971     
  0.127960435208794       0.110174431385618       9.238842756244102E-002
  7.460242373926404E-002  5.681641991608746E-002  0.235796225496141     
  0.218010221672965       0.200224217849788       0.182438214026612     
  0.164652210203435       0.146866206380258       0.129080202557082     
  0.111294198733905       9.350819491072818E-002  7.572219108755160E-002
  5.793618726437465E-002  0.239137868141004       0.221351864317828     
  0.203565860494651       0.185779856671474       0.167993852848297     
  0.150207849025121       0.132421845201944       0.114635841378767     
  9.684983755559075E-002  7.906383373241381E-002  6.127782990923730E-002
  0.244648686381732       0.226862682558556       0.209076678735379     
  0.191290674912202       0.173504671089025       0.155718667265849     
  0.137932663442672       0.120146659619495       0.102360655796319     
  8.457465197314176E-002  6.678864814996534E-002  0.252241771322666     
  0.234455767499489       0.216669763676312       0.198883759853136     
  0.181097756029959       0.163311752206782       0.145525748383606     
  0.127739744560429       0.109953740737252       9.216773691407563E-002
  7.438173309089893E-002  0.261797375478397       0.244011371655221     
  0.226225367832044       0.208439364008867       0.190653360185691     
  0.172867356362514       0.155081352539337       0.137295348716161     
  0.119509344892984       0.101723341069807       8.393733724663048E-002
  0.273164801263150       0.255378797439974       0.237592793616797     
  0.219806789793621       0.202020785970443       0.184234782147267     
  0.166448778324090       0.148662774500914       0.130876770677737     
  0.113090766854560       9.530476303138355E-002  0.286164777581728     
  0.268378773758551       0.250592769935374       0.232806766112198     
  0.215020762289021       0.197234758465845       0.179448754642668     
  0.161662750819491       0.143876746996314       0.126090743173138     
  0.108304739349961       0.300592287041776       0.282806283218599     
  0.265020279395423       0.247234275572247       0.229448271749070     
  0.211662267925893       0.193876264102716       0.176090260279540     
  0.158304256456363       0.140518252633186       0.122732248810010     
  0.316219799200534       0.298433795377358       0.280647791554182     
  0.262861787731004       0.245075783907828       0.227289780084651     
  0.209503776261474       0.191717772438298       0.173931768615121     
  0.156145764791944       0.138359760968768       0.332800858855836     
  0.315014855032659       0.297228851209483       0.279442847386306     
  0.261656843563129       0.243870839739953       0.226084835916776     
  0.208298832093599       0.190512828270422       0.172726824447246     
  0.154940820624069       0.350073972791870       0.332287968968694     
  0.314501965145518       0.296715961322340       0.278929957499164     
  0.261143953675987       0.243357949852811       0.225571946029634     
  0.207785942206457       0.189999938383281       0.172213934560104     
  0.367766733683411       0.349980729860233       0.332194726037056     
  0.314408722213880       0.296622718390703       0.278836714567527     
  0.261050710744349       0.243264706921173       0.225478703097997     
  0.207692699274820       0.189906695451643       0.385600116122052     
  0.367814112298874       0.350028108475698       0.332242104652521     
  0.314456100829345       0.296670097006167       0.278884093182991     
  0.261098089359815       0.243312085536638       0.225526081713461     
  0.207740077890284       0.403292877013591       0.385506873190414     
  0.367720869367238       0.349934865544061       0.332148861720883     
  0.314362857897708       0.296576854074530       0.278790850251353     
  0.261004846428176       0.243218842605000       0.225432838781824     
  0.420565990949626       0.402779987126448       0.384993983303272     
  0.367207979480096       0.349421975656919       0.331635971833742     
  0.313849968010565       0.296063964187389       0.278277960364212     
  0.260491956541035       0.242705952717859       0.437147050604927     
  0.419361046781750       0.401575042958573       0.383789039135397     
  0.366003035312220       0.348217031489043       0.330431027665866     
  0.312645023842690       0.294859020019513       0.277073016196337     
  0.259287012373160       0.452774562763685       0.434988558940508     
  0.417202555117331       0.399416551294155       0.381630547470978     
  0.363844543647802       0.346058539824625       0.328272536001448     
  0.310486532178271       0.292700528355094       0.274914524531918     
  0.467202072223733       0.449416068400556       0.431630064577379     
  0.413844060754204       0.396058056931027       0.378272053107850     
  0.360486049284673       0.342700045461497       0.324914041638320     
  0.307128037815143       0.289342033991967       0.480202048542311     
  0.462416044719135       0.444630040895957       0.426844037072781     
  0.409058033249605       0.391272029426426       0.373486025603251     
  0.355700021780074       0.337914017956897       0.320128014133720     
  0.302342010310544       0.491569474327063       0.473783470503887     
  0.455997466680710       0.438211462857534       0.420425459034358     
  0.402639455211180       0.384853451388003       0.367067447564826     
  0.349281443741650       0.331495439918473       0.313709436095297     
  0.501125078482796       0.483339074659620       0.465553070836441     
  0.447767067013265       0.429981063190090       0.412195059366913     
  0.394409055543735       0.376623051720559       0.358837047897383     
  0.341051044074205       0.323265040251028       0.508718163423729     
  0.490932159600553       0.473146155777375       0.455360151954199     
  0.437574148131023       0.419788144307846       0.402002140484669     
  0.384216136661492       0.366430132838315       0.348644129015140     
  0.330858125191962       0.514228981664458       0.496442977841281     
  0.478656974018103       0.460870970194927       0.443084966371751     
  0.425298962548573       0.407512958725397       0.389726954902219     
  0.371940951079044       0.354154947255866       0.336368943432689     
  0.517570624309319       0.499784620486143       0.481998616662968     
  0.464212612839789       0.446426609016612       0.428640605193435     
  0.410854601370258       0.393068597547082       0.375282593723906     
  0.357496589900729       0.339710586077553       0.518690391657606     
  0.500904387834429       0.483118384011254       0.465332380188076     
  0.447546376364900       0.429760372541724       0.411974368718547     
  0.394188364895369       0.376402361072194       0.358616357249016     
  0.340830353425840     
 -0.126306171919249      -0.131862545126928      -0.137418918334607     
 -0.142975291542286      -0.148531664749965      -0.154088037957644     
 -0.159644411165323      -0.165200784373002      -0.170757157580681     
 -0.176313530788360      -0.181869903996039      -0.129890557919488     
 -0.135446931127167      -0.141003304334846      -0.146559677542525     
 -0.152116050750204      -0.157672423957883      -0.163228797165562     
 -0.168785170373241      -0.174341543580920      -0.179897916788599     
 -0.185454289996278      -0.140587188011771      -0.146143561219450     
 -0.151699934427129      -0.157256307634808      -0.162812680842487     
 -0.168369054050166      -0.173925427257845      -0.179481800465524     
 -0.185038173673203      -0.190594546880882      -0.196150920088561     
 -0.158227369949687      -0.163783743157366      -0.169340116365045     
 -0.174896489572724      -0.180452862780403      -0.186009235988082     
 -0.191565609195761      -0.197121982403440      -0.202678355611119     
 -0.208234728818798      -0.213791102026476      -0.182532907526340     
 -0.188089280734019      -0.193645653941698      -0.199202027149377     
 -0.204758400357056      -0.210314773564735      -0.215871146772414     
 -0.221427519980093      -0.226983893187772      -0.232540266395451     
 -0.238096639603130      -0.213120487894722      -0.218676861102402     
 -0.224233234310080      -0.229789607517760      -0.235345980725439     
 -0.240902353933118      -0.246458727140796      -0.252015100348476     
 -0.257571473556155      -0.263127846763833      -0.268684219971513     
 -0.249507726640290      -0.255064099847969      -0.260620473055648     
 -0.266176846263327      -0.271733219471006      -0.277289592678686     
 -0.282845965886364      -0.288402339094043      -0.293958712301722     
 -0.299515085509401      -0.305071458717080      -0.291120775271343     
 -0.296677148479022      -0.302233521686701      -0.307789894894380     
 -0.313346268102059      -0.318902641309738      -0.324459014517417     
 -0.330015387725096      -0.335571760932775      -0.341128134140454     
 -0.346684507348133      -0.337303371152538      -0.342859744360218     
 -0.348416117567896      -0.353972490775575      -0.359528863983254     
 -0.365085237190933      -0.370641610398612      -0.376197983606291     
 -0.381754356813971      -0.387310730021649      -0.392867103229328     
 -0.387327187158684      -0.392883560366363      -0.398439933574043     
 -0.403996306781721      -0.409552679989401      -0.415109053197079     
 -0.420665426404758      -0.426221799612438      -0.431778172820116     
 -0.437334546027795      -0.442890919235474      -0.440403317828585     
 -0.445959691036264      -0.451516064243943      -0.457072437451622     
 -0.462628810659301      -0.468185183866981      -0.473741557074658     
 -0.479297930282338      -0.484854303490017      -0.490410676697696     
 -0.495967049905375      -0.495694720875432      -0.501251094083111     
 -0.506807467290791      -0.512363840498469      -0.517920213706148     
 -0.523476586913828      -0.529032960121507      -0.534589333329185     
 -0.540145706536864      -0.545702079744543      -0.551258452952222     
 -0.552329417843695      -0.557885791051374      -0.563442164259052     
 -0.568998537466732      -0.574554910674410      -0.580111283882089     
 -0.585667657089769      -0.591224030297448      -0.596780403505126     
 -0.602336776712805      -0.607893149920485      -0.609414245730254     
 -0.614970618937933      -0.620526992145611      -0.626083365353291     
 -0.631639738560970      -0.637196111768649      -0.642752484976328     
 -0.648308858184006      -0.653865231391687      -0.659421604599365     
 -0.664977977807044      -0.666048942698516      -0.671605315906194     
 -0.677161689113875      -0.682718062321552      -0.688274435529231     
 -0.693830808736911      -0.699387181944589      -0.704943555152269     
 -0.710499928359947      -0.716056301567626      -0.721612674775307     
 -0.721340345745364      -0.726896718953042      -0.732453092160721     
 -0.738009465368400      -0.743565838576080      -0.749122211783758     
 -0.754678584991436      -0.760234958199116      -0.765791331406795     
 -0.771347704614473      -0.776904077822154      -0.774416476415264     
 -0.779972849622943      -0.785529222830622      -0.791085596038302     
 -0.796641969245980      -0.802198342453659      -0.807754715661338     
 -0.813311088869017      -0.818867462076696      -0.824423835284376     
 -0.829980208492055      -0.824440292421411      -0.829996665629089     
 -0.835553038836768      -0.841109412044446      -0.846665785252125     
 -0.852222158459806      -0.857778531667484      -0.863334904875163     
 -0.868891278082842      -0.874447651290521      -0.880004024498199     
 -0.870622888302605      -0.876179261510283      -0.881735634717963     
 -0.887292007925642      -0.892848381133321      -0.898404754341000     
 -0.903961127548678      -0.909517500756359      -0.915073873964038     
 -0.920630247171716      -0.926186620379395      -0.912235936933657     
 -0.917792310141338      -0.923348683349014      -0.928905056556696     
 -0.934461429764373      -0.940017802972053      -0.945574176179730     
 -0.951130549387412      -0.956686922595090      -0.962243295802770     
 -0.967799669010447      -0.948623175679226      -0.954179548886906     
 -0.959735922094582      -0.965292295302262      -0.970848668509942     
 -0.976405041717619      -0.981961414925301      -0.987517788132978     
 -0.993074161340658      -0.998630534548335       -1.00418690775601     
 -0.979210756047607      -0.984767129255287      -0.990323502462966     
 -0.995879875670645       -1.00143624887832       -1.00699262208600     
  -1.01254899529368       -1.01810536850136       -1.02366174170904     
  -1.02921811491672       -1.03477448812440       -1.00351629362426     
  -1.00907266683194       -1.01462904003962       -1.02018541324730     
  -1.02574178645498       -1.03129815966266       -1.03685453287034     
  -1.04241090607802       -1.04796727928569       -1.05352365249337     
  -1.05908002570105       -1.02115647556218       -1.02671284876986     
  -1.03226922197753       -1.03782559518521       -1.04338196839289     
  -1.04893834160057       -1.05449471480825       -1.06005108801593     
  -1.06560746122361       -1.07116383443129       -1.07672020763897     
  -1.03185310565446       -1.03740947886214       -1.04296585206982     
  -1.04852222527750       -1.05407859848518       -1.05963497169286     
  -1.06519134490053       -1.07074771810821       -1.07630409131589     
  -1.08186046452357       -1.08741683773125       -1.03543749165470     
  -1.04099386486238       -1.04655023807006       -1.05210661127774     
  -1.05766298448541       -1.06321935769309       -1.06877573090077     
  -1.07433210410845       -1.07988847731613       -1.08544485052381     
  -1.09100122373149     
  3.960717710078315E-002  3.564645939070483E-002  3.168574168062652E-002
  2.772502397054821E-002  2.376430626046989E-002  1.980358855039158E-002
  1.584287084031326E-002  1.188215313023495E-002  7.921435420156629E-003
  3.960717710078312E-003  0.000000000000000E+000  3.960717710078315E-002
  3.564645939070483E-002  3.168574168062652E-002  2.772502397054821E-002
  2.376430626046989E-002  1.980358855039158E-002  1.584287084031326E-002
  1.188215313023495E-002  7.921435420156629E-003  3.960717710078312E-003
  0.000000000000000E+000  3.960717710078315E-002  3.564645939070483E-002
  3.168574168062652E-002  2.772502397054821E-002  2.376430626046989E-002
  1.980358855039158E-002  1.584287084031326E-002  1.188215313023495E-002
  7.921435420156629E-003  3.960717710078312E-003  0.000000000000000E+000
  3.960717710078315E-002  3.564645939070483E-002  3.168574168062652E-002
  2.772502397054821E-002  2.376430626046989E-002  1.980358855039158E-002
  1.584287084031326E-002  1.188215313023495E-002  7.921435420156629E-003
  3.960717710078312E-003  0.000000000000000E+000  3.960717710078315E-002
  3.564645939070483E-002  3.168574168062652E-002  2.772502397054821E-002
  2.376430626046989E-002  1.980358855039158E-002  1.584287084031326E-002
  1.188215313023495E-002  7.921435420156629E-003  3.960717710078312E-003
  0.000000000000000E+000  3.960717710078315E-002  3.564645939070483E-002
  3.168574168062652E-002  2.772502397054821E-002  2.376430626046989E-002
  1.980358855039158E-002  1.584287084031326E-002  1.188215313023495E-002
  7.921435420156629E-003  3.960717710078312E-003  0.000000000000000E+000
  3.960717710078315E-002  3.564645939070483E-002  3.168574168062652E-002
  2.772502397054821E-002  2.376430626046989E-002  1.980358855039158E-002
  1.584287084031326E-002  1.188215313023495E-002  7.921435420156629E-003
  3.960717710078312E-003  0.000000000000000E+000  3.960717710078315E-002
  3.564645939070483E-002  3.168574168062652E-002  2.772502397054821E-002
  2.376430626046989E-002  1.980358855039158E-002  1.584287084031326E-002
  1.188215313023495E-002  7.921435420156629E-003  3.960717710078312E-003
  0.000000000000000E+000  3.960717710078315E-002  3.564645939070483E-002
  3.168574168062652E-002  2.772502397054821E-002  2.376430626046989E-002
  1.980358855039158E-002  1.584287084031326E-002  1.188215313023495E-002
  7.921435420156629E-003  3.960717710078312E-003  0.000000000000000E+000
  3.960717710078315E-002  3.564645939070483E-002  3.168574168062652E-002
  2.772502397054821E-002  2.376430626046989E-002  1.980358855039158E-002
  1.584287084031326E-002  1.188215313023495E-002  7.921435420156629E-003
  3.960717710078312E-003  0.000000000000000E+000  3.960717710078315E-002
  3.564645939070483E-002  3.168574168062652E-002  2.772502397054821E-002
  2.376430626046989E-002  1.980358855039158E-002  1.584287084031326E-002
  1.188215313023495E-002  7.921435420156629E-003  3.960717710078312E-003
  0.000000000000000E+000  3.960717710078315E-002  3.564645939070483E-002
  3.168574168062652E-002  2.772502397054821E-002  2.376430626046989E-002
  1.980358855039158E-002  1.584287084031326E-002  1.188215313023495E-002
  7.921435420156629E-003  3.960717710078312E-003  0.000000000000000E+000
  3.960717710078315E-002  3.564645939070483E-002  3.168574168062652E-002
  2.772502397054821E-002  2.376430626046989E-002  1.980358855039158E-002
  1.584287084031326E-002  1.188215313023495E-002  7.921435420156629E-003
  3.960717710078312E-003  0.000000000000000E+000  3.960717710078315E-002
  3.564645939070483E-002  3.168574168062652E-002  2.772502397054821E-002
  2.376430626046989E-002  1.980358855039158E-002  1.584287084031326E-002
  1.188215313023495E-002  7.921435420156629E-003  3.960717710078312E-003
  0.000000000000000E+000  3.960717710078315E-002  3.564645939070483E-002
  3.168574168062652E-002  2.772502397054821E-002  2.376430626046989E-002
  1.980358855039158E-002  1.584287084031326E-002  1.188215313023495E-002
  7.921435420156629E-003  3.960717710078312E-003  0.000000000000000E+000
  3.960717710078315E-002  3.564645939070483E-002  3.168574168062652E-002
  2.772502397054821E-002  2.376430626046989E-002  1.980358855039158E-002
  1.584287084031326E-002  1.188215313023495E-002  7.921435420156629E-003
  3.960717710078312E-003  0.000000000000000E+000  3.960717710078315E-002
  3.564645939070483E-002  3.168574168062652E-002  2.772502397054821E-002
  2.376430626046989E-002  1.980358855039158E-002  1.584287084031326E-002
  1.188215313023495E-002  7.921435420156629E-003  3.960717710078312E-003
  0.000000000000000E+000  3.960717710078315E-002  3.564645939070483E-002
  3.168574168062652E-002  2.772502397054821E-002  2.376430626046989E-002
  1.980358855039158E-002  1.584287084031326E-002  1.188215313023495E-002
  7.921435420156629E-003  3.960717710078312E-003  0.000000000000000E+000
  3.960717710078315E-002  3.564645939070483E-002  3.168574168062652E-002
  2.772502397054821E-002  2.376430626046989E-002  1.980358855039158E-002
  1.584287084031326E-002  1.188215313023495E-002  7.921435420156629E-003
  3.960717710078312E-003  0.000000000000000E+000  3.960717710078315E-002
  3.564645939070483E-002  3.168574168062652E-002  2.772502397054821E-002
  2.376430626046989E-002  1.980358855039158E-002  1.584287084031326E-002
  1.188215313023495E-002  7.921435420156629E-003  3.960717710078312E-003
  0.000000000000000E+000  3.960717710078315E-002  3.564645939070483E-002
  3.168574168062652E-002  2.772502397054821E-002  2.376430626046989E-002
  1.980358855039158E-002  1.584287084031326E-002  1.188215313023495E-002
  7.921435420156629E-003  3.960717710078312E-003  0.000000000000000E+000
  3.960717710078315E-002  3.564645939070483E-002  3.168574168062652E-002
  2.772502397054821E-002  2.376430626046989E-002  1.980358855039158E-002
  1.584287084031326E-002  1.188215313023495E-002  7.921435420156629E-003
  3.960717710078312E-003  0.000000000000000E+000  3.960717710078315E-002
  3.564645939070483E-002  3.168574168062652E-002  2.772502397054821E-002
  2.376430626046989E-002  1.980358855039158E-002  1.584287084031326E-002
  1.188215313023495E-002  7.921435420156629E-003  3.960717710078312E-003
  0.000000000000000E+000  3.960717710078315E-002  3.564645939070483E-002
  3.168574168062652E-002  2.772502397054821E-002  2.376430626046989E-002
  1.980358855039158E-002  1.584287084031326E-002  1.188215313023495E-002
  7.921435420156629E-003  3.960717710078312E-003  0.000000000000000E+000
  3.960717710078315E-002  3.564645939070483E-002  3.168574168062652E-002
  2.772502397054821E-002  2.376430626046989E-002  1.980358855039158E-002
  1.584287084031326E-002  1.188215313023495E-002  7.921435420156629E-003
  3.960717710078312E-003  0.000000000000000E+000  3.960717710078315E-002
  3.564645939070483E-002  3.168574168062652E-002  2.772502397054821E-002
  2.376430626046989E-002  1.980358855039158E-002  1.584287084031326E-002
  1.188215313023495E-002  7.921435420156629E-003  3.960717710078312E-003
  0.000000000000000E+000
  0.139390377653695       0.228929994042818       0.314648879197588     
  0.395974602744202       0.466510082680668       0.519764531110862     
  0.551598887755036       0.562170105110046       0.553447707277126     
  0.529160521190267       0.234864018310032       0.386788313181452     
  0.530140851143406       0.666186444014398       0.785038101999231     
  0.875440495402241       0.930479237521579       0.949929819951101     
  0.936966125286050       0.899529812098115       0.321336357675774     
  0.529914572358436       0.721424479187875       0.901852963073389     
   1.06148232316511        1.18554590444714        1.26445609113654     
   1.29642507490859        1.28381424466701        1.23598630540845     
  0.392448587438912       0.639972034954957       0.860373401661515     
   1.06352423384603        1.24262742343557        1.38492889566884     
   1.48091841031658        1.52560004524637        1.51576987207304     
   1.45968348128164       0.457315175020963       0.726939266659467     
  0.955210008834390        1.15719098434272        1.33006065805232     
   1.46816223434700        1.56557131090973        1.61589301066028     
   1.61132358959529        1.55688449697336       0.525716630556328     
  0.811190021775100        1.03587686640901        1.22342188001462     
   1.37826086615645        1.50033199251933        1.58775679377083     
   1.63599943760051        1.63891036178948        1.59596333685823     
  0.601078829255938       0.905861168481353        1.13088917615292     
   1.30884769524739        1.45013180344503        1.55882807220750     
   1.63605776949336        1.68043749497207        1.68929715356836     
   1.66146537596902       0.684038593487179        1.01631830926275     
   1.25259510364979        1.43414729971006        1.57585108871046     
   1.68450736039608        1.76311690178425        1.81226324245110     
   1.83079011144310        1.81685827725477       0.786293843722060     
   1.16017448327872        1.42187728394884        1.62099641316168     
   1.77595864240656        1.89569396349726        1.98480603508893     
   2.04520747614683        2.07654834776976        2.07639906164075     
  0.915058127101599        1.34576582446404        1.64551423347366     
   1.87327746309885        2.05112533215419        2.18991642043096     
   2.29552124639554        2.37079371482254        2.41598136317436     
   2.42834297776627        1.06628687546752        1.56591904984300     
   1.91308331836779        2.17728695750588        2.38457548879909     
   2.54775661632226        2.67382634905482        2.76635124214410     
   2.82596176261767        2.84961772528918        1.23366463884615     
   1.81040532803279        2.21093687571995        2.51622187096348     
   2.75666095137193        2.94719436980223        3.09598635689796     
   3.20725625651196        3.28190468174798        3.31649812851036     
   1.41163778644967        2.07042548119049        2.52762896582981     
   2.87634040447276        3.15161606426381        3.37072406999114     
   3.54312761787393        3.67378159185267        3.76391749175784     
   3.80978200349221        1.59726764129419        2.34111889558247     
   2.85659702521851        3.24949711668402        3.55979237944867     
   3.80726811937733        4.00285807592101        4.15241595008681     
   4.25766828545826        4.31472875843004        1.79166684097373     
   2.62331461971319        3.19788712375635        3.63467965904563     
   3.97896631449577        4.25331414475533        4.47034757434188     
   4.63702292665867        4.75576711155201        4.82282104980168     
   2.00218810879082        2.92608798811209        3.56067441999841     
   4.04041097855997        4.41665315901551        4.71522028890298     
   4.95075024769672        5.13154980463607        5.26096674176514     
   5.33566018604386        2.23983739396399        3.26281563048081     
   3.95852447265393        4.47968696591188        4.88511315284402     
   5.20459787985590        5.45518673072073        5.64676183194241     
   5.78374049328648        5.86337484172820        2.49333101307525     
   3.61629167218030        4.37011814839752        4.92834079499939     
   5.35831806514654        5.69434847445854        5.95614098079610     
   6.15527029060857        6.29728055986597        6.38007450329392     
   2.70413962778234        3.90354476322106        4.69723348019789     
   5.27752796673109        5.71959568360719        6.06185635632568     
   6.32648104444533        6.52664650539715        6.66906043938382     
   6.75264445433032        2.79895469121131        4.01882332969168     
   4.81239538133898        5.38362355526749        5.81292236691782     
   6.14153525900683        6.39320892553923        6.58204108387577     
   6.71550162720383        6.79391545938817        2.74438016050796     
   3.90988316480292        4.65016715098240        5.17253870659893     
   5.55909852782627        5.85159799676827        6.07367624722370     
   6.23910898066483        6.35518451068346        6.42300619775670     
   2.54095133991428        3.57207265978997        4.20470362362578     
   4.64134522309974        4.96030113229683        5.19994692110121     
   5.38137864848550        5.51677280512747        5.61275326526272     
   5.67048287082649        2.18883698745319        3.00711988677741     
   3.49009942013221        3.81880180034945        4.05793572489044     
   4.23768848518737        4.37441374966653        4.47799148248023     
   4.55545742290610        4.61282074111531        1.67134368535867     
   2.22322259487206        2.54457875804947        2.76384575478460     
   2.92403486130149        3.04495773046715        3.13738121838314     
   3.20787816716248        3.26129423950579        3.30442408611929     
   1.01561923157279        1.32460979994363        1.50621930802398     
   1.63082985055559        1.72218519028149        1.79129798554305     
   1.84414363048914        1.88421952157647        1.91349431667608     
   1.93148957676124     
  0.000000000000000E+000  0.000000000000000E+000  0.000000000000000E+000
  0.000000000000000E+000  0.000000000000000E+000  0.000000000000000E+000
  0.000000000000000E+000  0.000000000000000E+000  0.000000000000000E+000
  0.000000000000000E+000  0.000000000000000E+000  0.000000000000000E+000
  0.000000000000000E+000  0.000000000000000E+000  0.000000000000000E+000
  0.000000000000000E+000  0.000000000000000E+000  0.000000000000000E+000
  0.000000000000000E+000  0.000000000000000E+000  0.000000000000000E+000
  0.000000000000000E+000  0.000000000000000E+000  0.000000000000000E+000
  0.000000000000000E+000  0.000000000000000E+000  0.000000000000000E+000
  0.000000000000000E+000  0.000000000000000E+000  0.000000000000000E+000
  0.000000000000000E+000  0.000000000000000E+000  0.000000000000000E+000
  0.000000000000000E+000  0.000000000000000E+000  0.000000000000000E+000
  0.000000000000000E+000  0.000000000000000E+000  0.000000000000000E+000
  0.000000000000000E+000  0.000000000000000E+000  0.000000000000000E+000
  0.000000000000000E+000  0.000000000000000E+000  0.000000000000000E+000
  0.000000000000000E+000  0.000000000000000E+000  0.000000000000000E+000
  0.000000000000000E+000  0.000000000000000E+000  0.000000000000000E+000
  0.000000000000000E+000  0.000000000000000E+000  0.000000000000000E+000
  0.000000000000000E+000  0.000000000000000E+000  0.000000000000000E+000
  0.000000000000000E+000  0.000000000000000E+000  0.000000000000000E+000
  0.000000000000000E+000  0.000000000000000E+000  0.000000000000000E+000
  0.000000000000000E+000  0.000000000000000E+000  0.000000000000000E+000
  0.000000000000000E+000  0.000000000000000E+000  0.000000000000000E+000
  0.000000000000000E+000  0.000000000000000E+000  0.000000000000000E+000
  0.000000000000000E+000  0.000000000000000E+000  0.000000000000000E+000
  0.000000000000000E+000  0.000000000000000E+000  0.000000000000000E+000
  0.000000000000000E+000  0.000000000000000E+000  0.000000000000000E+000
  0.000000000000000E+000  0.000000000000000E+000  0.000000000000000E+000
  0.000000000000000E+000  0.000000000000000E+000  0.000000000000000E+000
  0.000000000000000E+000  0.000000000000000E+000  0.000000000000000E+000
  0.000000000000000E+000  0.000000000000000E+000  0.000000000000000E+000
  0.000000000000000E+000  0.000000000000000E+000  0.000000000000000E+000
  0.000000000000000E+000  0.000000000000000E+000  0.000000000000000E+000
  0.000000000000000E+000  0.000000000000000E+000  0.000000000000000E+000
  0.000000000000000E+000  0.000000000000000E+000  0.000000000000000E+000
  0.000000000000000E+000  0.000000000000000E+000  0.000000000000000E+000
  0.000000000000000E+000  0.000000000000000E+000  0.000000000000000E+000
  0.000000000000000E+000  0.000000000000000E+000  0.000000000000000E+000
  0.000000000000000E+000  0.000000000000000E+000  0.000000000000000E+000