 Title = "Wing and Wake"
 VARIABLES = "X" "Y" "Z" "GAM" "skew"
 Zone I=   11 J=   26 K=1  T="Blade"
 DATAPACKING=BLOCK
 VARLOCATION=([4]=CELLCENTERED,[5]=CELLCENTERED)
 -0.249165483539530      -0.232257759059557      -0.215350034579583     
 -0.198442310099610      -0.181534585619636      -0.164626861139663     
 -0.147719136659689      -0.130811412179716      -0.113903687699742     
 -9.699596321976857E-002 -8.008823873979527E-002 -0.250743903912639     
 -0.233836179432666      -0.216928454952692      -0.200020730472719     
 -0.183113005992745      -0.166205281512772      -0.149297557032798     
 -0.132389832552825      -0.115482108072851      -9.857438359287779E-002
 -8.166665911290402E-002 -0.255454272399779      -0.238546547919806     
 -0.221638823439831      -0.204731098959858      -0.187823374479885     
 -0.170915649999911      -0.154007925519938      -0.137100201039964     
 -0.120192476559991      -0.103284752080017      -8.637702760004368E-002
 -0.263222303676070      -0.246314579196096      -0.229406854716122     
 -0.212499130236149      -0.195591405756176      -0.178683681276202     
 -0.161775956796229      -0.144868232316255      -0.127960507836281     
 -0.111052783356308      -9.414505887633447E-002 -0.273925491247887     
 -0.257017766767914      -0.240110042287940      -0.223202317807967     
 -0.206294593327993      -0.189386868848020      -0.172479144368046     
 -0.155571419888073      -0.138663695408099      -0.121755970928126     
 -0.104848246448152      -0.287395039453449      -0.270487314973477     
 -0.253579590493502      -0.236671866013529      -0.219764141533556     
 -0.202856417053582      -0.185948692573609      -0.169040968093635     
 -0.152133243613662      -0.135225519133688      -0.118317794653714     
 -0.303418525471237      -0.286510800991264      -0.269603076511291     
 -0.252695352031317      -0.235787627551343      -0.218879903071370     
 -0.201972178591397      -0.185064454111423      -0.168156729631450     
 -0.151249005151476      -0.134341280671502      -0.321743249354784     
 -0.304835524874810      -0.287927800394837      -0.271020075914864     
 -0.254112351434890      -0.237204626954916      -0.220296902474943     
 -0.203389177994970      -0.186481453514995      -0.169573729035022     
 -0.152666004555049      -0.342080219261785      -0.325172494781811     
 -0.308264770301838      -0.291357045821865      -0.274449321341892     
 -0.257541596861917      -0.240633872381943      -0.223726147901970     
 -0.206818423421997      -0.189910698942023      -0.173002974462050     
 -0.364108709028091      -0.347200984548118      -0.330293260068144     
 -0.313385535588170      -0.296477811108197      -0.279570086628224     
 -0.262662362148250      -0.245754637668277      -0.228846913188303     
 -0.211939188708329      -0.195031464228356      -0.387481316210906     
 -0.370573591730932      -0.353665867250959      -0.336758142770986     
 -0.319850418291012      -0.302942693811039      -0.286034969331064     
 -0.269127244851091      -0.252219520371118      -0.235311795891144     
 -0.218404071411170      -0.411829440832836      -0.394921716352863     
 -0.378013991872889      -0.361106267392915      -0.344198542912942     
 -0.327290818432969      -0.310383093952996      -0.293475369473021     
 -0.276567644993048      -0.259659920513075      -0.242752196033101     
 -0.436769098423731      -0.419861373943758      -0.402953649463783     
 -0.386045924983811      -0.369138200503837      -0.352230476023864     
 -0.335322751543890      -0.318415027063916      -0.301507302583943     
 -0.284599578103970      -0.267691853623996      -0.461906975685153     
 -0.444999251205178      -0.428091526725205      -0.411183802245231     
 -0.394276077765258      -0.377368353285285      -0.360460628805311     
 -0.343552904325338      -0.326645179845365      -0.309737455365390     
 -0.292829730885417      -0.486846633276046      -0.469938908796073     
 -0.453031184316100      -0.436123459836126      -0.419215735356152     
 -0.402308010876181      -0.385400286396206      -0.368492561916231     
 -0.351584837436258      -0.334677112956285      -0.317769388476312     
 -0.511194757897978      -0.494287033418004      -0.477379308938031     
 -0.460471584458058      -0.443563859978084      -0.426656135498111     
 -0.409748411018137      -0.392840686538164      -0.375932962058190     
 -0.359025237578216      -0.342117513098243      -0.534567365080792     
 -0.517659640600819      -0.500751916120844      -0.483844191640872     
 -0.466936467160898      -0.450028742680925      -0.433121018200951     
 -0.416213293720978      -0.399305569241004      -0.382397844761030     
 -0.365490120281058      -0.556595854847099      -0.539688130367124     
 -0.522780405887151      -0.505872681407178      -0.488964956927204     
 -0.472057232447231      -0.455149507967257      -0.438241783487283     
 -0.421334059007310      -0.404426334527336      -0.387518610047363     
 -0.576932824754098      -0.560025100274125      -0.543117375794152     
 -0.526209651314179      -0.509301926834206      -0.492394202354232     
 -0.475486477874258      -0.458578753394285      -0.441671028914312     
 -0.424763304434337      -0.407855579954364      -0.595257548637646     
 -0.578349824157671      -0.561442099677698      -0.544534375197724     
 -0.527626650717753      -0.510718926237776      -0.493811201757805     
 -0.476903477277832      -0.459995752797857      -0.443088028317884     
 -0.426180303837911      -0.611281034655433      -0.594373310175461     
 -0.577465585695485      -0.560557861215512      -0.543650136735539     
 -0.526742412255566      -0.509834687775592      -0.492926963295618     
 -0.476019238815646      -0.459111514335671      -0.442203789855698     
 -0.624750582860995      -0.607842858381024      -0.590935133901047     
 -0.574027409421075      -0.557119684941103      -0.540211960461129     
 -0.523304235981154      -0.506396511501182      -0.489488787021209     
 -0.472581062541233      -0.455673338061261      -0.635453770432813     
 -0.618546045952840      -0.601638321472866      -0.584730596992893     
 -0.567822872512920      -0.550915148032946      -0.534007423552973     
 -0.517099699072999      -0.500191974593026      -0.483284250113053     
 -0.466376525633078      -0.643221801709105      -0.626314077229132     
 -0.609406352749157      -0.592498628269184      -0.575590903789211     
 -0.558683179309236      -0.541775454829264      -0.524867730349289     
 -0.507960005869316      -0.491052281389341      -0.474144556909368     
 -0.647932170196243      -0.631024445716270      -0.614116721236299     
 -0.597208996756323      -0.580301272276349      -0.563393547796375     
 -0.546485823316401      -0.529578098836429      -0.512670374356456     
 -0.495762649876482      -0.478854925396509      -0.649510590569353     
 -0.632602866089378      -0.615695141609407      -0.598787417129432     
 -0.581879692649458      -0.564971968169485      -0.548064243689513     
 -0.531156519209537      -0.514248794729565      -0.497341070249591     
 -0.480433345769618     
  9.456664785339539E-002  0.102398893261347       0.110231138669298     
  0.118063384077249       0.125895629485200       0.133727874893151     
  0.141560120301102       0.149392365709053       0.157224611117004     
  0.165056856524956       0.172889101932907       9.797403556816364E-002
  0.105806280976115       0.113638526384066       0.121470771792017     
  0.129303017199968       0.137135262607919       0.144967508015870     
  0.152799753423821       0.160631998831773       0.168464244239724     
  0.176296489647675       0.108142462172731       0.115974707580682     
  0.123806952988633       0.131639198396584       0.139471443804535     
  0.147303689212486       0.155135934620437       0.162968180028388     
  0.170800425436339       0.178632670844290       0.186464916252241     
  0.124911565505219       0.132743810913170       0.140576056321122     
  0.148408301729073       0.156240547137024       0.164072792544975     
  0.171905037952926       0.179737283360877       0.187569528768828     
  0.195401774176779       0.203234019584730       0.148016886788699     
  0.155849132196649       0.163681377604601       0.171513623012552     
  0.179345868420503       0.187178113828454       0.195010359236406     
  0.202842604644357       0.210674850052308       0.218507095460259     
  0.226339340868210       0.177094041304079       0.184926286712031     
  0.192758532119981       0.200590777527933       0.208423022935884     
  0.216255268343836       0.224087513751786       0.231919759159737     
  0.239752004567689       0.247584249975639       0.255416495383591     
  0.211684464954803       0.219516710362754       0.227348955770706     
  0.235181201178657       0.243013446586607       0.250845691994560     
  0.258677937402510       0.266510182810461       0.274342428218412     
  0.282174673626362       0.290006919034314       0.251242646096581     
  0.259074891504532       0.266907136912484       0.274739382320435     
  0.282571627728385       0.290403873136336       0.298236118544288     
  0.306068363952239       0.313900609360190       0.321732854768141     
  0.329565100176093       0.295144728581895       0.302976973989847     
  0.310809219397797       0.318641464805748       0.326473710213700     
  0.334305955621650       0.342138201029601       0.349970446437553     
  0.357802691845504       0.365634937253455       0.373467182661406     
  0.342698350344118       0.350530595752069       0.358362841160021     
  0.366195086567972       0.374027331975923       0.381859577383873     
  0.389691822791825       0.397524068199777       0.405356313607727     
  0.413188559015678       0.421020804423629       0.393153562360905     
  0.400985807768857       0.408818053176807       0.416650298584758     
  0.424482543992709       0.432314789400661       0.440147034808610     
  0.447979280216563       0.455811525624513       0.463643771032465     
  0.471476016440416       0.445714655798267       0.453546901206217     
  0.461379146614170       0.469211392022119       0.477043637430071     
  0.484875882838022       0.492708128245974       0.500540373653924     
  0.508372619061875       0.516204864469826       0.524037109877777     
  0.499552710814222       0.507384956222173       0.515217201630123     
  0.523049447038075       0.530881692446026       0.538713937853976     
  0.546546183261928       0.554378428669879       0.562210674077830     
  0.570042919485781       0.577875164893732       0.553818669119873     
  0.561650914527823       0.569483159935773       0.577315405343724     
  0.585147650751676       0.592979896159628       0.600812141567579     
  0.608644386975528       0.616476632383483       0.624308877791432     
  0.632141123199383       0.607656724135826       0.615488969543777     
  0.623321214951729       0.631153460359679       0.638985705767631     
  0.646817951175583       0.654650196583533       0.662482441991485     
  0.670314687399434       0.678146932807385       0.685979178215339     
  0.660217817573188       0.668050062981139       0.675882308389091     
  0.683714553797041       0.691546799204993       0.699379044612944     
  0.707211290020894       0.715043535428846       0.722875780836797     
  0.730708026244747       0.738540271652700       0.710673029589975     
  0.718505274997925       0.726337520405876       0.734169765813828     
  0.742002011221779       0.749834256629730       0.757666502037681     
  0.765498747445634       0.773330992853584       0.781163238261536     
  0.788995483669486       0.758226651352198       0.766058896760149     
  0.773891142168101       0.781723387576052       0.789555632984002     
  0.797387878391955       0.805220123799905       0.813052369207856     
  0.820884614615807       0.828716860023757       0.836549105431708     
  0.802128733837511       0.809960979245462       0.817793224653414     
  0.825625470061365       0.833457715469316       0.841289960877268     
  0.849122206285217       0.856954451693169       0.864786697101122     
  0.872618942509073       0.880451187917022       0.841686914979290     
  0.849519160387241       0.857351405795191       0.865183651203144     
  0.873015896611094       0.880848142019045       0.888680387426996     
  0.896512632834949       0.904344878242899       0.912177123650850     
  0.920009369058800       0.876277338630014       0.884109584037966     
  0.891941829445914       0.899774074853864       0.907606320261817     
  0.915438565669769       0.923270811077721       0.931103056485671     
  0.938935301893622       0.946767547301574       0.954599792709523     
  0.905354493145393       0.913186738553345       0.921018983961297     
  0.928851229369247       0.936683474777198       0.944515720185151     
  0.952347965593101       0.960180211001052       0.968012456409003     
  0.975844701816955       0.983676947224908       0.928459814428874     
  0.936292059836824       0.944124305244775       0.951956550652727     
  0.959788796060679       0.967621041468629       0.975453286876581     
  0.983285532284534       0.991117777692483       0.998950023100434     
   1.00678226850838       0.945228917761362       0.953061163169313     
  0.960893408577264       0.968725653985215       0.976557899393168     
  0.984390144801119       0.992222390209070        1.00005463561702     
   1.00788688102497        1.01571912643292        1.02355137184087     
  0.955397344365928       0.963229589773879       0.971061835181831     
  0.978894080589781       0.986726325997733       0.994558571405686     
   1.00239081681364        1.01022306222159        1.01805530762954     
   1.02588755303749        1.03371979844544       0.958804732080696     
  0.966636977488649       0.974469222896599       0.982301468304551     
  0.990133713712502       0.997965959120453        1.00579820452841     
   1.01363044993635        1.02146269534431        1.02929494075226     
   1.03712718616021     
  3.960717710078315E-002  3.564645939070483E-002  3.168574168062652E-002
  2.772502397054821E-002  2.376430626046989E-002  1.980358855039158E-002
  1.584287084031326E-002  1.188215313023495E-002  7.921435420156629E-003
  3.960717710078312E-003  0.000000000000000E+000  3.960717710078315E-002
  3.564645939070483E-002  3.168574168062652E-002  2.772502397054821E-002
  2.376430626046989E-002  1.980358855039158E-002  1.584287084031326E-002
  1.188215313023495E-002  7.921435420156629E-003  3.960717710078312E-003
  0.000000000000000E+000  3.960717710078315E-002  3.564645939070483E-002
  3.168574168062652E-002  2.772502397054821E-002  2.376430626046989E-002
  1.980358855039158E-002  1.584287084031326E-002  1.188215313023495E-002
  7.921435420156629E-003  3.960717710078312E-003  0.000000000000000E+000
  3.960717710078315E-002  3.564645939070483E-002  3.168574168062652E-002
  2.772502397054821E-002  2.376430626046989E-002  1.980358855039158E-002
  1.584287084031326E-002  1.188215313023495E-002  7.921435420156629E-003
  3.960717710078312E-003  0.000000000000000E+000  3.960717710078315E-002
  3.564645939070483E-002  3.168574168062652E-002  2.772502397054821E-002
  2.376430626046989E-002  1.980358855039158E-002  1.584287084031326E-002
  1.188215313023495E-002  7.921435420156629E-003  3.960717710078312E-003
  0.000000000000000E+000  3.960717710078315E-002  3.564645939070483E-002
  3.168574168062652E-002  2.772502397054821E-002  2.376430626046989E-002
  1.980358855039158E-002  1.584287084031326E-002  1.188215313023495E-002
  7.921435420156629E-003  3.960717710078312E-003  0.000000000000000E+000
  3.960717710078315E-002  3.564645939070483E-002  3.168574168062652E-002
  2.772502397054821E-002  2.376430626046989E-002  1.980358855039158E-002
  1.584287084031326E-002  1.188215313023495E-002  7.921435420156629E-003
  3.960717710078312E-003  0.000000000000000E+000  3.960717710078315E-002
  3.564645939070483E-002  3.168574168062652E-002  2.772502397054821E-002
  2.376430626046989E-002  1.980358855039158E-002  1.584287084031326E-002
  1.188215313023495E-002  7.921435420156629E-003  3.960717710078312E-003
  0.000000000000000E+000  3.960717710078315E-002  3.564645939070483E-002
  3.168574168062652E-002  2.772502397054821E-002  2.376430626046989E-002
  1.980358855039158E-002  1.584287084031326E-002  1.188215313023495E-002
  7.921435420156629E-003  3.960717710078312E-003  0.000000000000000E+000
  3.960717710078315E-002  3.564645939070483E-002  3.168574168062652E-002
  2.772502397054821E-002  2.376430626046989E-002  1.980358855039158E-002
  1.584287084031326E-002  1.188215313023495E-002  7.921435420156629E-003
  3.960717710078312E-003  0.000000000000000E+000  3.960717710078315E-002
  3.564645939070483E-002  3.168574168062652E-002  2.772502397054821E-002
  2.376430626046989E-002  1.980358855039158E-002  1.584287084031326E-002
  1.188215313023495E-002  7.921435420156629E-003  3.960717710078312E-003
  0.000000000000000E+000  3.960717710078315E-002  3.564645939070483E-002
  3.168574168062652E-002  2.772502397054821E-002  2.376430626046989E-002
  1.980358855039158E-002  1.584287084031326E-002  1.188215313023495E-002
  7.921435420156629E-003  3.960717710078312E-003  0.000000000000000E+000
  3.960717710078315E-002  3.564645939070483E-002  3.168574168062652E-002
  2.772502397054821E-002  2.376430626046989E-002  1.980358855039158E-002
  1.584287084031326E-002  1.188215313023495E-002  7.921435420156629E-003
  3.960717710078312E-003  0.000000000000000E+000  3.960717710078315E-002
  3.564645939070483E-002  3.168574168062652E-002  2.772502397054821E-002
  2.376430626046989E-002  1.980358855039158E-002  1.584287084031326E-002
  1.188215313023495E-002  7.921435420156629E-003  3.960717710078312E-003
  0.000000000000000E+000  3.960717710078315E-002  3.564645939070483E-002
  3.168574168062652E-002  2.772502397054821E-002  2.376430626046989E-002
  1.980358855039158E-002  1.584287084031326E-002  1.188215313023495E-002
  7.921435420156629E-003  3.960717710078312E-003  0.000000000000000E+000
  3.960717710078315E-002  3.564645939070483E-002  3.168574168062652E-002
  2.772502397054821E-002  2.376430626046989E-002  1.980358855039158E-002
  1.584287084031326E-002  1.188215313023495E-002  7.921435420156629E-003
  3.960717710078312E-003  0.000000000000000E+000  3.960717710078315E-002
  3.564645939070483E-002  3.168574168062652E-002  2.772502397054821E-002
  2.376430626046989E-002  1.980358855039158E-002  1.584287084031326E-002
  1.188215313023495E-002  7.921435420156629E-003  3.960717710078312E-003
  0.000000000000000E+000  3.960717710078315E-002  3.564645939070483E-002
  3.168574168062652E-002  2.772502397054821E-002  2.376430626046989E-002
  1.980358855039158E-002  1.584287084031326E-002  1.188215313023495E-002
  7.921435420156629E-003  3.960717710078312E-003  0.000000000000000E+000
  3.960717710078315E-002  3.564645939070483E-002  3.168574168062652E-002
  2.772502397054821E-002  2.376430626046989E-002  1.980358855039158E-002
  1.584287084031326E-002  1.188215313023495E-002  7.921435420156629E-003
  3.960717710078312E-003  0.000000000000000E+000  3.960717710078315E-002
  3.564645939070483E-002  3.168574168062652E-002  2.772502397054821E-002
  2.376430626046989E-002  1.980358855039158E-002  1.584287084031326E-002
  1.188215313023495E-002  7.921435420156629E-003  3.960717710078312E-003
  0.000000000000000E+000  3.960717710078315E-002  3.564645939070483E-002
  3.168574168062652E-002  2.772502397054821E-002  2.376430626046989E-002
  1.980358855039158E-002  1.584287084031326E-002  1.188215313023495E-002
  7.921435420156629E-003  3.960717710078312E-003  0.000000000000000E+000
  3.960717710078315E-002  3.564645939070483E-002  3.168574168062652E-002
  2.772502397054821E-002  2.376430626046989E-002  1.980358855039158E-002
  1.584287084031326E-002  1.188215313023495E-002  7.921435420156629E-003
  3.960717710078312E-003  0.000000000000000E+000  3.960717710078315E-002
  3.564645939070483E-002  3.168574168062652E-002  2.772502397054821E-002
  2.376430626046989E-002  1.980358855039158E-002  1.584287084031326E-002
  1.188215313023495E-002  7.921435420156629E-003  3.960717710078312E-003
  0.000000000000000E+000  3.960717710078315E-002  3.564645939070483E-002
  3.168574168062652E-002  2.772502397054821E-002  2.376430626046989E-002
  1.980358855039158E-002  1.584287084031326E-002  1.188215313023495E-002
  7.921435420156629E-003  3.960717710078312E-003  0.000000000000000E+000
  3.960717710078315E-002  3.564645939070483E-002  3.168574168062652E-002
  2.772502397054821E-002  2.376430626046989E-002  1.980358855039158E-002
  1.584287084031326E-002  1.188215313023495E-002  7.921435420156629E-003
  3.960717710078312E-003  0.000000000000000E+000  3.960717710078315E-002
  3.564645939070483E-002  3.168574168062652E-002  2.772502397054821E-002
  2.376430626046989E-002  1.980358855039158E-002  1.584287084031326E-002
  1.188215313023495E-002  7.921435420156629E-003  3.960717710078312E-003
  0.000000000000000E+000
  0.107939785100741       0.146771724125195       0.173225855450392     
  0.193986241303218       0.210091083716032       0.220992046527893     
  0.228111346304242       0.232657444751840       0.234913706934238     
  0.234700710360888       0.170979576174081       0.238019730916754     
  0.283600915530439       0.319249242531423       0.347087769142697     
  0.366436888759595       0.379344894297212       0.387835098251863     
  0.392649805184877       0.394473591097839       0.204256071053119     
  0.296996966790480       0.361766107769034       0.412477203934788     
  0.452602774565920       0.482071213664604       0.502759301836624     
  0.517054682837454       0.526368908969926       0.531411441461487     
  0.213611405909311       0.322158328591543       0.402096831765089     
  0.465893936812955       0.517166454274516       0.556828483296226     
  0.586407283483258       0.607813676109830       0.622231589083600     
  0.629305721733597       0.222826909959637       0.341801366505042     
  0.432539320373026       0.506475083744746       0.567260715766448     
  0.616418252982152       0.655194534433595       0.684755015378007     
  0.705590670613321       0.716608417732333       0.253382278238620     
  0.387180416144847       0.489335791456769       0.573140741366068     
  0.643142928654198       0.701433914701434       0.749240467141731     
  0.787251929005855       0.815354173828700       0.831842220285843     
  0.317275551031850       0.478368581848834       0.598689888486192     
  0.696519962939873       0.778295439499690       0.847034508325364     
  0.904342133437890       0.950952910375774       0.986646852924895     
   1.00928705776729       0.415300729783809       0.619423209067523     
  0.768321409729867       0.887541268880091       0.986389186813025     
   1.06929190673206        1.13857773788856        1.19533598274451     
   1.23944396800773        1.26841242243013       0.543452432133047     
  0.805518839862851       0.993653925686175        1.14238007973778     
   1.26451526740281        1.36627049418308        1.45095767361693     
   1.52017193114857        1.57394346865920        1.60944950536340     
  0.696988229985963        1.02942039490479        1.26572910094780     
   1.45089688972774        1.60174664821057        1.72650091788794     
   1.82960702306443        1.91330206673362        1.97787348211703     
   2.02022300087866       0.870924283846152        1.28332300417086     
   1.57449419826327        1.80119904060855        1.98474306221982     
   2.13558331749782        2.25943149495904        2.35925448154749     
   2.43565582157723        2.48528717859467        1.06050719325335     
   1.56002034847922        1.91085939177967        2.18261966014209     
   2.40152003476039        2.58048962110685        2.72663955098557     
   2.84373539284245        2.93273086901664        2.99004322181229     
   1.26164337738308        1.85334760005085        2.26713128984995     
   2.58623226574124        2.84210270417105        3.05031993045050     
   3.21951659814645        3.35435600853024        3.45622548369936     
   3.52136769643210        1.47145620375657        2.15886302059070     
   2.63761063009089        3.00523155034084        3.29868710003172     
   3.53637072778027        3.72856133709364        3.88092332309749     
   3.99537682055482        4.06810478333117        1.69035056291153     
   2.47658833996516        3.02162333920897        3.43808002600372     
   3.76880487796413        4.03525310712541        4.24953594875165     
   4.41846973663637        4.54464038169138        4.62432496273428     
   1.92602746601080        2.81616456376269        3.42913103196961     
   3.89435469441507        4.26137091707818        4.55517185753056     
   4.79001256123307        4.97408490400073        5.11081735254834     
   5.19674611486856        2.19158383653346        3.19378655152300     
   3.87694826116166        4.39067429378639        4.79268807210325     
   5.11229634345767        5.36631126044993        5.56453358191223     
   5.71138792599632        5.80374204514642        2.47498539457188     
   3.59086838411030        4.34172429138884        4.90013764881245     
   5.33320921563308        5.67510599223969        5.94545681474297     
   6.15583224033832        6.31181541335086        6.41078399428339     
   2.71179835397604        3.91562017373698        4.71405582313775     
   5.30038020254046        5.75017157968264        6.10197799783396     
   6.37803372969576        6.59164002414415        6.74968847378610     
   6.85075279197751        2.82203060324413        4.05286648174690     
   4.85518331925395        5.43494524572704        5.87339146288226     
   6.21211316776887        6.47504506320216        6.67648407735275     
   6.82414141875364        6.91815941235602        2.77307703225021     
   3.95181392299759        4.70195006344053        5.23309710488195     
   5.62830688901486        5.92980601561095        6.16151257547095     
   6.33743335948114        6.46509705025914        6.54552396698231     
   2.56917974718265        3.61286059218810        4.25447000637229     
   4.69877188076129        5.02497486836767        5.27191386248801     
   5.46096454153020        5.60452717633313        5.70944804164105     
   5.77686660367179        2.21334973292581        3.04181048525349     
   3.53183408697173        3.86644285777921        4.11108375617236     
   4.29630544842370        4.43868410045353        4.54828798988322     
   4.63237192290146        4.69707381226053        1.68995850833112     
   2.24878673990479        2.57492431746122        2.79820784655971     
   2.96213626902045        3.08675860841167        3.18298950452128     
   3.25752674760915        3.31536250442180        3.36344625059589     
   1.02688677171429        1.33979932220539        1.52413757490723     
   1.65105136185700        1.74455356360721        1.81578881492958     
   1.87081405235716        1.91319175020443        1.94495389699494     
   1.96561005119527     
  0.000000000000000E+000  0.000000000000000E+000  0.000000000000000E+000
  0.000000000000000E+000  0.000000000000000E+000  0.000000000000000E+000
  0.000000000000000E+000  0.000000000000000E+000  0.000000000000000E+000
  0.000000000000000E+000  0.000000000000000E+000  0.000000000000000E+000
  0.000000000000000E+000  0.000000000000000E+000  0.000000000000000E+000
  0.000000000000000E+000  0.000000000000000E+000  0.000000000000000E+000
  0.000000000000000E+000  0.000000000000000E+000  0.000000000000000E+000
  0.000000000000000E+000  0.000000000000000E+000  0.000000000000000E+000
  0.000000000000000E+000  0.000000000000000E+000  0.000000000000000E+000
  0.000000000000000E+000  0.000000000000000E+000  0.000000000000000E+000
  0.000000000000000E+000  0.000000000000000E+000  0.000000000000000E+000
  0.000000000000000E+000  0.000000000000000E+000  0.000000000000000E+000
  0.000000000000000E+000  0.000000000000000E+000  0.000000000000000E+000
  0.000000000000000E+000  0.000000000000000E+000  0.000000000000000E+000
  0.000000000000000E+000  0.000000000000000E+000  0.000000000000000E+000
  0.000000000000000E+000  0.000000000000000E+000  0.000000000000000E+000
  0.000000000000000E+000  0.000000000000000E+000  0.000000000000000E+000
  0.000000000000000E+000  0.000000000000000E+000  0.000000000000000E+000
  0.000000000000000E+000  0.000000000000000E+000  0.000000000000000E+000
  0.000000000000000E+000  0.000000000000000E+000  0.000000000000000E+000
  0.000000000000000E+000  0.000000000000000E+000  0.000000000000000E+000
  0.000000000000000E+000  0.000000000000000E+000  0.000000000000000E+000
  0.000000000000000E+000  0.000000000000000E+000  0.000000000000000E+000
  0.000000000000000E+000  0.000000000000000E+000  0.000000000000000E+000
  0.000000000000000E+000  0.000000000000000E+000  0.000000000000000E+000
  0.000000000000000E+000  0.000000000000000E+000  0.000000000000000E+000
  0.000000000000000E+000  0.000000000000000E+000  0.000000000000000E+000
  0.000000000000000E+000  0.000000000000000E+000  0.000000000000000E+000
  0.000000000000000E+000  0.000000000000000E+000  0.000000000000000E+000
  0.000000000000000E+000  0.000000000000000E+000  0.000000000000000E+000
  0.000000000000000E+000  0.000000000000000E+000  0.000000000000000E+000
  0.000000000000000E+000  0.000000000000000E+000  0.000000000000000E+000
  0.000000000000000E+000  0.000000000000000E+000  0.000000000000000E+000
  0.000000000000000E+000  0.000000000000000E+000  0.000000000000000E+000
  0.000000000000000E+000  0.000000000000000E+000  0.000000000000000E+000
  0.000000000000000E+000  0.000000000000000E+000  0.000000000000000E+000
  0.000000000000000E+000  0.000000000000000E+000  0.000000000000000E+000
  0.000000000000000E+000  0.000000000000000E+000  0.000000000000000E+000
  0.000000000000000E+000  0.000000000000000E+000  0.000000000000000E+000