 Title = "Wing and Wake"
 VARIABLES = "X" "Y" "Z" "GAM" "skew"
 Zone I=   11 J=   26 K=1  T="Blade"
 DATAPACKING=BLOCK
 VARLOCATION=([4]=CELLCENTERED,[5]=CELLCENTERED)
  6.122443562154144E-002  7.119721679931647E-002  8.116999797709133E-002
  9.114277915486661E-002  0.101115560332642       0.111088341510416     
  0.121061122688192       0.131033903865967       0.141006685043741     
  0.150979466221516       0.160952247399292       6.439656564200680E-002
  7.436934681978197E-002  8.434212799755662E-002  9.431490917533195E-002
  0.104287690353107       0.114260471530882       0.124233252708657     
  0.134206033886432       0.144178815064207       0.154151596241982     
  0.164124377419757       7.386292931804060E-002  8.383571049581554E-002
  9.380849167359054E-002  0.103781272851366       0.113754054029140     
  0.123726835206916       0.133699616384691       0.143672397562466     
  0.153645178740240       0.163617959918015       0.173590741095790     
  8.947423643954107E-002  9.944701761731599E-002  0.109419798795091     
  0.119392579972866       0.129365361150641       0.139338142328416     
  0.149310923506191       0.159283704683966       0.169256485861741     
  0.179229267039516       0.189202048217290       0.110984287367458     
  0.120957068545233       0.130929849723008       0.140902630900783     
  0.150875412078558       0.160848193256333       0.170820974434109     
  0.180793755611883       0.190766536789658       0.200739317967433     
  0.210712099145208       0.138053855749178       0.148026636926954     
  0.157999418104728       0.167972199282503       0.177944980460278     
  0.187917761638054       0.197890542815828       0.207863323993603     
  0.217836105171379       0.227808886349153       0.237781667526929     
  0.170256038320745       0.180228819498520       0.190201600676295     
  0.200174381854070       0.210147163031844       0.220119944209620     
  0.230092725387395       0.240065506565169       0.250038287742944     
  0.260011068920719       0.269983850098494       0.207082987426353     
  0.217055768604127       0.227028549781903       0.237001330959678     
  0.246974112137453       0.256946893315227       0.266919674493002     
  0.276892455670778       0.286865236848552       0.296838018026327     
  0.306810799204103       0.247953920079253       0.257926701257029     
  0.267899482434803       0.277872263612579       0.287845044790354     
  0.297817825968128       0.307790607145903       0.317763388323678     
  0.327736169501454       0.337708950679229       0.347681731857003     
  0.292224277256399       0.302197058434174       0.312169839611949     
  0.322142620789724       0.332115401967500       0.342088183145273     
  0.352060964323049       0.362033745500824       0.372006526678599     
  0.381979307856373       0.391952089034149       0.339195888979277     
  0.349168670157052       0.359141451334827       0.369114232512602     
  0.379087013690377       0.389059794868153       0.399032576045925     
  0.409005357223702       0.418978138401476       0.428950919579251     
  0.438923700757026       0.388127984871536       0.398100766049310     
  0.408073547227087       0.418046328404859       0.428019109582635     
  0.437991890760411       0.447964671938186       0.457937453115961     
  0.467910234293735       0.477883015471510       0.487855796649285     
  0.438248876550338       0.448221657728113       0.458194438905888     
  0.468167220083662       0.478140001261438       0.488112782439212     
  0.498085563616988       0.508058344794763       0.518031125972538     
  0.528003907150312       0.537976688328087       0.488768127613140     
  0.498740908790915       0.508713689968688       0.518686471146463     
  0.528659252324239       0.538632033502014       0.548604814679790     
  0.558577595857563       0.568550377035341       0.578523158213114     
  0.588495939390888       0.538889019291941       0.548861800469715     
  0.558834581647491       0.568807362825265       0.578780144003041     
  0.588752925180817       0.598725706358590       0.608698487536367     
  0.618671268714140       0.628644049891914       0.638616831069691     
  0.587821115184199       0.597793896361975       0.607766677539750     
  0.617739458717524       0.627712239895301       0.637685021073075     
  0.647657802250849       0.657630583428625       0.667603364606399     
  0.677576145784172       0.687548926961951       0.634792726907078     
  0.644765508084852       0.654738289262627       0.664711070440402     
  0.674683851618177       0.684656632795953       0.694629413973728     
  0.704602195151503       0.714574976329277       0.724547757507054     
  0.734520538684828       0.679063084084223       0.689035865261998     
  0.699008646439773       0.708981427617548       0.718954208795323     
  0.728926989973099       0.738899771150873       0.748872552328648     
  0.758845333506422       0.768818114684197       0.778790895861972     
  0.719934016737124       0.729906797914898       0.739879579092673     
  0.749852360270449       0.759825141448224       0.769797922625999     
  0.779770703803772       0.789743484981548       0.799716266159324     
  0.809689047337099       0.819661828514872       0.756760965842732     
  0.766733747020507       0.776706528198281       0.786679309376058     
  0.796652090553831       0.806624871731606       0.816597652909381     
  0.826570434087157       0.836543215264932       0.846515996442708     
  0.856488777620480       0.788963148414299       0.798935929592075     
  0.808908710769847       0.818881491947621       0.828854273125398     
  0.838827054303173       0.848799835480949       0.858772616658723     
  0.868745397836497       0.878718179014273       0.888690960192046     
  0.816032716796016       0.826005497973792       0.835978279151569     
  0.845951060329343       0.855923841507118       0.865896622684895     
  0.875869403862668       0.885842185040442       0.895814966218218     
  0.905787747395994       0.915760528573770       0.837542767723936     
  0.847515548901709       0.857488330079484       0.867461111257261     
  0.877433892435037       0.887406673612810       0.897379454790586     
  0.907352235968362       0.917325017146135       0.927297798323910     
  0.937270579501684       0.853154074845436       0.863126856023211     
  0.873099637200984       0.883072418378760       0.893045199556537     
  0.903017980734311       0.912990761912087       0.922963543089861     
  0.932936324267633       0.942909105445411       0.952881886623186     
  0.862620438521469       0.872593219699244       0.882566000877019     
  0.892538782054793       0.902511563232568       0.912484344410345     
  0.922457125588119       0.932429906765893       0.942402687943670     
  0.952375469121444       0.962348250299218       0.865792568541933     
  0.875765349719710       0.885738130897484       0.895710912075259     
  0.905683693253036       0.915656474430810       0.925629255608586     
  0.935602036786359       0.945574817964135       0.955547599141909     
  0.965520380319687     
  0.259379755487084       0.243639398095930       0.227899040704775     
  0.212158683313620       0.196418325922465       0.180677968531310     
  0.164937611140155       0.149197253749000       0.133456896357846     
  0.117716538966691       0.101976181575536       0.261389554742299     
  0.245649197351144       0.229908839959989       0.214168482568835     
  0.198428125177679       0.182687767786524       0.166947410395369     
  0.151207053004215       0.135466695613060       0.119726338221905     
  0.103985980830750       0.267387256773091       0.251646899381936     
  0.235906541990781       0.220166184599626       0.204425827208471     
  0.188685469817317       0.172945112426162       0.157204755035007     
  0.141464397643852       0.125724040252697       0.109983682861542     
  0.277278274235582       0.261537916844427       0.245797559453272     
  0.230057202062118       0.214316844670962       0.198576487279807     
  0.182836129888653       0.167095772497498       0.151355415106343     
  0.135615057715188       0.119874700324033       0.290906619875780     
  0.275166262484626       0.259425905093471       0.243685547702316     
  0.227945190311161       0.212204832920007       0.196464475528852     
  0.180724118137697       0.164983760746542       0.149243403355387     
  0.133503045964232       0.308057366541762       0.292317009150608     
  0.276576651759452       0.260836294368297       0.245095936977143     
  0.229355579585988       0.213615222194833       0.197874864803678     
  0.182134507412523       0.166394150021368       0.150653792630214     
  0.328460036713245       0.312719679322090       0.296979321930935     
  0.281238964539780       0.265498607148625       0.249758249757471     
  0.234017892366316       0.218277534975161       0.202537177584006     
  0.186796820192851       0.171056462801696       0.351792868093660     
  0.336052510702504       0.320312153311350       0.304571795920196     
  0.288831438529040       0.273091081137885       0.257350723746731     
  0.241610366355576       0.225870008964421       0.210129651573266     
  0.194389294182112       0.377687887993780       0.361947530602625     
  0.346207173211470       0.330466815820316       0.314726458429161     
  0.298986101038005       0.283245743646850       0.267505386255696     
  0.251765028864541       0.236024671473386       0.220284314082232     
  0.405736716480845       0.389996359089690       0.374256001698536     
  0.358515644307381       0.342775286916226       0.327034929525071     
  0.311294572133916       0.295554214742762       0.279813857351606     
  0.264073499960451       0.248333142569297       0.435497006774058     
  0.419756649382903       0.404016291991748       0.388275934600594     
  0.372535577209438       0.356795219818284       0.341054862427128     
  0.325314505035973       0.309574147644818       0.293833790253663     
  0.278093432862508       0.466499421317555       0.450759063926400     
  0.435018706535246       0.419278349144089       0.403537991752936     
  0.387797634361782       0.372057276970627       0.356316919579471     
  0.340576562188316       0.324836204797162       0.309095847406007     
  0.498255033514045       0.482514676122890       0.466774318731734     
  0.451033961340580       0.435293603949425       0.419553246558270     
  0.403812889167115       0.388072531775961       0.372332174384806     
  0.356591816993651       0.340851459602496       0.530263038389304     
  0.514522680998148       0.498782323606993       0.483041966215838     
  0.467301608824683       0.451561251433528       0.435820894042373     
  0.420080536651219       0.404340179260065       0.388599821868909     
  0.372859464477754       0.562018650585791       0.546278293194637     
  0.530537935803482       0.514797578412327       0.499057221021172     
  0.483316863630019       0.467576506238863       0.451836148847707     
  0.436095791456552       0.420355434065397       0.404615076674244     
  0.593021065129290       0.577280707738134       0.561540350346980     
  0.545799992955826       0.530059635564672       0.514319278173517     
  0.498578920782361       0.482838563391207       0.467098206000052     
  0.451357848608896       0.435617491217742       0.622781355422502     
  0.607040998031347       0.591300640640192       0.575560283249038     
  0.559819925857882       0.544079568466728       0.528339211075572     
  0.512598853684418       0.496858496293263       0.481118138902108     
  0.465377781510954       0.650830183909567       0.635089826518412     
  0.619349469127257       0.603609111736103       0.587868754344948     
  0.572128396953793       0.556388039562638       0.540647682171483     
  0.524907324780328       0.509166967389173       0.493426609998019     
  0.676725203809686       0.660984846418531       0.645244489027377     
  0.629504131636223       0.613763774245068       0.598023416853913     
  0.582283059462757       0.566542702071603       0.550802344680450     
  0.535061987289292       0.519321629898138       0.700058035190103     
  0.684317677798946       0.668577320407792       0.652836963016638     
  0.637096605625484       0.621356248234326       0.605615890843174     
  0.589875533452019       0.574135176060863       0.558394818669709     
  0.542654461278554       0.720460705361585       0.704720347970431     
  0.688979990579274       0.673239633188118       0.657499275796965     
  0.641758918405811       0.626018561014656       0.610278203623500     
  0.594537846232347       0.578797488841190       0.563057131450035     
  0.737611452027566       0.721871094636412       0.706130737245255     
  0.690390379854101       0.674650022462948       0.658909665071793     
  0.643169307680636       0.627428950289483       0.611688592898329     
  0.595948235507172       0.580207878116018       0.751239797667765     
  0.735499440276610       0.719759082885454       0.704018725494301     
  0.688278368103147       0.672538010711991       0.656797653320837     
  0.641057295929682       0.625316938538527       0.609576581147372     
  0.593836223756216       0.761130815130257       0.745390457739103     
  0.729650100347946       0.713909742956792       0.698169385565638     
  0.682429028174481       0.666688670783328       0.650948313392171     
  0.635207956001017       0.619467598609861       0.603727241218707     
  0.767128517161048       0.751388159769893       0.735647802378741     
  0.719907444987583       0.704167087596429       0.688426730205273     
  0.672686372814118       0.656946015422964       0.641205658031810     
  0.625465300640654       0.609724943249499       0.769138316416263     
  0.753397959025107       0.737657601633954       0.721917244242797     
  0.706176886851644       0.690436529460488       0.674696172069335     
  0.658955814678178       0.643215457287024       0.627475099895868     
  0.611734742504715     
  3.960717710078315E-002  3.564645939070483E-002  3.168574168062652E-002
  2.772502397054821E-002  2.376430626046989E-002  1.980358855039158E-002
  1.584287084031326E-002  1.188215313023495E-002  7.921435420156629E-003
  3.960717710078312E-003  0.000000000000000E+000  3.960717710078315E-002
  3.564645939070483E-002  3.168574168062652E-002  2.772502397054821E-002
  2.376430626046989E-002  1.980358855039158E-002  1.584287084031326E-002
  1.188215313023495E-002  7.921435420156629E-003  3.960717710078312E-003
  0.000000000000000E+000  3.960717710078315E-002  3.564645939070483E-002
  3.168574168062652E-002  2.772502397054821E-002  2.376430626046989E-002
  1.980358855039158E-002  1.584287084031326E-002  1.188215313023495E-002
  7.921435420156629E-003  3.960717710078312E-003  0.000000000000000E+000
  3.960717710078315E-002  3.564645939070483E-002  3.168574168062652E-002
  2.772502397054821E-002  2.376430626046989E-002  1.980358855039158E-002
  1.584287084031326E-002  1.188215313023495E-002  7.921435420156629E-003
  3.960717710078312E-003  0.000000000000000E+000  3.960717710078315E-002
  3.564645939070483E-002  3.168574168062652E-002  2.772502397054821E-002
  2.376430626046989E-002  1.980358855039158E-002  1.584287084031326E-002
  1.188215313023495E-002  7.921435420156629E-003  3.960717710078312E-003
  0.000000000000000E+000  3.960717710078315E-002  3.564645939070483E-002
  3.168574168062652E-002  2.772502397054821E-002  2.376430626046989E-002
  1.980358855039158E-002  1.584287084031326E-002  1.188215313023495E-002
  7.921435420156629E-003  3.960717710078312E-003  0.000000000000000E+000
  3.960717710078315E-002  3.564645939070483E-002  3.168574168062652E-002
  2.772502397054821E-002  2.376430626046989E-002  1.980358855039158E-002
  1.584287084031326E-002  1.188215313023495E-002  7.921435420156629E-003
  3.960717710078312E-003  0.000000000000000E+000  3.960717710078315E-002
  3.564645939070483E-002  3.168574168062652E-002  2.772502397054821E-002
  2.376430626046989E-002  1.980358855039158E-002  1.584287084031326E-002
  1.188215313023495E-002  7.921435420156629E-003  3.960717710078312E-003
  0.000000000000000E+000  3.960717710078315E-002  3.564645939070483E-002
  3.168574168062652E-002  2.772502397054821E-002  2.376430626046989E-002
  1.980358855039158E-002  1.584287084031326E-002  1.188215313023495E-002
  7.921435420156629E-003  3.960717710078312E-003  0.000000000000000E+000
  3.960717710078315E-002  3.564645939070483E-002  3.168574168062652E-002
  2.772502397054821E-002  2.376430626046989E-002  1.980358855039158E-002
  1.584287084031326E-002  1.188215313023495E-002  7.921435420156629E-003
  3.960717710078312E-003  0.000000000000000E+000  3.960717710078315E-002
  3.564645939070483E-002  3.168574168062652E-002  2.772502397054821E-002
  2.376430626046989E-002  1.980358855039158E-002  1.584287084031326E-002
  1.188215313023495E-002  7.921435420156629E-003  3.960717710078312E-003
  0.000000000000000E+000  3.960717710078315E-002  3.564645939070483E-002
  3.168574168062652E-002  2.772502397054821E-002  2.376430626046989E-002
  1.980358855039158E-002  1.584287084031326E-002  1.188215313023495E-002
  7.921435420156629E-003  3.960717710078312E-003  0.000000000000000E+000
  3.960717710078315E-002  3.564645939070483E-002  3.168574168062652E-002
  2.772502397054821E-002  2.376430626046989E-002  1.980358855039158E-002
  1.584287084031326E-002  1.188215313023495E-002  7.921435420156629E-003
  3.960717710078312E-003  0.000000000000000E+000  3.960717710078315E-002
  3.564645939070483E-002  3.168574168062652E-002  2.772502397054821E-002
  2.376430626046989E-002  1.980358855039158E-002  1.584287084031326E-002
  1.188215313023495E-002  7.921435420156629E-003  3.960717710078312E-003
  0.000000000000000E+000  3.960717710078315E-002  3.564645939070483E-002
  3.168574168062652E-002  2.772502397054821E-002  2.376430626046989E-002
  1.980358855039158E-002  1.584287084031326E-002  1.188215313023495E-002
  7.921435420156629E-003  3.960717710078312E-003  0.000000000000000E+000
  3.960717710078315E-002  3.564645939070483E-002  3.168574168062652E-002
  2.772502397054821E-002  2.376430626046989E-002  1.980358855039158E-002
  1.584287084031326E-002  1.188215313023495E-002  7.921435420156629E-003
  3.960717710078312E-003  0.000000000000000E+000  3.960717710078315E-002
  3.564645939070483E-002  3.168574168062652E-002  2.772502397054821E-002
  2.376430626046989E-002  1.980358855039158E-002  1.584287084031326E-002
  1.188215313023495E-002  7.921435420156629E-003  3.960717710078312E-003
  0.000000000000000E+000  3.960717710078315E-002  3.564645939070483E-002
  3.168574168062652E-002  2.772502397054821E-002  2.376430626046989E-002
  1.980358855039158E-002  1.584287084031326E-002  1.188215313023495E-002
  7.921435420156629E-003  3.960717710078312E-003  0.000000000000000E+000
  3.960717710078315E-002  3.564645939070483E-002  3.168574168062652E-002
  2.772502397054821E-002  2.376430626046989E-002  1.980358855039158E-002
  1.584287084031326E-002  1.188215313023495E-002  7.921435420156629E-003
  3.960717710078312E-003  0.000000000000000E+000  3.960717710078315E-002
  3.564645939070483E-002  3.168574168062652E-002  2.772502397054821E-002
  2.376430626046989E-002  1.980358855039158E-002  1.584287084031326E-002
  1.188215313023495E-002  7.921435420156629E-003  3.960717710078312E-003
  0.000000000000000E+000  3.960717710078315E-002  3.564645939070483E-002
  3.168574168062652E-002  2.772502397054821E-002  2.376430626046989E-002
  1.980358855039158E-002  1.584287084031326E-002  1.188215313023495E-002
  7.921435420156629E-003  3.960717710078312E-003  0.000000000000000E+000
  3.960717710078315E-002  3.564645939070483E-002  3.168574168062652E-002
  2.772502397054821E-002  2.376430626046989E-002  1.980358855039158E-002
  1.584287084031326E-002  1.188215313023495E-002  7.921435420156629E-003
  3.960717710078312E-003  0.000000000000000E+000  3.960717710078315E-002
  3.564645939070483E-002  3.168574168062652E-002  2.772502397054821E-002
  2.376430626046989E-002  1.980358855039158E-002  1.584287084031326E-002
  1.188215313023495E-002  7.921435420156629E-003  3.960717710078312E-003
  0.000000000000000E+000  3.960717710078315E-002  3.564645939070483E-002
  3.168574168062652E-002  2.772502397054821E-002  2.376430626046989E-002
  1.980358855039158E-002  1.584287084031326E-002  1.188215313023495E-002
  7.921435420156629E-003  3.960717710078312E-003  0.000000000000000E+000
  3.960717710078315E-002  3.564645939070483E-002  3.168574168062652E-002
  2.772502397054821E-002  2.376430626046989E-002  1.980358855039158E-002
  1.584287084031326E-002  1.188215313023495E-002  7.921435420156629E-003
  3.960717710078312E-003  0.000000000000000E+000  3.960717710078315E-002
  3.564645939070483E-002  3.168574168062652E-002  2.772502397054821E-002
  2.376430626046989E-002  1.980358855039158E-002  1.584287084031326E-002
  1.188215313023495E-002  7.921435420156629E-003  3.960717710078312E-003
  0.000000000000000E+000
  0.113557592383458       0.193666351472113       0.273764368574567     
  0.355370897629617       0.434561396670067       0.507097055472854     
  0.570628695267627       0.622775820694409       0.662496715601313     
  0.688960559320363       0.188436661673216       0.323643565314169     
  0.457961348295950       0.595056134448550       0.728730282721738     
  0.852056790474639       0.960707299707715        1.05041309016433     
   1.11954477532522        1.16932198363268       0.249358938386392     
  0.431378741847579       0.610728225888382       0.794500007842119     
  0.975647808578624        1.14646743482076        1.29933194631798     
   1.42746009476813        1.52741502689064        1.59873590996095     
  0.288762185545351       0.496818444130908       0.700173319543833     
  0.908072483849339        1.11801116922799        1.32184687247233     
   1.50825192203127        1.66685518587690        1.79036079443150     
   1.87292476665770       0.309838277828794       0.523339848100543     
  0.729173835938221       0.938715020619767        1.15157201297537     
   1.36169447376175        1.55826092829333        1.73086729679974     
   1.87000503803346        1.96395339259220       0.337255557298922     
  0.551479563833451       0.748870894737513       0.945545160219076     
   1.14369724636884        1.33744385323121        1.51842505360127     
   1.68154027152553        1.81781859756363        1.91300684932101     
  0.395270155823968       0.623280524450269       0.817368995028998     
  0.998450510745719        1.17280990896409        1.34051802602581     
   1.49832508546036        1.64077896753840        1.75983360534649     
   1.84375056114294       0.489372975896006       0.750235569750384     
  0.956977697073469        1.13729489302331        1.30054851017379     
   1.45019020118677        1.58648024859188        1.70672817716414     
   1.80522723189389        1.87258938681051       0.613639157330901     
  0.923972154923229        1.15797670163137        1.35253022008128     
   1.52068511724509        1.66803239121407        1.79647148707359     
   1.90531452776274        1.99160337441137        2.04894089830659     
  0.761738588388427        1.13502409630453        1.40792377175321     
   1.62798683897295        1.81247067174546        1.96927126736113     
   2.10203977236161        2.21186333997285        2.29762017908679     
   2.35437372438230       0.928430025093619        1.37500285157582     
   1.69546997489178        1.94916084932420        2.15798941685146     
   2.33239130624971        2.47773435383888        2.59642832073217     
   2.68833178464791        2.74892128803832        1.10972084160566     
   1.63741538745844        2.01175350906074        2.30468989332121     
   2.54307783542588        2.73995462480282        2.90230068368924     
   3.03359756689285        3.13436024388156        3.20019135021463     
   1.30232071619769        1.91675286973790        2.34912932332166     
   2.68473174575631        2.95560041122313        3.17746273832803     
   3.35891257046173        3.50445904091488        3.61521266104156     
   3.68684300886278        1.50355905260630        2.20858491793752     
   2.70153806618474        3.08162217565997        3.38630383652041     
   3.63412727238387        3.83536914413462        3.99560254365609     
   4.11656813093924        4.19405582927453        1.71383701139902     
   2.51280307382520        3.06798900536508        3.49326758664512     
   3.83187264715468        4.10538223384687        4.32591539274450     
   4.50023395380413        4.63081503342690        4.71369709082049     
   1.94045859007860        2.83840036372856        3.45754944212202     
   3.92808030023966        4.29975095814752        4.59762100689983     
   4.83594670815271        5.02288713990765        5.16181918653025     
   5.24919774869556        2.19598461174645        3.20073404888372     
   3.88591013677316        4.40124268994205        4.80445307318474     
   5.12482584645085        5.37915063226551        5.57720733182754     
   5.72341362677551        5.81472583031808        2.47006600896467     
   3.58359772674197        4.33254612451123        4.88903430197293     
   5.31995782841376        5.65938921520545        5.92691344074871     
   6.13407322483286        6.28644822388792        6.38160857322868     
   2.70123337792434        3.89964783229413        4.69371020922387     
   5.27592124368295        5.72157129322602        6.06910399377400     
   6.34070567628229        6.54963036425682        6.70272842437956     
   6.79872383802484        2.81049983580552        4.03523619046862     
   4.83260035101035        5.40779507704463        5.84177296297105     
   6.17601411395033        6.43440539101708        6.63120132289368     
   6.77407196738363        6.86326791160511        2.76312211253525     
   3.93640302404835        4.68205037801514        5.20908113057759     
   5.60032578755290        5.89791234487721        6.12570947097914     
   6.29768587598419        6.42133514606009        6.49775584100717     
   2.56146959321586        3.60081636904520        4.23881920832131     
   4.67980700553398        5.00283055053276        5.24665225958442     
   5.43260803934411        5.57306635991828        5.67484317186327     
   5.73913432572061        2.20775027727599        3.03304027328585     
   3.52040436817528        3.85255652040001        4.09483707515870     
   4.27774710319741        4.41783518576521        4.52514314022184     
   4.60688930973738        4.66921039453334        1.68620327746037     
   2.24294186553324        2.56730518488752        2.78893833081310     
   2.95127729199562        3.07434312648431        3.16903367150909     
   3.24203037321627        3.29830229621286        3.34477867560789     
   1.02472737857741        1.33646003731180        1.51978620426733     
   1.64575503078578        1.73834606400390        1.80868910735945     
   1.86283245844653        1.90433129485792        1.93521081631722     
   1.95500060143050     
  0.000000000000000E+000  0.000000000000000E+000  0.000000000000000E+000
  0.000000000000000E+000  0.000000000000000E+000  0.000000000000000E+000
  0.000000000000000E+000  0.000000000000000E+000  0.000000000000000E+000
  0.000000000000000E+000  0.000000000000000E+000  0.000000000000000E+000
  0.000000000000000E+000  0.000000000000000E+000  0.000000000000000E+000
  0.000000000000000E+000  0.000000000000000E+000  0.000000000000000E+000
  0.000000000000000E+000  0.000000000000000E+000  0.000000000000000E+000
  0.000000000000000E+000  0.000000000000000E+000  0.000000000000000E+000
  0.000000000000000E+000  0.000000000000000E+000  0.000000000000000E+000
  0.000000000000000E+000  0.000000000000000E+000  0.000000000000000E+000
  0.000000000000000E+000  0.000000000000000E+000  0.000000000000000E+000
  0.000000000000000E+000  0.000000000000000E+000  0.000000000000000E+000
  0.000000000000000E+000  0.000000000000000E+000  0.000000000000000E+000
  0.000000000000000E+000  0.000000000000000E+000  0.000000000000000E+000
  0.000000000000000E+000  0.000000000000000E+000  0.000000000000000E+000
  0.000000000000000E+000  0.000000000000000E+000  0.000000000000000E+000
  0.000000000000000E+000  0.000000000000000E+000  0.000000000000000E+000
  0.000000000000000E+000  0.000000000000000E+000  0.000000000000000E+000
  0.000000000000000E+000  0.000000000000000E+000  0.000000000000000E+000
  0.000000000000000E+000  0.000000000000000E+000  0.000000000000000E+000
  0.000000000000000E+000  0.000000000000000E+000  0.000000000000000E+000
  0.000000000000000E+000  0.000000000000000E+000  0.000000000000000E+000
  0.000000000000000E+000  0.000000000000000E+000  0.000000000000000E+000
  0.000000000000000E+000  0.000000000000000E+000  0.000000000000000E+000
  0.000000000000000E+000  0.000000000000000E+000  0.000000000000000E+000
  0.000000000000000E+000  0.000000000000000E+000  0.000000000000000E+000
  0.000000000000000E+000  0.000000000000000E+000  0.000000000000000E+000
  0.000000000000000E+000  0.000000000000000E+000  0.000000000000000E+000
  0.000000000000000E+000  0.000000000000000E+000  0.000000000000000E+000
  0.000000000000000E+000  0.000000000000000E+000  0.000000000000000E+000
  0.000000000000000E+000  0.000000000000000E+000  0.000000000000000E+000
  0.000000000000000E+000  0.000000000000000E+000  0.000000000000000E+000
  0.000000000000000E+000  0.000000000000000E+000  0.000000000000000E+000
  0.000000000000000E+000  0.000000000000000E+000  0.000000000000000E+000
  0.000000000000000E+000  0.000000000000000E+000  0.000000000000000E+000
  0.000000000000000E+000  0.000000000000000E+000  0.000000000000000E+000
  0.000000000000000E+000  0.000000000000000E+000  0.000000000000000E+000
  0.000000000000000E+000  0.000000000000000E+000  0.000000000000000E+000
  0.000000000000000E+000  0.000000000000000E+000  0.000000000000000E+000