 Title = "Wing and Wake"
 VARIABLES = "X" "Y" "Z" "GAM" "skew"
 Zone I=   11 J=   26 K=1  T="Blade"
 DATAPACKING=BLOCK
 VARLOCATION=([4]=CELLCENTERED,[5]=CELLCENTERED)
 -0.182716307820448      -0.183482377850090      -0.184248447879732     
 -0.185014517909374      -0.185780587939016      -0.186546657968658     
 -0.187312727998300      -0.188078798027942      -0.188844868057584     
 -0.189610938087226      -0.190377008116868      -0.186468356222455     
 -0.187234426252097      -0.188000496281738      -0.188766566311381     
 -0.189532636341022      -0.190298706370664      -0.191064776400306     
 -0.191830846429948      -0.192596916459590      -0.193362986489232     
 -0.194129056518874      -0.197665329383809      -0.198431399413451     
 -0.199197469443093      -0.199963539472735      -0.200729609502376     
 -0.201495679532019      -0.202261749561661      -0.203027819591303     
 -0.203793889620944      -0.204559959650586      -0.205326029680228     
 -0.216130644349010      -0.216896714378651      -0.217662784408294     
 -0.218428854437936      -0.219194924467577      -0.219960994497219     
 -0.220727064526861      -0.221493134556503      -0.222259204586145     
 -0.223025274615787      -0.223791344645428      -0.241573092070409     
 -0.242339162100051      -0.243105232129693      -0.243871302159336     
 -0.244637372188977      -0.245403442218620      -0.246169512248262     
 -0.246935582277903      -0.247701652307545      -0.248467722337187     
 -0.249233792366829      -0.273591429948862      -0.274357499978505     
 -0.275123570008146      -0.275889640037788      -0.276655710067430     
 -0.277421780097073      -0.278187850126714      -0.278953920156356     
 -0.279719990185998      -0.280486060215640      -0.281252130245282     
 -0.311680709669195      -0.312446779698838      -0.313212849728480     
 -0.313978919758122      -0.314744989787763      -0.315511059817406     
 -0.316277129847048      -0.317043199876689      -0.317809269906331     
 -0.318575339935972      -0.319341409965614      -0.355240240536788     
 -0.356006310566429      -0.356772380596072      -0.357538450625714     
 -0.358304520655356      -0.359070590684997      -0.359836660714640     
 -0.360602730744282      -0.361368800773923      -0.362134870803565     
 -0.362900940833208      -0.403583062728655      -0.404349132758297     
 -0.405115202787938      -0.405881272817581      -0.406647342847223     
 -0.407413412876864      -0.408179482906505      -0.408945552936148     
 -0.409711622965790      -0.410477692995432      -0.411243763025074     
 -0.455946781060227      -0.456712851089869      -0.457478921119511     
 -0.458244991149153      -0.459011061178795      -0.459777131208436     
 -0.460543201238079      -0.461309271267721      -0.462075341297362     
 -0.462841411327004      -0.463607481356646      -0.511505588412849     
 -0.512271658442491      -0.513037728472132      -0.513803798501774     
 -0.514569868531416      -0.515335938561059      -0.516102008590698     
 -0.516868078620342      -0.517634148649983      -0.518400218679625     
 -0.519166288709267      -0.569383289205344      -0.570149359234985     
 -0.570915429264629      -0.571681499294268      -0.572447569323911     
 -0.573213639353554      -0.573979709383196      -0.574745779412837     
 -0.575511849442479      -0.576277919472120      -0.577043989501762     
 -0.628667117521755      -0.629433187551396      -0.630199257581037     
 -0.630965327610680      -0.631731397640322      -0.632497467669963     
 -0.633263537699606      -0.634029607729248      -0.634795677758890     
 -0.635561747788531      -0.636327817818173      -0.688422131975087     
 -0.689188202004728      -0.689954272034369      -0.690720342064011     
 -0.691486412093653      -0.692252482123296      -0.693018552152938     
 -0.693784622182578      -0.694550692212224      -0.695316762241863     
 -0.696082832271505      -0.747705960291495      -0.748472030321137     
 -0.749238100350780      -0.750004170380420      -0.750770240410063     
 -0.751536310439707      -0.752302380469347      -0.753068450498990     
 -0.753834520528630      -0.754600590558271      -0.755366660587916     
 -0.805583661083991      -0.806349731113633      -0.807115801143276     
 -0.807881871172917      -0.808647941202560      -0.809414011232202     
 -0.810180081261842      -0.810946151291485      -0.811712221321126     
 -0.812478291350767      -0.813244361380412      -0.861142468436613     
 -0.861908538466254      -0.862674608495895      -0.863440678525539     
 -0.864206748555180      -0.864972818584822      -0.865738888614464     
 -0.866504958644107      -0.867271028673748      -0.868037098703391     
 -0.868803168733033      -0.913506186768185      -0.914272256797827     
 -0.915038326827469      -0.915804396857111      -0.916570466886753     
 -0.917336536916396      -0.918102606946037      -0.918868676975678     
 -0.919634747005320      -0.920400817034962      -0.921166887064603     
 -0.961849008960050      -0.962615078989692      -0.963381149019335     
 -0.964147219048977      -0.964913289078619      -0.965679359108262     
 -0.966445429137901      -0.967211499167545      -0.967977569197188     
 -0.968743639226828      -0.969509709256469       -1.00540853982764     
  -1.00617460985729       -1.00694067988693       -1.00770674991657     
  -1.00847281994621       -1.00923888997585       -1.01000496000550     
  -1.01077103003514       -1.01153710006478       -1.01230317009442     
  -1.01306924012406       -1.04349781954798       -1.04426388957762     
  -1.04502995960726       -1.04579602963690       -1.04656209966654     
  -1.04732816969619       -1.04809423972583       -1.04886030975547     
  -1.04962637978511       -1.05039244981475       -1.05115851984439     
  -1.07551615742643       -1.07628222745607       -1.07704829748571     
  -1.07781436751535       -1.07858043754500       -1.07934650757464     
  -1.08011257760428       -1.08087864763392       -1.08164471766357     
  -1.08241078769321       -1.08317685772285       -1.10095860514783     
  -1.10172467517747       -1.10249074520711       -1.10325681523676     
  -1.10402288526640       -1.10478895529604       -1.10555502532568     
  -1.10632109535533       -1.10708716538497       -1.10785323541461     
  -1.10861930544425       -1.11942392011303       -1.12018999014267     
  -1.12095606017231       -1.12172213020196       -1.12248820023160     
  -1.12325427026124       -1.12402034029088       -1.12478641032052     
  -1.12555248035016       -1.12631855037981       -1.12708462040945     
  -1.13062089327438       -1.13138696330403       -1.13215303333367     
  -1.13291910336331       -1.13368517339295       -1.13445124342259     
  -1.13521731345224       -1.13598338348188       -1.13674945351152     
  -1.13751552354116       -1.13828159357080       -1.13437294167639     
  -1.13513901170603       -1.13590508173568       -1.13667115176532     
  -1.13743722179496       -1.13820329182460       -1.13896936185424     
  -1.13973543188388       -1.14050150191353       -1.14126757194317     
  -1.14203364197281     
 -0.194012989075936      -0.175395031295053      -0.156777073514170     
 -0.138159115733286      -0.119541157952403      -0.100923200171520     
 -8.230524239063641E-002 -6.368728460975315E-002 -4.506932682887024E-002
 -2.645136904798666E-002 -7.833411267103543E-003 -0.194167373990993     
 -0.175549416210110      -0.156931458429227      -0.138313500648344     
 -0.119695542867460      -0.101077585086577      -8.245962730569364E-002
 -6.384166952481068E-002 -4.522371174392743E-002 -2.660575396304431E-002
 -7.987796182160794E-003 -0.194628093993830      -0.176010136212947     
 -0.157392178432063      -0.138774220651180      -0.120156262870297     
 -0.101538305089414      -8.292034730853012E-002 -6.430238952764729E-002
 -4.568443174676413E-002 -2.706647396588056E-002 -8.448516184997453E-003
 -0.195387883254780      -0.176769925473896      -0.158151967693013     
 -0.139534009912131      -0.120916052131247      -0.102298094350364     
 -8.368013656948074E-002 -6.506217878859728E-002 -4.644422100771398E-002
 -2.782626322683057E-002 -9.208305445947791E-003 -0.196434759443322     
 -0.177816801662440      -0.159198843881556      -0.140580886100673     
 -0.121962928319789      -0.103344970538906      -8.472701275802295E-002
 -6.610905497713987E-002 -4.749109719625651E-002 -2.887313941537352E-002
 -1.025518163449012E-002 -0.197752212696590      -0.179134254915707     
 -0.160516297134824      -0.141898339353941      -0.123280381573058     
 -0.104662423792174      -8.604446601129088E-002 -6.742650823040788E-002
 -4.880855044952437E-002 -3.019059266864102E-002 -1.157263488775768E-002
 -0.199319465989771      -0.180701508208888      -0.162083550428005     
 -0.143465592647122      -0.124847634866238      -0.106229677085355     
 -8.761171930447229E-002 -6.899376152358891E-002 -5.037580374270603E-002
 -3.175784596182248E-002 -1.313988818093932E-002 -0.201111802802200     
 -0.182493845021317      -0.163875887240434      -0.145257929459551     
 -0.126639971678667      -0.108022013897784      -8.940405611690115E-002
 -7.078609833601812E-002 -5.216814055513434E-002 -3.355018277425146E-002
 -1.493222499336826E-002 -0.203100956911655      -0.184482999130772     
 -0.165865041349888      -0.147247083569006      -0.128629125788123     
 -0.110011168007239      -9.139321022635537E-002 -7.277525244547230E-002
 -5.415729466458916E-002 -3.553933688370579E-002 -1.692137910282299E-002
 -0.205255558169566      -0.186637600388684      -0.168019642607800     
 -0.149401684826916      -0.130783727046033      -0.112165769265150     
 -9.354781148426690E-002 -7.492985370338404E-002 -5.631189592250046E-002
 -3.769393814161711E-002 -1.907598036073399E-002 -0.207541627227001     
 -0.188923669446117      -0.170305711665234      -0.151687753884351     
 -0.133069796103468      -0.114451838322585      -9.583388054170167E-002
 -7.721592276081721E-002 -5.859796497993500E-002 -3.998000719905121E-002
 -2.136204941816810E-002 -0.209923111409290      -0.191305153628407     
 -0.172687195847523      -0.154069238066640      -0.135451280285757     
 -0.116833322504875      -9.821536472399116E-002 -7.959740694310743E-002
 -6.097944916222423E-002 -4.236149138134145E-002 -2.374353360045874E-002
 -0.212362453288251      -0.193744495507368      -0.175126537726484     
 -0.156508579945602      -0.137890622164719      -0.119272664383836     
 -0.100654706602951      -8.203674882206861E-002 -6.341879104118586E-002
 -4.480083326030244E-002 -2.618287547941925E-002 -0.214821182985261     
 -0.196203225204377      -0.177585267423495      -0.158967309642611     
 -0.140349351861728      -0.121731394080844      -0.103113436299960     
 -8.449547851907876E-002 -6.587752073819456E-002 -4.725956295731087E-002
 -2.864160517642811E-002 -0.217260524864221      -0.198642567083339     
 -0.180024609302455      -0.161406651521572      -0.142788693740688     
 -0.124170735959806      -0.105552778178922      -8.693482039803778E-002
 -6.831686261715576E-002 -4.969890483627237E-002 -3.108094705538929E-002
 -0.219642009046512      -0.201024051265627      -0.182406093484745     
 -0.163788135703863      -0.145170177922979      -0.126552220142095     
 -0.107934262361213      -8.931630458032924E-002 -7.069834679944584E-002
 -5.208038901856264E-002 -3.346243123767914E-002 -0.221928078103946     
 -0.203310120323063      -0.184692162542179      -0.166074204761296     
 -0.147456246980412      -0.128838289199529      -0.110220331418645     
 -9.160237363776284E-002 -7.298441585687979E-002 -5.436645807599542E-002
 -3.574850029511390E-002 -0.224082679361857      -0.205464721580973     
 -0.186846763800090      -0.168228806019207      -0.149610848238324     
 -0.130992890457440      -0.112374932676557      -9.375697489567346E-002
 -7.513901711479086E-002 -5.652105933390751E-002 -3.790310155302507E-002
 -0.226071833471311      -0.207453875690427      -0.188835917909544     
 -0.170217960128662      -0.151600002347779      -0.132982044566895     
 -0.114364086786012      -9.574612900512885E-002 -7.712817122424599E-002
 -5.851021344336147E-002 -3.989225566247919E-002 -0.227864170283741     
 -0.209246212502856      -0.190628254721974      -0.172010296941090     
 -0.153392339160208      -0.134774381379323      -0.116156423598442     
 -9.753846581755811E-002 -7.892050803667355E-002 -6.030255025579118E-002
 -4.168459247490909E-002 -0.229431423576921      -0.210813465796038     
 -0.192195508015155      -0.173577550234271      -0.154959592453389     
 -0.136341634672506      -0.117723676891622      -9.910571911073833E-002
 -8.048776132985673E-002 -6.186980354897138E-002 -4.325184576808896E-002
 -0.230748876830190      -0.212130919049307      -0.193512961268421     
 -0.174895003487539      -0.156277045706658      -0.137659087925773     
 -0.119041130144889      -0.100423172364007      -8.180521458312480E-002
 -6.318725680223915E-002 -4.456929902135572E-002 -0.231795753018732     
 -0.213177795237849      -0.194559837456965      -0.175941879676082     
 -0.157323921895199      -0.138705964114316      -0.120088006333433     
 -0.101470048552549      -8.285209077166618E-002 -6.423413299078364E-002
 -4.561617520989911E-002 -0.232555542279683      -0.213937584498800     
 -0.195319626717916      -0.176701668937032      -0.158083711156149     
 -0.139465753375265      -0.120847795594383      -0.102229837813498     
 -8.361188003261623E-002 -6.499392225173149E-002 -4.637596447084900E-002
 -0.233016262282519      -0.214398304501636      -0.195780346720754     
 -0.177162388939869      -0.158544431158986      -0.139926473378101     
 -0.121308515597218      -0.102690557816336      -8.407260003545264E-002
 -6.545464225456907E-002 -4.683668447368662E-002 -0.233170647197577     
 -0.214552689416692      -0.195934731635811      -0.177316773854926     
 -0.158698816074043      -0.140080858293159      -0.121462900512277     
 -0.102844942731393      -8.422698495050977E-002 -6.560902716962652E-002
 -4.699106938874298E-002
  3.960717710078315E-002  3.564645939070483E-002  3.168574168062652E-002
  2.772502397054821E-002  2.376430626046989E-002  1.980358855039158E-002
  1.584287084031326E-002  1.188215313023495E-002  7.921435420156629E-003
  3.960717710078312E-003  0.000000000000000E+000  3.960717710078315E-002
  3.564645939070483E-002  3.168574168062652E-002  2.772502397054821E-002
  2.376430626046989E-002  1.980358855039158E-002  1.584287084031326E-002
  1.188215313023495E-002  7.921435420156629E-003  3.960717710078312E-003
  0.000000000000000E+000  3.960717710078315E-002  3.564645939070483E-002
  3.168574168062652E-002  2.772502397054821E-002  2.376430626046989E-002
  1.980358855039158E-002  1.584287084031326E-002  1.188215313023495E-002
  7.921435420156629E-003  3.960717710078312E-003  0.000000000000000E+000
  3.960717710078315E-002  3.564645939070483E-002  3.168574168062652E-002
  2.772502397054821E-002  2.376430626046989E-002  1.980358855039158E-002
  1.584287084031326E-002  1.188215313023495E-002  7.921435420156629E-003
  3.960717710078312E-003  0.000000000000000E+000  3.960717710078315E-002
  3.564645939070483E-002  3.168574168062652E-002  2.772502397054821E-002
  2.376430626046989E-002  1.980358855039158E-002  1.584287084031326E-002
  1.188215313023495E-002  7.921435420156629E-003  3.960717710078312E-003
  0.000000000000000E+000  3.960717710078315E-002  3.564645939070483E-002
  3.168574168062652E-002  2.772502397054821E-002  2.376430626046989E-002
  1.980358855039158E-002  1.584287084031326E-002  1.188215313023495E-002
  7.921435420156629E-003  3.960717710078312E-003  0.000000000000000E+000
  3.960717710078315E-002  3.564645939070483E-002  3.168574168062652E-002
  2.772502397054821E-002  2.376430626046989E-002  1.980358855039158E-002
  1.584287084031326E-002  1.188215313023495E-002  7.921435420156629E-003
  3.960717710078312E-003  0.000000000000000E+000  3.960717710078315E-002
  3.564645939070483E-002  3.168574168062652E-002  2.772502397054821E-002
  2.376430626046989E-002  1.980358855039158E-002  1.584287084031326E-002
  1.188215313023495E-002  7.921435420156629E-003  3.960717710078312E-003
  0.000000000000000E+000  3.960717710078315E-002  3.564645939070483E-002
  3.168574168062652E-002  2.772502397054821E-002  2.376430626046989E-002
  1.980358855039158E-002  1.584287084031326E-002  1.188215313023495E-002
  7.921435420156629E-003  3.960717710078312E-003  0.000000000000000E+000
  3.960717710078315E-002  3.564645939070483E-002  3.168574168062652E-002
  2.772502397054821E-002  2.376430626046989E-002  1.980358855039158E-002
  1.584287084031326E-002  1.188215313023495E-002  7.921435420156629E-003
  3.960717710078312E-003  0.000000000000000E+000  3.960717710078315E-002
  3.564645939070483E-002  3.168574168062652E-002  2.772502397054821E-002
  2.376430626046989E-002  1.980358855039158E-002  1.584287084031326E-002
  1.188215313023495E-002  7.921435420156629E-003  3.960717710078312E-003
  0.000000000000000E+000  3.960717710078315E-002  3.564645939070483E-002
  3.168574168062652E-002  2.772502397054821E-002  2.376430626046989E-002
  1.980358855039158E-002  1.584287084031326E-002  1.188215313023495E-002
  7.921435420156629E-003  3.960717710078312E-003  0.000000000000000E+000
  3.960717710078315E-002  3.564645939070483E-002  3.168574168062652E-002
  2.772502397054821E-002  2.376430626046989E-002  1.980358855039158E-002
  1.584287084031326E-002  1.188215313023495E-002  7.921435420156629E-003
  3.960717710078312E-003  0.000000000000000E+000  3.960717710078315E-002
  3.564645939070483E-002  3.168574168062652E-002  2.772502397054821E-002
  2.376430626046989E-002  1.980358855039158E-002  1.584287084031326E-002
  1.188215313023495E-002  7.921435420156629E-003  3.960717710078312E-003
  0.000000000000000E+000  3.960717710078315E-002  3.564645939070483E-002
  3.168574168062652E-002  2.772502397054821E-002  2.376430626046989E-002
  1.980358855039158E-002  1.584287084031326E-002  1.188215313023495E-002
  7.921435420156629E-003  3.960717710078312E-003  0.000000000000000E+000
  3.960717710078315E-002  3.564645939070483E-002  3.168574168062652E-002
  2.772502397054821E-002  2.376430626046989E-002  1.980358855039158E-002
  1.584287084031326E-002  1.188215313023495E-002  7.921435420156629E-003
  3.960717710078312E-003  0.000000000000000E+000  3.960717710078315E-002
  3.564645939070483E-002  3.168574168062652E-002  2.772502397054821E-002
  2.376430626046989E-002  1.980358855039158E-002  1.584287084031326E-002
  1.188215313023495E-002  7.921435420156629E-003  3.960717710078312E-003
  0.000000000000000E+000  3.960717710078315E-002  3.564645939070483E-002
  3.168574168062652E-002  2.772502397054821E-002  2.376430626046989E-002
  1.980358855039158E-002  1.584287084031326E-002  1.188215313023495E-002
  7.921435420156629E-003  3.960717710078312E-003  0.000000000000000E+000
  3.960717710078315E-002  3.564645939070483E-002  3.168574168062652E-002
  2.772502397054821E-002  2.376430626046989E-002  1.980358855039158E-002
  1.584287084031326E-002  1.188215313023495E-002  7.921435420156629E-003
  3.960717710078312E-003  0.000000000000000E+000  3.960717710078315E-002
  3.564645939070483E-002  3.168574168062652E-002  2.772502397054821E-002
  2.376430626046989E-002  1.980358855039158E-002  1.584287084031326E-002
  1.188215313023495E-002  7.921435420156629E-003  3.960717710078312E-003
  0.000000000000000E+000  3.960717710078315E-002  3.564645939070483E-002
  3.168574168062652E-002  2.772502397054821E-002  2.376430626046989E-002
  1.980358855039158E-002  1.584287084031326E-002  1.188215313023495E-002
  7.921435420156629E-003  3.960717710078312E-003  0.000000000000000E+000
  3.960717710078315E-002  3.564645939070483E-002  3.168574168062652E-002
  2.772502397054821E-002  2.376430626046989E-002  1.980358855039158E-002
  1.584287084031326E-002  1.188215313023495E-002  7.921435420156629E-003
  3.960717710078312E-003  0.000000000000000E+000  3.960717710078315E-002
  3.564645939070483E-002  3.168574168062652E-002  2.772502397054821E-002
  2.376430626046989E-002  1.980358855039158E-002  1.584287084031326E-002
  1.188215313023495E-002  7.921435420156629E-003  3.960717710078312E-003
  0.000000000000000E+000  3.960717710078315E-002  3.564645939070483E-002
  3.168574168062652E-002  2.772502397054821E-002  2.376430626046989E-002
  1.980358855039158E-002  1.584287084031326E-002  1.188215313023495E-002
  7.921435420156629E-003  3.960717710078312E-003  0.000000000000000E+000
  3.960717710078315E-002  3.564645939070483E-002  3.168574168062652E-002
  2.772502397054821E-002  2.376430626046989E-002  1.980358855039158E-002
  1.584287084031326E-002  1.188215313023495E-002  7.921435420156629E-003
  3.960717710078312E-003  0.000000000000000E+000  3.960717710078315E-002
  3.564645939070483E-002  3.168574168062652E-002  2.772502397054821E-002
  2.376430626046989E-002  1.980358855039158E-002  1.584287084031326E-002
  1.188215313023495E-002  7.921435420156629E-003  3.960717710078312E-003
  0.000000000000000E+000
  0.173031623368856       0.277897115029323       0.372976369338470     
  0.457663190503646       0.530079868212980       0.589399458302490     
  0.635152499199192       0.667706049727326       0.687142333323290     
  0.692917881014225       0.289363496536379       0.467735201372565     
  0.627477927630968       0.770371251811977       0.893576243426073     
  0.995176214992673        1.07397754545717        1.13037768167593     
   1.16487540525746        1.17914630394823       0.391004380890855     
  0.635762375596265       0.850896498326130        1.04533588679417     
   1.21643413334391        1.35975831296634        1.47258699801957     
   1.55438376957427        1.60544221682311        1.62650482280743     
  0.465314647411914       0.754807485014980        1.00743296143650     
   1.23791222644435        1.44429875994048        1.62044833636169     
   1.76129504201031        1.86389243535701        1.92539914460925     
   1.94311248359223       0.514519110661681       0.828285205819108     
   1.09992741229203        1.34772068090376        1.57135584358509     
   1.76482412748845        1.92159605659537        2.03534355120846     
   2.10009970130362        2.11183673372964       0.557832588458482     
  0.883065176337223        1.15704737400915        1.40363668197680     
   1.62505021477305        1.81596618110257        1.97029985201529     
   2.08129977264433        2.14220705675141        2.14729525426658     
  0.610104165088399       0.944544772011363        1.21197050346102     
   1.44112828561980        1.63853288768783        1.80715286542936     
   1.94403941556171        2.04306215036169        2.09723178322430     
   2.10098780601567       0.669262516744986        1.01472030524779     
   1.27559789543900        1.48770216229824        1.66323686950470     
   1.80868499426573        1.92594397968061        2.01230282141182     
   2.06354950554373        2.07542215894558       0.742432413701586     
   1.11030304952573        1.37903358678591        1.59266493110080     
   1.76693860912042        1.90926424307458        2.02309271403575     
   2.10917322012175        2.16598512440226        2.18916748030829     
  0.850281319038914        1.26229386844410        1.55824364394905     
   1.79096903240518        1.97967722798825        2.13344641805157     
   2.25688722741007        2.35187682074022        2.41781176115637     
   2.45057128060012       0.990846846288920        1.46460533619541     
   1.80137705346151        2.06430510332693        2.27663190176283     
   2.44947304992559        2.58864815969734        2.69686251094410     
   2.77409797336097        2.81631082094257        1.15470195033444     
   1.70188017180650        2.08789692735625        2.38749964657343     
   2.62848016594907        2.82429096153775        2.98213167305956     
   3.10558785913716        3.19517129158422        3.24679174468469     
   1.33489587187188        1.96332982825301        2.40403433891916     
   2.74434445628530        3.01698968014366        3.23797771660826     
   3.41601459695539        3.55562796738233        3.65787776408798     
   3.71863675000299        1.52716472237300        2.24226820494677     
   2.74117191062525        3.12458732671105        3.43049349088811     
   3.67763986315901        3.87637005590257        4.03224253275813     
   4.14692608242315        4.21632873055345        1.73073206013254     
   2.53689376317967        3.09633686718571        3.52402656439291     
   3.86356970914368        4.13669643424983        4.35557360481453     
   4.52694114075918        4.65320151393905        4.73043959644060     
   1.95127925140829        2.85392166170182        3.47593947875935     
   3.94819628519309        4.32068139329400        4.61854753641748     
   4.85608312850252        5.04143545317337        5.17792665458120     
   5.26200780883019        2.19961854881726        3.20625934494977     
   3.89278895848409        4.40909451725561        4.81294223617673     
   5.13363834497468        5.38798740504381        5.58577790174360     
   5.73142448387031        5.82188508555520        2.46594818901993     
   3.57831203538020        4.32689341191013        4.88339216201578     
   5.31455436978686        5.65440653494971        5.92253238286486     
   6.13050012060793        6.28394425792490        6.38048994443905     
   2.69170721800463        3.88671661348928        4.67907937170991     
   5.26050470200894        5.70602529503654        6.05399081474594     
   6.32655028594637        6.53696944113613        6.69217290485817     
   6.79095699124587        2.79963224748466        4.02026069496972     
   4.81546588125696        5.38960349018351        5.82332726965570     
   6.15798572528008        6.41740691866698        6.61584960158731     
   6.76105673779479        6.85333985494144        2.75314435948134     
   3.92253688635425        4.66609275194784        5.19207461313089     
   5.58302845533146        5.88094645826134        6.10963571221987     
   6.28306434582281        6.40878593474898        6.48794467331534     
   2.55299467237145        3.58907285933317        4.22532755590615     
   4.66542941782543        4.98818144156551        5.23223155363004     
   5.41886619829623        5.56045342975374        5.66385703458737     
   5.73031282288944        2.20089921474379        3.02369226655782     
   3.50975062041557        3.84124116929288        4.08331084172461     
   4.26637473937004        4.40694525147410        4.51506417346946     
   4.59798553155088        4.66188065522586        1.68116472479832     
   2.23624987936055        2.55975649545384        2.78095398189241     
   2.94315275000966        3.06631845755613        3.16132556119686     
   3.23485517010900        3.29189881549003        3.33940915778126     
   1.02170718055712        1.33251858751338        1.51536324371603     
   1.64108613226863        1.73359792134772        1.80399775151253     
   1.85832085196717        1.90012201626105        1.93143861731443     
   1.95181384596361     
  0.000000000000000E+000  0.000000000000000E+000  0.000000000000000E+000
  0.000000000000000E+000  0.000000000000000E+000  0.000000000000000E+000
  0.000000000000000E+000  0.000000000000000E+000  0.000000000000000E+000
  0.000000000000000E+000  0.000000000000000E+000  0.000000000000000E+000
  0.000000000000000E+000  0.000000000000000E+000  0.000000000000000E+000
  0.000000000000000E+000  0.000000000000000E+000  0.000000000000000E+000
  0.000000000000000E+000  0.000000000000000E+000  0.000000000000000E+000
  0.000000000000000E+000  0.000000000000000E+000  0.000000000000000E+000
  0.000000000000000E+000  0.000000000000000E+000  0.000000000000000E+000
  0.000000000000000E+000  0.000000000000000E+000  0.000000000000000E+000
  0.000000000000000E+000  0.000000000000000E+000  0.000000000000000E+000
  0.000000000000000E+000  0.000000000000000E+000  0.000000000000000E+000
  0.000000000000000E+000  0.000000000000000E+000  0.000000000000000E+000
  0.000000000000000E+000  0.000000000000000E+000  0.000000000000000E+000
  0.000000000000000E+000  0.000000000000000E+000  0.000000000000000E+000
  0.000000000000000E+000  0.000000000000000E+000  0.000000000000000E+000
  0.000000000000000E+000  0.000000000000000E+000  0.000000000000000E+000
  0.000000000000000E+000  0.000000000000000E+000  0.000000000000000E+000
  0.000000000000000E+000  0.000000000000000E+000  0.000000000000000E+000
  0.000000000000000E+000  0.000000000000000E+000  0.000000000000000E+000
  0.000000000000000E+000  0.000000000000000E+000  0.000000000000000E+000
  0.000000000000000E+000  0.000000000000000E+000  0.000000000000000E+000
  0.000000000000000E+000  0.000000000000000E+000  0.000000000000000E+000
  0.000000000000000E+000  0.000000000000000E+000  0.000000000000000E+000
  0.000000000000000E+000  0.000000000000000E+000  0.000000000000000E+000
  0.000000000000000E+000  0.000000000000000E+000  0.000000000000000E+000
  0.000000000000000E+000  0.000000000000000E+000  0.000000000000000E+000
  0.000000000000000E+000  0.000000000000000E+000  0.000000000000000E+000
  0.000000000000000E+000  0.000000000000000E+000  0.000000000000000E+000
  0.000000000000000E+000  0.000000000000000E+000  0.000000000000000E+000
  0.000000000000000E+000  0.000000000000000E+000  0.000000000000000E+000
  0.000000000000000E+000  0.000000000000000E+000  0.000000000000000E+000
  0.000000000000000E+000  0.000000000000000E+000  0.000000000000000E+000
  0.000000000000000E+000  0.000000000000000E+000  0.000000000000000E+000
  0.000000000000000E+000  0.000000000000000E+000  0.000000000000000E+000
  0.000000000000000E+000  0.000000000000000E+000  0.000000000000000E+000
  0.000000000000000E+000  0.000000000000000E+000  0.000000000000000E+000
  0.000000000000000E+000  0.000000000000000E+000  0.000000000000000E+000
  0.000000000000000E+000  0.000000000000000E+000  0.000000000000000E+000