 Title = "Wing and Wake"
 VARIABLES = "X" "Y" "Z" "GAM" "skew"
 Zone I=   11 J=   26 K=1  T="Blade"
 DATAPACKING=BLOCK
 VARLOCATION=([4]=CELLCENTERED,[5]=CELLCENTERED)
  0.259366931077139       0.243624486002973       0.227882040928807     
  0.212139595854640       0.196397150780474       0.180654705706308     
  0.164912260632142       0.149169815557975       0.133427370483809     
  0.117684925409643       0.101942480335477       0.261376066130908     
  0.245633621056742       0.229891175982576       0.214148730908410     
  0.198406285834243       0.182663840760077       0.166921395685911     
  0.151178950611744       0.135436505537578       0.119694060463412     
  0.103951615389246       0.267371786032219       0.251629340958053     
  0.235886895883886       0.220144450809720       0.204402005735554     
  0.188659560661387       0.172917115587221       0.157174670513055     
  0.141432225438889       0.125689780364722       0.109947335290556     
  0.277259534696557       0.261517089622391       0.245774644548225     
  0.230032199474059       0.214289754399892       0.198547309325726     
  0.182804864251560       0.167062419177393       0.151319974103227     
  0.135577529029061       0.119835083954895       0.290883376420832     
  0.275140931346666       0.259398486272500       0.243656041198333     
  0.227913596124167       0.212171151050001       0.196428705975835     
  0.180686260901669       0.164943815827502       0.149201370753336     
  0.133458925679170       0.308028455082564       0.292286010008398     
  0.276543564934231       0.260801119860065       0.245058674785899     
  0.229316229711733       0.213573784637566       0.197831339563400     
  0.182088894489234       0.166346449415067       0.150604004340901     
  0.328424382549282       0.312681937475116       0.296939492400950     
  0.281197047326784       0.265454602252618       0.249712157178452     
  0.233969712104285       0.218227267030119       0.202484821955953     
  0.186742376881786       0.170999931807620       0.351749502860903     
  0.336007057786736       0.320264612712570       0.304522167638403     
  0.288779722564237       0.273037277490071       0.257294832415905     
  0.241552387341738       0.225809942267572       0.210067497193406     
  0.194325052119240       0.377635964936357       0.361893519862190     
  0.346151074788024       0.330408629713858       0.314666184639692     
  0.298923739565525       0.283181294491359       0.267438849417193     
  0.251696404343027       0.235953959268860       0.220211514194694     
  0.405675523804893       0.389933078730727       0.374190633656561     
  0.358448188582394       0.342705743508228       0.326963298434062     
  0.311220853359896       0.295478408285730       0.279735963211563     
  0.263993518137397       0.248251073063231       0.435425978873135     
  0.419683533798969       0.403941088724802       0.388198643650636     
  0.372456198576470       0.356713753502304       0.340971308428137     
  0.325228863353971       0.309486418279805       0.293743973205639     
  0.278001528131472       0.466418147692594       0.450675702618428     
  0.434933257544262       0.419190812470095       0.403448367395929     
  0.387705922321763       0.371963477247597       0.356221032173431     
  0.340478587099264       0.324736142025098       0.308993696950932     
  0.498163265247165       0.482420820172999       0.466678375098832     
  0.450935930024666       0.435193484950500       0.419451039876334     
  0.403708594802167       0.387966149728001       0.372223704653835     
  0.356481259579669       0.340738814505502       0.530160692069397     
  0.514418246995231       0.498675801921065       0.482933356846898     
  0.467190911772732       0.451448466698565       0.435706021624400     
  0.419963576550233       0.404221131476067       0.388478686401901     
  0.372736241327734       0.561905809623968       0.546163364549802     
  0.530420919475635       0.514678474401469       0.498936029327302     
  0.483193584253137       0.467451139178970       0.451708694104803     
  0.435966249030637       0.420223803956471       0.404481358882305     
  0.592897978443427       0.577155533369260       0.561413088295095     
  0.545670643220929       0.529928198146762       0.514185753072596     
  0.498443307998430       0.482700862924264       0.466958417850098     
  0.451215972775930       0.435473527701765       0.622648433511669     
  0.606905988437503       0.591163543363336       0.575421098289170     
  0.559678653215003       0.543936208140837       0.528193763066671     
  0.512451317992505       0.496708872918338       0.480966427844172     
  0.465223982770006       0.650687992380205       0.634945547306038     
  0.619203102231873       0.603460657157706       0.587718212083540     
  0.571975767009374       0.556233321935207       0.540490876861041     
  0.524748431786875       0.509005986712709       0.493263541638542     
  0.676574454455659       0.660832009381493       0.645089564307327     
  0.629347119233161       0.613604674158995       0.597862229084829     
  0.582119784010662       0.566377338936496       0.550634893862330     
  0.534892448788163       0.519150003713997       0.699899574767279     
  0.684157129693113       0.668414684618946       0.652672239544780     
  0.636929794470614       0.621187349396447       0.605444904322282     
  0.589702459248116       0.573960014173949       0.558217569099783     
  0.542475124025616       0.720295502233998       0.704553057159832     
  0.688810612085665       0.673068167011499       0.657325721937333     
  0.641583276863167       0.625840831789001       0.610098386714834     
  0.594355941640668       0.578613496566501       0.562871051492336     
  0.737440580895730       0.721698135821564       0.705955690747396     
  0.690213245673231       0.674470800599066       0.658728355524899     
  0.642985910450732       0.627243465376566       0.611501020302400     
  0.595758575228233       0.580016130154066       0.751064422620004     
  0.735321977545838       0.719579532471672       0.703837087397505     
  0.688094642323339       0.672352197249173       0.656609752175007     
  0.640867307100842       0.625124862026675       0.609382416952508     
  0.593639971878341       0.760952171284343       0.745209726210178     
  0.729467281136010       0.713724836061845       0.697982390987678     
  0.682239945913512       0.666497500839346       0.650755055765179     
  0.635012610691013       0.619270165616847       0.603527720542680     
  0.766947891185652       0.751205446111488       0.735463001037322     
  0.719720555963154       0.703978110888989       0.688235665814822     
  0.672493220740655       0.656750775666489       0.641008330592323     
  0.625265885518157       0.609523440443991       0.768957026239422     
  0.753214581165256       0.737472136091091       0.721729691016924     
  0.705987245942757       0.690244800868592       0.674502355794425     
  0.658759910720258       0.643017465646093       0.627275020571926     
  0.611532575497761     
 -6.127874131657212E-002 -7.124822667480056E-002 -8.121771203302884E-002
 -9.118719739125704E-002 -0.101156682749486      -0.111126168107714     
 -0.121095653465942      -0.131065138824170      -0.141034624182399     
 -0.151004109540627      -0.160973594898855      -6.445129206458419E-002
 -7.442077742281264E-002 -8.439026278104100E-002 -9.435974813926935E-002
 -0.104329233497498      -0.114298718855726      -0.124268204213954     
 -0.134237689572182      -0.144207174930411      -0.154176660288639     
 -0.164146145646867      -7.391891128813421E-002 -8.388839664636275E-002
 -9.385788200459109E-002 -0.103827367362819      -0.113796852721048     
 -0.123766338079276      -0.133735823437504      -0.143705308795733     
 -0.153674794153961      -0.163644279512189      -0.173613764870417     
 -8.953228897638574E-002 -9.950177433461418E-002 -0.109471259692843     
 -0.119440745051071      -0.129410230409299      -0.139379715767527     
 -0.149349201125756      -0.159318686483984      -0.169288171842212     
 -0.179257657200441      -0.189227142558669      -0.111045192836214     
 -0.121014678194443      -0.130984163552671      -0.140953648910899     
 -0.150923134269128      -0.160892619627356      -0.170862104985585     
 -0.180831590343813      -0.190801075702041      -0.200770561060269     
 -0.210740046418498      -0.138118351522565      -0.148087836880794     
 -0.158057322239022      -0.168026807597250      -0.177996292955479     
 -0.187965778313708      -0.197935263671935      -0.207904749030164     
 -0.217874234388392      -0.227843719746620      -0.237813205104849     
 -0.170324805150234      -0.180294290508462      -0.190263775866690     
 -0.200233261224919      -0.210202746583148      -0.220172231941376     
 -0.230141717299604      -0.240111202657832      -0.250080688016060     
 -0.260050173374289      -0.270019658732517      -0.207156638706309     
 -0.217126124064537      -0.227095609422766      -0.237065094780994     
 -0.247034580139222      -0.257004065497450      -0.266973550855679     
 -0.276943036213907      -0.286912521572135      -0.296882006930363     
 -0.306851492288592      -0.248032992173340      -0.258002477531568     
 -0.267971962889797      -0.277941448248025      -0.287910933606253     
 -0.297880418964481      -0.307849904322710      -0.317819389680938     
 -0.327788875039167      -0.337758360397395      -0.347727845755623     
 -0.292309221038802      -0.302278706397030      -0.312248191755258     
 -0.322217677113487      -0.332187162471715      -0.342156647829943     
 -0.352126133188171      -0.362095618546400      -0.372065103904628     
 -0.382034589262857      -0.392004074621085      -0.339287062724149     
 -0.349256548082378      -0.359226033440606      -0.369195518798835     
 -0.379165004157063      -0.389134489515292      -0.399103974873519     
 -0.409073460231748      -0.419042945589976      -0.429012430948204     
 -0.438981916306432      -0.388225648602803      -0.398195133961031     
 -0.408164619319259      -0.418134104677487      -0.428103590035716     
 -0.438073075393944      -0.448042560752172      -0.458012046110401     
 -0.467981531468629      -0.477951016826857      -0.487920502185086     
 -0.438353187940961      -0.448322673299189      -0.458292158657416     
 -0.468261644015645      -0.478231129373874      -0.488200614732102     
 -0.498170100090330      -0.508139585448559      -0.518109070806786     
 -0.528078556165015      -0.538048041523244      -0.488879139498520     
 -0.498848624856749      -0.508818110214976      -0.518787595573204     
 -0.528757080931433      -0.538726566289661      -0.548696051647891     
 -0.558665537006118      -0.568635022364347      -0.578604507722575     
 -0.588573993080803      -0.539006678836678      -0.548976164194906     
 -0.558945649553135      -0.568915134911362      -0.578884620269591     
 -0.588854105627819      -0.598823590986047      -0.608793076344276     
 -0.618762561702504      -0.628732047060732      -0.638701532418962     
 -0.587945264715331      -0.597914750073559      -0.607884235431788     
 -0.617853720790015      -0.627823206148244      -0.637792691506472     
 -0.647762176864700      -0.657731662222929      -0.667701147581157     
 -0.677670632939385      -0.687640118297614      -0.634923106400679     
 -0.644892591758907      -0.654862077117135      -0.664831562475364     
 -0.674801047833591      -0.684770533191820      -0.694740018550048     
 -0.704709503908277      -0.714678989266505      -0.724648474624734     
 -0.734617959982962      -0.679199335266141      -0.689168820624368     
 -0.699138305982597      -0.709107791340825      -0.719077276699054     
 -0.729046762057282      -0.739016247415511      -0.748985732773738     
 -0.758955218131967      -0.768924703490195      -0.778894188848423     
 -0.720075688733171      -0.730045174091399      -0.740014659449628     
 -0.749984144807855      -0.759953630166085      -0.769923115524313     
 -0.779892600882541      -0.789862086240769      -0.799831571598998     
 -0.809801056957227      -0.819770542315454      -0.756907522289246     
 -0.766877007647475      -0.776846493005702      -0.786815978363932     
 -0.796785463722159      -0.806754949080388      -0.816724434438615     
 -0.826693919796845      -0.836663405155073      -0.846632890513301     
 -0.856602375871528      -0.789113975916915      -0.799083461275143     
 -0.809052946633371      -0.819022431991598      -0.828991917349828     
 -0.838961402708055      -0.848930888066285      -0.858900373424514     
 -0.868869858782741      -0.878839344140969      -0.888808829499198     
 -0.816187134603265      -0.826156619961494      -0.836126105319721     
 -0.846095590677952      -0.856065076036179      -0.866034561394408     
 -0.876004046752636      -0.885973532110864      -0.895943017469092     
 -0.905912502827321      -0.915881988185550      -0.837700038463094     
 -0.847669523821322      -0.857639009179551      -0.867608494537778     
 -0.877577979896007      -0.887547465254236      -0.897516950612464     
 -0.907486435970693      -0.917455921328921      -0.927425406687149     
 -0.937394892045378      -0.853313416151346      -0.863282901509574     
 -0.873252386867802      -0.883221872226031      -0.893191357584259     
 -0.903160842942488      -0.913130328300715      -0.923099813658944     
 -0.933069299017172      -0.943038784375401      -0.953008269733629     
 -0.862781035374895      -0.872750520733123      -0.882720006091352     
 -0.892689491449580      -0.902658976807809      -0.912628462166038     
 -0.922597947524265      -0.932567432882494      -0.942536918240722     
 -0.952506403598950      -0.962475888957179      -0.865953586122907     
 -0.875923071481135      -0.885892556839363      -0.895862042197594     
 -0.905831527555821      -0.915801012914049      -0.925770498272278     
 -0.935739983630504      -0.945709468988734      -0.955678954346962     
 -0.965648439705192     
  3.960717710078315E-002  3.564645939070483E-002  3.168574168062652E-002
  2.772502397054821E-002  2.376430626046989E-002  1.980358855039158E-002
  1.584287084031326E-002  1.188215313023495E-002  7.921435420156629E-003
  3.960717710078312E-003  0.000000000000000E+000  3.960717710078315E-002
  3.564645939070483E-002  3.168574168062652E-002  2.772502397054821E-002
  2.376430626046989E-002  1.980358855039158E-002  1.584287084031326E-002
  1.188215313023495E-002  7.921435420156629E-003  3.960717710078312E-003
  0.000000000000000E+000  3.960717710078315E-002  3.564645939070483E-002
  3.168574168062652E-002  2.772502397054821E-002  2.376430626046989E-002
  1.980358855039158E-002  1.584287084031326E-002  1.188215313023495E-002
  7.921435420156629E-003  3.960717710078312E-003  0.000000000000000E+000
  3.960717710078315E-002  3.564645939070483E-002  3.168574168062652E-002
  2.772502397054821E-002  2.376430626046989E-002  1.980358855039158E-002
  1.584287084031326E-002  1.188215313023495E-002  7.921435420156629E-003
  3.960717710078312E-003  0.000000000000000E+000  3.960717710078315E-002
  3.564645939070483E-002  3.168574168062652E-002  2.772502397054821E-002
  2.376430626046989E-002  1.980358855039158E-002  1.584287084031326E-002
  1.188215313023495E-002  7.921435420156629E-003  3.960717710078312E-003
  0.000000000000000E+000  3.960717710078315E-002  3.564645939070483E-002
  3.168574168062652E-002  2.772502397054821E-002  2.376430626046989E-002
  1.980358855039158E-002  1.584287084031326E-002  1.188215313023495E-002
  7.921435420156629E-003  3.960717710078312E-003  0.000000000000000E+000
  3.960717710078315E-002  3.564645939070483E-002  3.168574168062652E-002
  2.772502397054821E-002  2.376430626046989E-002  1.980358855039158E-002
  1.584287084031326E-002  1.188215313023495E-002  7.921435420156629E-003
  3.960717710078312E-003  0.000000000000000E+000  3.960717710078315E-002
  3.564645939070483E-002  3.168574168062652E-002  2.772502397054821E-002
  2.376430626046989E-002  1.980358855039158E-002  1.584287084031326E-002
  1.188215313023495E-002  7.921435420156629E-003  3.960717710078312E-003
  0.000000000000000E+000  3.960717710078315E-002  3.564645939070483E-002
  3.168574168062652E-002  2.772502397054821E-002  2.376430626046989E-002
  1.980358855039158E-002  1.584287084031326E-002  1.188215313023495E-002
  7.921435420156629E-003  3.960717710078312E-003  0.000000000000000E+000
  3.960717710078315E-002  3.564645939070483E-002  3.168574168062652E-002
  2.772502397054821E-002  2.376430626046989E-002  1.980358855039158E-002
  1.584287084031326E-002  1.188215313023495E-002  7.921435420156629E-003
  3.960717710078312E-003  0.000000000000000E+000  3.960717710078315E-002
  3.564645939070483E-002  3.168574168062652E-002  2.772502397054821E-002
  2.376430626046989E-002  1.980358855039158E-002  1.584287084031326E-002
  1.188215313023495E-002  7.921435420156629E-003  3.960717710078312E-003
  0.000000000000000E+000  3.960717710078315E-002  3.564645939070483E-002
  3.168574168062652E-002  2.772502397054821E-002  2.376430626046989E-002
  1.980358855039158E-002  1.584287084031326E-002  1.188215313023495E-002
  7.921435420156629E-003  3.960717710078312E-003  0.000000000000000E+000
  3.960717710078315E-002  3.564645939070483E-002  3.168574168062652E-002
  2.772502397054821E-002  2.376430626046989E-002  1.980358855039158E-002
  1.584287084031326E-002  1.188215313023495E-002  7.921435420156629E-003
  3.960717710078312E-003  0.000000000000000E+000  3.960717710078315E-002
  3.564645939070483E-002  3.168574168062652E-002  2.772502397054821E-002
  2.376430626046989E-002  1.980358855039158E-002  1.584287084031326E-002
  1.188215313023495E-002  7.921435420156629E-003  3.960717710078312E-003
  0.000000000000000E+000  3.960717710078315E-002  3.564645939070483E-002
  3.168574168062652E-002  2.772502397054821E-002  2.376430626046989E-002
  1.980358855039158E-002  1.584287084031326E-002  1.188215313023495E-002
  7.921435420156629E-003  3.960717710078312E-003  0.000000000000000E+000
  3.960717710078315E-002  3.564645939070483E-002  3.168574168062652E-002
  2.772502397054821E-002  2.376430626046989E-002  1.980358855039158E-002
  1.584287084031326E-002  1.188215313023495E-002  7.921435420156629E-003
  3.960717710078312E-003  0.000000000000000E+000  3.960717710078315E-002
  3.564645939070483E-002  3.168574168062652E-002  2.772502397054821E-002
  2.376430626046989E-002  1.980358855039158E-002  1.584287084031326E-002
  1.188215313023495E-002  7.921435420156629E-003  3.960717710078312E-003
  0.000000000000000E+000  3.960717710078315E-002  3.564645939070483E-002
  3.168574168062652E-002  2.772502397054821E-002  2.376430626046989E-002
  1.980358855039158E-002  1.584287084031326E-002  1.188215313023495E-002
  7.921435420156629E-003  3.960717710078312E-003  0.000000000000000E+000
  3.960717710078315E-002  3.564645939070483E-002  3.168574168062652E-002
  2.772502397054821E-002  2.376430626046989E-002  1.980358855039158E-002
  1.584287084031326E-002  1.188215313023495E-002  7.921435420156629E-003
  3.960717710078312E-003  0.000000000000000E+000  3.960717710078315E-002
  3.564645939070483E-002  3.168574168062652E-002  2.772502397054821E-002
  2.376430626046989E-002  1.980358855039158E-002  1.584287084031326E-002
  1.188215313023495E-002  7.921435420156629E-003  3.960717710078312E-003
  0.000000000000000E+000  3.960717710078315E-002  3.564645939070483E-002
  3.168574168062652E-002  2.772502397054821E-002  2.376430626046989E-002
  1.980358855039158E-002  1.584287084031326E-002  1.188215313023495E-002
  7.921435420156629E-003  3.960717710078312E-003  0.000000000000000E+000
  3.960717710078315E-002  3.564645939070483E-002  3.168574168062652E-002
  2.772502397054821E-002  2.376430626046989E-002  1.980358855039158E-002
  1.584287084031326E-002  1.188215313023495E-002  7.921435420156629E-003
  3.960717710078312E-003  0.000000000000000E+000  3.960717710078315E-002
  3.564645939070483E-002  3.168574168062652E-002  2.772502397054821E-002
  2.376430626046989E-002  1.980358855039158E-002  1.584287084031326E-002
  1.188215313023495E-002  7.921435420156629E-003  3.960717710078312E-003
  0.000000000000000E+000  3.960717710078315E-002  3.564645939070483E-002
  3.168574168062652E-002  2.772502397054821E-002  2.376430626046989E-002
  1.980358855039158E-002  1.584287084031326E-002  1.188215313023495E-002
  7.921435420156629E-003  3.960717710078312E-003  0.000000000000000E+000
  3.960717710078315E-002  3.564645939070483E-002  3.168574168062652E-002
  2.772502397054821E-002  2.376430626046989E-002  1.980358855039158E-002
  1.584287084031326E-002  1.188215313023495E-002  7.921435420156629E-003
  3.960717710078312E-003  0.000000000000000E+000  3.960717710078315E-002
  3.564645939070483E-002  3.168574168062652E-002  2.772502397054821E-002
  2.376430626046989E-002  1.980358855039158E-002  1.584287084031326E-002
  1.188215313023495E-002  7.921435420156629E-003  3.960717710078312E-003
  0.000000000000000E+000
  0.108252280867185       0.157411516327396       0.196013806857471     
  0.229485912826927       0.258995668724408       0.284822662110642     
  0.306997017149215       0.325582275588643       0.340547094608113     
  0.351273492027589       0.181848731994207       0.267768726964949     
  0.334189958457674       0.391249464279013       0.441343765756954     
  0.485152546055414       0.522876497462403       0.554703317473760     
  0.580843607218972       0.601617815881373       0.250789978630672     
  0.376066330680787       0.471465679163999       0.551998833805153     
  0.622028509918930       0.683106666759461       0.735911601563612     
  0.780904633620280       0.818563611876107       0.848652049576591     
  0.314828759965394       0.476349088464451       0.599020807830429     
  0.701254083811669       0.789202524094632       0.865393957032290     
  0.930998824186619       0.986626215877474        1.03242478938869     
   1.06637790525486       0.378512924911021       0.573407298939101     
  0.721024670241681       0.843085189696051       0.947176226071078     
   1.03668627047239        1.11330011737687        1.17776599267331     
   1.22980544755622        1.26664540519221       0.446297229846132     
  0.674162356747521       0.845516120269606       0.986186215422051     
   1.10531579404392        1.20708953551112        1.29354253501821     
   1.36548635960468        1.42256821866796        1.46175646399163     
  0.523371705122221       0.786880943823398       0.982925949418803     
   1.14246126305613        1.27650825174521        1.39018925450445     
   1.48610423760395        1.56531890871358        1.62740071721170     
   1.66900913166794       0.615311144464076       0.920259872613374     
   1.14428587031120        1.32475910965757        1.47517377058963     
   1.60186638513274        1.70806179055559        1.79513268681832     
   1.86273458928484        1.90731858090579       0.726287290575009     
   1.08100081094986        1.33842830541480        1.54373555295469     
   1.71341904624983        1.85530276734395        1.97344324667732     
   2.06968816539453        2.14387696579669        2.19224853827499     
  0.858212607499593        1.27228470433797        1.56960408603665     
   1.80453489696428        1.99715018873017        2.15709377224730     
   2.28944998754050        2.39664233833662        2.47874265456294     
   2.53180126834963        1.01061619357035        1.49351133023627     
   1.83721069556701        2.10666254168747        2.32603454649137     
   2.50704568557015        2.65596457329021        2.77589369049558     
   2.86722010249660        2.92584503166132        1.18134992038659     
   1.74153801458548        2.13741832711829        2.44573201895358     
   2.69520563070774        2.89987457162716        3.06734020223410     
   3.20150314161703        3.30315548972833        3.36808192440352     
   1.36750529720712        2.01193522578590        2.46461167084358     
   2.81512155736028        3.09715956132957        3.32730345809736     
   3.51464766331657        3.66400685460199        3.77665312245647     
   3.84829901547687        1.56629701051571        2.30029904106737     
   2.81302258832125        3.20782275519479        3.52375663053680     
   3.78018236084619        3.98784453900256        4.15258094674408     
   4.27624092846311        4.35456848169068        1.77666034812665     
   2.60438161043231        3.17911068633162        3.61897546894928     
   3.96884586228502        4.25113107372323        4.47842280114256     
   4.65774340775164        4.79166078583586        4.87610583804859     
   2.00045424132133        2.92553863545089        3.56304888337347     
   4.04732375903034        4.42971165925045        4.73607150641209     
   4.98111569398669        5.17325879197978        5.31596447951131     
   5.40554437057124        2.23739008661161        3.26159253382078     
   3.96042891683457        4.48631660163688        4.89795535320141     
   5.22513613540592        5.48497431189460        5.68746278157890     
   5.83711859922713        5.93081603001097        2.46703458665650     
   3.58230826487474        4.33423473694786        4.89390477535708     
   5.32772967189260        5.66963058737865        5.93921763247196     
   6.14810948507511        6.30195929545464        6.39841801348797     
   2.64019222033231        3.81695955405144        4.59960236659466     
   5.17486552636892        5.61580827269821        5.95995080546761     
   6.22906815625469        6.43618960949004        6.58805075628534     
   6.68346892460744        2.70567574087568        3.89046140829529     
   4.66495773774445        5.22528350356150        5.64881866007150     
   5.97540618408819        6.22810808305065        6.42070931258677     
   6.56061496589230        6.64806575185269        2.64015462655399     
   3.76542662405840        4.48300090746059        4.99159713906358     
   5.36991582989363        5.65804934921340        5.87878442518897     
   6.04549805873384        6.16538529008655        6.23951953461843     
   2.44063763142607        3.43351556867084        4.04457584915089     
   4.46791200787959        4.77855848827326        5.01331589591278     
   5.19246919124357        5.32781029473553        5.42587508111895     
   5.48787449167174        2.10193485281191        2.88907095862676     
   3.35484568324130        3.67287390382042        3.90518371774395     
   4.08072001174779        4.21519968267661        4.31818544018441     
   4.39659348684645        4.45637489263277        1.60518897512697     
   2.13588604865111        2.44560251650145        2.65755895010257     
   2.81299164299593        2.93089624821477        3.02161796583511     
   3.09151557034331        3.14534745336449        3.18979461993373     
  0.975508330188577        1.27261811326089        1.44762027451207     
   1.56804415255499        1.65665392874977        1.72400816741763     
   1.77584714782681        1.81555304998970        1.84506712900461     
   1.86397709541740     
  0.000000000000000E+000  0.000000000000000E+000  0.000000000000000E+000
  0.000000000000000E+000  0.000000000000000E+000  0.000000000000000E+000
  0.000000000000000E+000  0.000000000000000E+000  0.000000000000000E+000
  0.000000000000000E+000  0.000000000000000E+000  0.000000000000000E+000
  0.000000000000000E+000  0.000000000000000E+000  0.000000000000000E+000
  0.000000000000000E+000  0.000000000000000E+000  0.000000000000000E+000
  0.000000000000000E+000  0.000000000000000E+000  0.000000000000000E+000
  0.000000000000000E+000  0.000000000000000E+000  0.000000000000000E+000
  0.000000000000000E+000  0.000000000000000E+000  0.000000000000000E+000
  0.000000000000000E+000  0.000000000000000E+000  0.000000000000000E+000
  0.000000000000000E+000  0.000000000000000E+000  0.000000000000000E+000
  0.000000000000000E+000  0.000000000000000E+000  0.000000000000000E+000
  0.000000000000000E+000  0.000000000000000E+000  0.000000000000000E+000
  0.000000000000000E+000  0.000000000000000E+000  0.000000000000000E+000
  0.000000000000000E+000  0.000000000000000E+000  0.000000000000000E+000
  0.000000000000000E+000  0.000000000000000E+000  0.000000000000000E+000
  0.000000000000000E+000  0.000000000000000E+000  0.000000000000000E+000
  0.000000000000000E+000  0.000000000000000E+000  0.000000000000000E+000
  0.000000000000000E+000  0.000000000000000E+000  0.000000000000000E+000
  0.000000000000000E+000  0.000000000000000E+000  0.000000000000000E+000
  0.000000000000000E+000  0.000000000000000E+000  0.000000000000000E+000
  0.000000000000000E+000  0.000000000000000E+000  0.000000000000000E+000
  0.000000000000000E+000  0.000000000000000E+000  0.000000000000000E+000
  0.000000000000000E+000  0.000000000000000E+000  0.000000000000000E+000
  0.000000000000000E+000  0.000000000000000E+000  0.000000000000000E+000
  0.000000000000000E+000  0.000000000000000E+000  0.000000000000000E+000
  0.000000000000000E+000  0.000000000000000E+000  0.000000000000000E+000
  0.000000000000000E+000  0.000000000000000E+000  0.000000000000000E+000
  0.000000000000000E+000  0.000000000000000E+000  0.000000000000000E+000
  0.000000000000000E+000  0.000000000000000E+000  0.000000000000000E+000
  0.000000000000000E+000  0.000000000000000E+000  0.000000000000000E+000
  0.000000000000000E+000  0.000000000000000E+000  0.000000000000000E+000
  0.000000000000000E+000  0.000000000000000E+000  0.000000000000000E+000
  0.000000000000000E+000  0.000000000000000E+000  0.000000000000000E+000
  0.000000000000000E+000  0.000000000000000E+000  0.000000000000000E+000
  0.000000000000000E+000  0.000000000000000E+000  0.000000000000000E+000
  0.000000000000000E+000  0.000000000000000E+000  0.000000000000000E+000
  0.000000000000000E+000  0.000000000000000E+000  0.000000000000000E+000
  0.000000000000000E+000  0.000000000000000E+000  0.000000000000000E+000