 Title = "Wing and Wake"
 VARIABLES = "X" "Y" "Z" "GAM" "skew"
 Zone I=   11 J=   26 K=1  T="Blade"
 DATAPACKING=BLOCK
 VARLOCATION=([4]=CELLCENTERED,[5]=CELLCENTERED)
 -0.216165280968747      -0.197805834544976      -0.179446388121204     
 -0.161086941697432      -0.142727495273661      -0.124368048849889     
 -0.106008602426118      -8.764915600234612E-002 -6.928970957857475E-002
 -5.093026315480303E-002 -3.257081673103154E-002 -0.216807203447079     
 -0.198447757023307      -0.180088310599535      -0.161728864175764     
 -0.143369417751992      -0.125009971328221      -0.106650524904449     
 -8.829107848067762E-002 -6.993163205690607E-002 -5.157218563313464E-002
 -3.321273920936293E-002 -0.218722847381124      -0.200363400957352     
 -0.182003954533581      -0.163644508109809      -0.145285061686038     
 -0.126925615262266      -0.108566168838494      -9.020672241472293E-002
 -7.184727599095127E-002 -5.348782956717963E-002 -3.512838314340821E-002
 -0.221882001921693      -0.203522555497921      -0.185163109074149     
 -0.166803662650378      -0.148444216226607      -0.130084769802835     
 -0.111725323379063      -9.336587695529172E-002 -7.500643053152020E-002
 -5.664698410774856E-002 -3.828753768397709E-002 -0.226234845314493     
 -0.207875398890721      -0.189515952466950      -0.171156506043178     
 -0.152797059619407      -0.134437613195635      -0.116078166771864     
 -9.771872034809197E-002 -7.935927392432042E-002 -6.099982750054892E-002
 -4.264038107677731E-002 -0.231712730618957      -0.213353284195186     
 -0.194993837771414      -0.176634391347643      -0.158274944923871     
 -0.139915498500100      -0.121556052076328      -0.103196605652557     
 -8.483715922878486E-002 -6.647771280501322E-002 -4.811826638124177E-002
 -0.238229268311505      -0.219869821887733      -0.201510375463962     
 -0.183150929040190      -0.164791482616419      -0.146432036192647     
 -0.128072589768876      -0.109713143345104      -9.135369692133249E-002
 -7.299425049756075E-002 -5.463480407378939E-002 -0.245681688699933     
 -0.227322242276161      -0.208962795852390      -0.190603349428618     
 -0.172243903004847      -0.153884456581075      -0.135525010157304     
 -0.117165563733532      -9.880611730976024E-002 -8.044667088598904E-002
 -6.208722446221725E-002 -0.253952462662856      -0.235593016239084     
 -0.217233569815313      -0.198874123391541      -0.180514676967770     
 -0.162155230543998      -0.143795784120226      -0.125436337696455     
 -0.107076891272683      -8.871744484891166E-002 -7.035799842514026E-002
 -0.262911155154157      -0.244551708730386      -0.226192262306614     
 -0.207832815882842      -0.189473369459071      -0.171113923035299     
 -0.152754476611528      -0.134395030187756      -0.116035583763984     
 -9.767613734021285E-002 -7.931669091644154E-002 -0.272416482241586     
 -0.254057035817814      -0.235697589394043      -0.217338142970271     
 -0.198978696546500      -0.180619250122728      -0.162259803698957     
 -0.143900357275185      -0.125540910851414      -0.107181464427642     
 -8.882201800387035E-002 -0.282318539238766      -0.263959092814995     
 -0.245599646391223      -0.227240199967451      -0.208880753543680     
 -0.190521307119908      -0.172161860696137      -0.153802414272365     
 -0.135442967848594      -0.117083521424822      -9.872407500105061E-002
 -0.292461164791650      -0.274101718367878      -0.255742271944106     
 -0.237382825520335      -0.219023379096563      -0.200663932672792     
 -0.182304486249020      -0.163945039825249      -0.145585593401478     
 -0.127226146977706      -0.108866700553934      -0.302684403636358     
 -0.284324957212586      -0.265965510788815      -0.247606064365043     
 -0.229246617941271      -0.210887171517500      -0.192527725093728     
 -0.174168278669957      -0.155808832246185      -0.137449385822414     
 -0.119089939398642      -0.312827029189242      -0.294467582765470     
 -0.276108136341699      -0.257748689917927      -0.239389243494155     
 -0.221029797070384      -0.202670350646612      -0.184310904222840     
 -0.165951457799069      -0.147592011375298      -0.129232564951526     
 -0.322729086186422      -0.304369639762650      -0.286010193338879     
 -0.267650746915108      -0.249291300491336      -0.230931854067564     
 -0.212572407643793      -0.194212961220021      -0.175853514796250     
 -0.157494068372478      -0.139134621948706      -0.332234413273850     
 -0.313874966850079      -0.295515520426307      -0.277156074002536     
 -0.258796627578764      -0.240437181154993      -0.222077734731221     
 -0.203718288307450      -0.185358841883678      -0.166999395459906     
 -0.148639949036135      -0.341193105765152      -0.322833659341380     
 -0.304474212917609      -0.286114766493837      -0.267755320070066     
 -0.249395873646294      -0.231036427222522      -0.212676980798751     
 -0.194317534374980      -0.175958087951208      -0.157598641527436     
 -0.349463879728074      -0.331104433304303      -0.312744986880532     
 -0.294385540456760      -0.276026094032988      -0.257666647609217     
 -0.239307201185445      -0.220947754761674      -0.202588308337902     
 -0.184228861914130      -0.165869415490359      -0.356916300116503     
 -0.338556853692731      -0.320197407268960      -0.301837960845188     
 -0.283478514421417      -0.265119067997645      -0.246759621573874     
 -0.228400175150102      -0.210040728726330      -0.191681282302558     
 -0.173321835878787      -0.363432837809050      -0.345073391385278     
 -0.326713944961507      -0.308354498537736      -0.289995052113964     
 -0.271635605690193      -0.253276159266421      -0.234916712842649     
 -0.216557266418878      -0.198197819995106      -0.179838373571334     
 -0.368910723113514      -0.350551276689744      -0.332191830265971     
 -0.313832383842200      -0.295472937418429      -0.277113490994657     
 -0.258754044570885      -0.240394598147114      -0.222035151723342     
 -0.203675705299571      -0.185316258875799      -0.373263566506314     
 -0.354904120082543      -0.336544673658772      -0.318185227235000     
 -0.299825780811229      -0.281466334387457      -0.263106887963686     
 -0.244747441539914      -0.226387995116141      -0.208028548692371     
 -0.189669102268599      -0.376422721046884      -0.358063274623113     
 -0.339703828199341      -0.321344381775569      -0.302984935351798     
 -0.284625488928026      -0.266266042504254      -0.247906596080483     
 -0.229547149656711      -0.211187703232940      -0.192828256809168     
 -0.378338364980929      -0.359978918557158      -0.341619472133386     
 -0.323260025709614      -0.304900579285843      -0.286541132862071     
 -0.268181686438299      -0.249822240014527      -0.231462793590756     
 -0.213103347166985      -0.194743900743213      -0.378980287459260     
 -0.360620841035489      -0.342261394611717      -0.323901948187946     
 -0.305542501764174      -0.287183055340403      -0.268823608916631     
 -0.250464162492859      -0.232104716069088      -0.213745269645316     
 -0.195385823221545     
  0.155880917297210       0.159066186867236       0.162251456437262     
  0.165436726007288       0.168621995577314       0.171807265147340     
  0.174992534717366       0.178177804287391       0.181363073857417     
  0.184548343427443       0.187733612997469       0.159580868302941     
  0.162766137872967       0.165951407442993       0.169136677013019     
  0.172321946583045       0.175507216153071       0.178692485723096     
  0.181877755293122       0.185063024863148       0.188248294433174     
  0.191433564003200       0.170622370882529       0.173807640452556     
  0.176992910022581       0.180178179592607       0.183363449162633     
  0.186548718732659       0.189733988302685       0.192919257872711     
  0.196104527442737       0.199289797012762       0.202475066582788     
  0.188831293944422       0.192016563514448       0.195201833084474     
  0.198387102654500       0.201572372224526       0.204757641794551     
  0.207942911364577       0.211128180934603       0.214313450504629     
  0.217498720074655       0.220683989644681       0.213920471894448     
  0.217105741464474       0.220291011034500       0.223476280604526     
  0.226661550174552       0.229846819744578       0.233032089314604     
  0.236217358884630       0.239402628454656       0.242587898024681     
  0.245773167594707       0.245494233408789       0.248679502978815     
  0.251864772548840       0.255050042118866       0.258235311688893     
  0.261420581258919       0.264605850828944       0.267791120398970     
  0.270976389968996       0.274161659539022       0.277346929109048     
  0.283054641407111       0.286239910977137       0.289425180547163     
  0.292610450117189       0.295795719687215       0.298980989257241     
  0.302166258827266       0.305351528397292       0.308536797967318     
  0.311722067537344       0.314907337107370       0.326009345817782     
  0.329194615387807       0.332379884957834       0.335565154527859     
  0.338750424097885       0.341935693667911       0.345120963237937     
  0.348306232807963       0.351491502377989       0.354676771948015     
  0.357862041518041       0.373680925292348       0.376866194862373     
  0.380051464432399       0.383236734002425       0.386422003572451     
  0.389607273142477       0.392792542712503       0.395977812282529     
  0.399163081852555       0.402348351422581       0.405533620992606     
  0.425317570544873       0.428502840114899       0.431688109684925     
  0.434873379254951       0.438058648824977       0.441243918395003     
  0.444429187965028       0.447614457535055       0.450799727105080     
  0.453984996675107       0.457170266245132       0.480104940833490     
  0.483290210403516       0.486475479973543       0.489660749543568     
  0.492846019113594       0.496031288683620       0.499216558253646     
  0.502401827823672       0.505587097393698       0.508772366963724     
  0.511957636533749       0.537179006600359       0.540364276170385     
  0.543549545740410       0.546734815310436       0.549920084880462     
  0.553105354450488       0.556290624020514       0.559475893590540     
  0.562661163160566       0.565846432730592       0.569031702300618     
  0.595639675733940       0.598824945303966       0.602010214873991     
  0.605195484444017       0.608380754014043       0.611566023584069     
  0.614751293154095       0.617936562724121       0.621121832294147     
  0.624307101864173       0.627492371434199       0.654564988559287     
  0.657750258129313       0.660935527699338       0.664120797269364     
  0.667306066839390       0.670491336409416       0.673676605979443     
  0.676861875549468       0.680047145119494       0.683232414689520     
  0.686417684259546       0.713025657692868       0.716210927262894     
  0.719396196832920       0.722581466402946       0.725766735972972     
  0.728952005542998       0.732137275113023       0.735322544683049     
  0.738507814253075       0.741693083823101       0.744878353393127     
  0.770099723459737       0.773284993029762       0.776470262599788     
  0.779655532169814       0.782840801739840       0.786026071309866     
  0.789211340879891       0.792396610449918       0.795581880019943     
  0.798767149589969       0.801952419159995       0.824887093748353     
  0.828072363318379       0.831257632888405       0.834442902458431     
  0.837628172028457       0.840813441598483       0.843998711168509     
  0.847183980738535       0.850369250308561       0.853554519878587     
  0.856739789448613       0.876523739000880       0.879709008570905     
  0.882894278140931       0.886079547710956       0.889264817280982     
  0.892450086851009       0.895635356421034       0.898820625991060     
  0.902005895561087       0.905191165131112       0.908376434701137     
  0.924195318475445       0.927380588045471       0.930565857615496     
  0.933751127185522       0.936936396755549       0.940121666325574     
  0.943306935895600       0.946492205465626       0.949677475035651     
  0.952862744605678       0.956048014175704       0.967150022886115     
  0.970335292456142       0.973520562026166       0.976705831596194     
  0.979891101166218       0.983076370736245       0.986261640306271     
  0.989446909876298       0.992632179446322       0.995817449016349     
  0.999002718586374        1.00471043088444        1.00789570045446     
   1.01108097002449        1.01426623959452        1.01745150916454     
   1.02063677873457        1.02382204830459        1.02700731787462     
   1.03019258744464        1.03337785701467        1.03656312658470     
   1.03628419239878        1.03946946196880        1.04265473153883     
   1.04584000110886        1.04902527067888        1.05221054024891     
   1.05539580981893        1.05858107938896        1.06176634895899     
   1.06495161852901        1.06813688809904        1.06137337034880     
   1.06455863991883        1.06774390948886        1.07092917905888     
   1.07411444862891        1.07729971819893        1.08048498776896     
   1.08367025733899        1.08685552690901        1.09004079647904     
   1.09322606604906        1.07958229341070        1.08276756298072     
   1.08595283255075        1.08913810212077        1.09232337169080     
   1.09550864126083        1.09869391083085        1.10187918040088     
   1.10506444997090        1.10824971954093        1.11143498911096     
   1.09062379599029        1.09380906556031        1.09699433513034     
   1.10017960470036        1.10336487427039        1.10655014384042     
   1.10973541341044        1.11292068298047        1.11610595255049     
   1.11929122212052        1.12247649169054        1.09432374699601     
   1.09750901656604        1.10069428613607        1.10387955570609     
   1.10706482527612        1.11025009484615        1.11343536441617     
   1.11662063398620        1.11980590355622        1.12299117312625     
   1.12617644269628     
  3.960717710078315E-002  3.564645939070483E-002  3.168574168062652E-002
  2.772502397054821E-002  2.376430626046989E-002  1.980358855039158E-002
  1.584287084031326E-002  1.188215313023495E-002  7.921435420156629E-003
  3.960717710078312E-003  0.000000000000000E+000  3.960717710078315E-002
  3.564645939070483E-002  3.168574168062652E-002  2.772502397054821E-002
  2.376430626046989E-002  1.980358855039158E-002  1.584287084031326E-002
  1.188215313023495E-002  7.921435420156629E-003  3.960717710078312E-003
  0.000000000000000E+000  3.960717710078315E-002  3.564645939070483E-002
  3.168574168062652E-002  2.772502397054821E-002  2.376430626046989E-002
  1.980358855039158E-002  1.584287084031326E-002  1.188215313023495E-002
  7.921435420156629E-003  3.960717710078312E-003  0.000000000000000E+000
  3.960717710078315E-002  3.564645939070483E-002  3.168574168062652E-002
  2.772502397054821E-002  2.376430626046989E-002  1.980358855039158E-002
  1.584287084031326E-002  1.188215313023495E-002  7.921435420156629E-003
  3.960717710078312E-003  0.000000000000000E+000  3.960717710078315E-002
  3.564645939070483E-002  3.168574168062652E-002  2.772502397054821E-002
  2.376430626046989E-002  1.980358855039158E-002  1.584287084031326E-002
  1.188215313023495E-002  7.921435420156629E-003  3.960717710078312E-003
  0.000000000000000E+000  3.960717710078315E-002  3.564645939070483E-002
  3.168574168062652E-002  2.772502397054821E-002  2.376430626046989E-002
  1.980358855039158E-002  1.584287084031326E-002  1.188215313023495E-002
  7.921435420156629E-003  3.960717710078312E-003  0.000000000000000E+000
  3.960717710078315E-002  3.564645939070483E-002  3.168574168062652E-002
  2.772502397054821E-002  2.376430626046989E-002  1.980358855039158E-002
  1.584287084031326E-002  1.188215313023495E-002  7.921435420156629E-003
  3.960717710078312E-003  0.000000000000000E+000  3.960717710078315E-002
  3.564645939070483E-002  3.168574168062652E-002  2.772502397054821E-002
  2.376430626046989E-002  1.980358855039158E-002  1.584287084031326E-002
  1.188215313023495E-002  7.921435420156629E-003  3.960717710078312E-003
  0.000000000000000E+000  3.960717710078315E-002  3.564645939070483E-002
  3.168574168062652E-002  2.772502397054821E-002  2.376430626046989E-002
  1.980358855039158E-002  1.584287084031326E-002  1.188215313023495E-002
  7.921435420156629E-003  3.960717710078312E-003  0.000000000000000E+000
  3.960717710078315E-002  3.564645939070483E-002  3.168574168062652E-002
  2.772502397054821E-002  2.376430626046989E-002  1.980358855039158E-002
  1.584287084031326E-002  1.188215313023495E-002  7.921435420156629E-003
  3.960717710078312E-003  0.000000000000000E+000  3.960717710078315E-002
  3.564645939070483E-002  3.168574168062652E-002  2.772502397054821E-002
  2.376430626046989E-002  1.980358855039158E-002  1.584287084031326E-002
  1.188215313023495E-002  7.921435420156629E-003  3.960717710078312E-003
  0.000000000000000E+000  3.960717710078315E-002  3.564645939070483E-002
  3.168574168062652E-002  2.772502397054821E-002  2.376430626046989E-002
  1.980358855039158E-002  1.584287084031326E-002  1.188215313023495E-002
  7.921435420156629E-003  3.960717710078312E-003  0.000000000000000E+000
  3.960717710078315E-002  3.564645939070483E-002  3.168574168062652E-002
  2.772502397054821E-002  2.376430626046989E-002  1.980358855039158E-002
  1.584287084031326E-002  1.188215313023495E-002  7.921435420156629E-003
  3.960717710078312E-003  0.000000000000000E+000  3.960717710078315E-002
  3.564645939070483E-002  3.168574168062652E-002  2.772502397054821E-002
  2.376430626046989E-002  1.980358855039158E-002  1.584287084031326E-002
  1.188215313023495E-002  7.921435420156629E-003  3.960717710078312E-003
  0.000000000000000E+000  3.960717710078315E-002  3.564645939070483E-002
  3.168574168062652E-002  2.772502397054821E-002  2.376430626046989E-002
  1.980358855039158E-002  1.584287084031326E-002  1.188215313023495E-002
  7.921435420156629E-003  3.960717710078312E-003  0.000000000000000E+000
  3.960717710078315E-002  3.564645939070483E-002  3.168574168062652E-002
  2.772502397054821E-002  2.376430626046989E-002  1.980358855039158E-002
  1.584287084031326E-002  1.188215313023495E-002  7.921435420156629E-003
  3.960717710078312E-003  0.000000000000000E+000  3.960717710078315E-002
  3.564645939070483E-002  3.168574168062652E-002  2.772502397054821E-002
  2.376430626046989E-002  1.980358855039158E-002  1.584287084031326E-002
  1.188215313023495E-002  7.921435420156629E-003  3.960717710078312E-003
  0.000000000000000E+000  3.960717710078315E-002  3.564645939070483E-002
  3.168574168062652E-002  2.772502397054821E-002  2.376430626046989E-002
  1.980358855039158E-002  1.584287084031326E-002  1.188215313023495E-002
  7.921435420156629E-003  3.960717710078312E-003  0.000000000000000E+000
  3.960717710078315E-002  3.564645939070483E-002  3.168574168062652E-002
  2.772502397054821E-002  2.376430626046989E-002  1.980358855039158E-002
  1.584287084031326E-002  1.188215313023495E-002  7.921435420156629E-003
  3.960717710078312E-003  0.000000000000000E+000  3.960717710078315E-002
  3.564645939070483E-002  3.168574168062652E-002  2.772502397054821E-002
  2.376430626046989E-002  1.980358855039158E-002  1.584287084031326E-002
  1.188215313023495E-002  7.921435420156629E-003  3.960717710078312E-003
  0.000000000000000E+000  3.960717710078315E-002  3.564645939070483E-002
  3.168574168062652E-002  2.772502397054821E-002  2.376430626046989E-002
  1.980358855039158E-002  1.584287084031326E-002  1.188215313023495E-002
  7.921435420156629E-003  3.960717710078312E-003  0.000000000000000E+000
  3.960717710078315E-002  3.564645939070483E-002  3.168574168062652E-002
  2.772502397054821E-002  2.376430626046989E-002  1.980358855039158E-002
  1.584287084031326E-002  1.188215313023495E-002  7.921435420156629E-003
  3.960717710078312E-003  0.000000000000000E+000  3.960717710078315E-002
  3.564645939070483E-002  3.168574168062652E-002  2.772502397054821E-002
  2.376430626046989E-002  1.980358855039158E-002  1.584287084031326E-002
  1.188215313023495E-002  7.921435420156629E-003  3.960717710078312E-003
  0.000000000000000E+000  3.960717710078315E-002  3.564645939070483E-002
  3.168574168062652E-002  2.772502397054821E-002  2.376430626046989E-002
  1.980358855039158E-002  1.584287084031326E-002  1.188215313023495E-002
  7.921435420156629E-003  3.960717710078312E-003  0.000000000000000E+000
  3.960717710078315E-002  3.564645939070483E-002  3.168574168062652E-002
  2.772502397054821E-002  2.376430626046989E-002  1.980358855039158E-002
  1.584287084031326E-002  1.188215313023495E-002  7.921435420156629E-003
  3.960717710078312E-003  0.000000000000000E+000  3.960717710078315E-002
  3.564645939070483E-002  3.168574168062652E-002  2.772502397054821E-002
  2.376430626046989E-002  1.980358855039158E-002  1.584287084031326E-002
  1.188215313023495E-002  7.921435420156629E-003  3.960717710078312E-003
  0.000000000000000E+000
  0.284827734827831       0.394233854373345       0.472507655669712     
  0.535186827115632       0.586677409658636       0.628755928591899     
  0.662555839363613       0.689076285725129       0.709304708666219     
  0.723416663436572       0.466529209160239       0.657240441162490     
  0.792041664696621       0.899458984954305       0.987623693598978     
   1.05981844544629        1.11811188973873        1.16434338024719     
   1.20048067448133        1.22956527672256       0.600949195799536     
  0.871980933538557        1.06364699623700        1.21563944182293     
   1.34036747098217        1.44304432409030        1.52688630488480     
   1.59440341765452        1.64802062842330        1.69015830011659     
  0.674291484574569        1.00078956906088        1.23731050536146     
   1.42611748180799        1.58168323261679        1.71041154308025     
   1.81588093985989        1.90017307249049        1.96449984797399     
   2.00859228615671       0.692902274541938        1.04413287236364     
   1.30556284332475        1.51734708115303        1.69331440409560     
   1.83960196770337        1.95943160887859        2.05452943861682     
   2.12545250991501        2.17065256753276       0.673729105939165     
   1.02481822887642        1.29146773393506        1.51048335727125     
   1.69418131339680        1.84786187307131        1.97415628305274     
   2.07420794099958        2.14773905255707        2.19227704849242     
  0.647876449918504       0.988592380926372        1.24956562520237     
   1.46548581502476        1.64773345102284        1.80104936977172     
   1.92761821851018        2.02820699097848        2.10221011635353     
   2.14654746648407       0.648270892598518       0.985481723909066     
   1.24239259768078        1.45463647071289        1.63406838207227     
   1.78564188977355        1.91153512594897        2.01240576008256     
   2.08743501774412        2.13298269432331       0.697462598013568     
   1.05087438921821        1.31536157809092        1.53147174836895     
   1.71324157601836        1.86681534402048        1.99498484591553     
   2.09862796983316        2.17687497305826        2.22561923105509     
  0.799914554572185        1.19421164454985        1.48296572682853     
   1.71512015458429        1.90823133267330        2.07037354418456     
   2.20552376794808        2.31528009158035        2.39909760632721     
   2.45261922920243       0.943366331707924        1.39891329329856     
   1.72659780746365        1.98612883982197        2.19943899389259     
   2.37695190766204        2.52406801990052        2.64327507728313     
   2.73451801117707        2.79338818980693        1.11309635057047     
   1.64335365596032        2.01996239794235        2.31481148498594     
   2.55466983834360        2.75250970231072        2.91526736834605     
   3.04639620372720        3.14638588331396        3.21084822151565     
   1.29945018043950        1.91264249821345        2.34412614833754     
   2.67892382017774        2.94896760681552        3.16992810958055     
   3.35036276831360        3.49475265351586        3.60418613686482     
   3.67435608625623        1.49701679887757        2.19801724169853     
   2.68747429622794        3.06433106007028        3.36599223648208     
   3.61099309721868        3.80961845667969        3.96745547855661     
   4.08626705005943        4.16192993153676        1.70188158891180     
   2.49295463239593        3.04114791601562        3.46001321110790     
   3.79273522617255        4.06090266010307        4.27666574913170     
   4.44683349390161        4.57396147331609        4.65428400792133     
   1.90843050945683        2.78848383108466        3.39336362539281     
   3.85170025965195        4.21270190141986        4.50117417773728     
   4.73126555608791        4.91112840719241        5.04424356723856     
   5.12742727399935        2.10574785783867        3.06795566995274     
   3.72310776291306        4.21481155793720        4.59834792359305     
   4.90179779576622        5.14136008907961        5.32658873928024     
   5.46197830848187        5.54515361825309        2.27537520422735     
   3.30373211819465        3.99607787987706        4.50983160362308     
   4.90602377047913        5.21588195998278        5.45757454501344     
   5.64200241506166        5.77468528617449        5.85428942501488     
   2.39322187824809        3.45976671287363        4.16765263042884     
   4.68558746616674        5.07954249288139        5.38350217098980     
   5.61733651791967        5.79308136912727        5.91717514410868     
   5.98955631272406        2.43552560035235        3.49987983139088     
   4.19275917656904        4.69057271342430        5.06296919146074     
   5.34591828667746        5.56036744043945        5.71896501542879     
   5.82869647037868        5.89077217760117        2.38271383611078     
   3.39317117230643        4.03299637621569        4.48213504604677     
   4.81192682657072        5.05877795934980        5.24345744699830     
   5.37825436730410        5.46995029812954        5.52041378903226     
   2.21838436436682        3.11321332050295        3.65831692965044     
   4.03130543445892        4.30083798512006        4.50058325997435     
   4.64913327246925        4.75736493587725        4.83145211041601     
   4.87327834261081        1.92490589108395        2.63684980563447     
   3.05253539897634        3.33222007771621        3.53304470310543     
   3.68162565964187        3.79242203000949        3.87426726821855     
   3.93361473635044        3.97640894382552        1.47813969575527     
   1.95869894979875        2.23486458386853        2.42087478670284     
   2.55483064422926        2.65423970378087        2.72863976515006     
   2.78392071289967        2.82453645719379        2.85689617125197     
  0.900313034073568        1.16926094766282        1.32518045803215     
   1.43074463937442        1.50700265361981        1.56369245054856     
   1.60611225511287        1.63740627586844        1.65943140040076     
   1.67209103678384     
  0.000000000000000E+000  0.000000000000000E+000  0.000000000000000E+000
  0.000000000000000E+000  0.000000000000000E+000  0.000000000000000E+000
  0.000000000000000E+000  0.000000000000000E+000  0.000000000000000E+000
  0.000000000000000E+000  0.000000000000000E+000  0.000000000000000E+000
  0.000000000000000E+000  0.000000000000000E+000  0.000000000000000E+000
  0.000000000000000E+000  0.000000000000000E+000  0.000000000000000E+000
  0.000000000000000E+000  0.000000000000000E+000  0.000000000000000E+000
  0.000000000000000E+000  0.000000000000000E+000  0.000000000000000E+000
  0.000000000000000E+000  0.000000000000000E+000  0.000000000000000E+000
  0.000000000000000E+000  0.000000000000000E+000  0.000000000000000E+000
  0.000000000000000E+000  0.000000000000000E+000  0.000000000000000E+000
  0.000000000000000E+000  0.000000000000000E+000  0.000000000000000E+000
  0.000000000000000E+000  0.000000000000000E+000  0.000000000000000E+000
  0.000000000000000E+000  0.000000000000000E+000  0.000000000000000E+000
  0.000000000000000E+000  0.000000000000000E+000  0.000000000000000E+000
  0.000000000000000E+000  0.000000000000000E+000  0.000000000000000E+000
  0.000000000000000E+000  0.000000000000000E+000  0.000000000000000E+000
  0.000000000000000E+000  0.000000000000000E+000  0.000000000000000E+000
  0.000000000000000E+000  0.000000000000000E+000  0.000000000000000E+000
  0.000000000000000E+000  0.000000000000000E+000  0.000000000000000E+000
  0.000000000000000E+000  0.000000000000000E+000  0.000000000000000E+000
  0.000000000000000E+000  0.000000000000000E+000  0.000000000000000E+000
  0.000000000000000E+000  0.000000000000000E+000  0.000000000000000E+000
  0.000000000000000E+000  0.000000000000000E+000  0.000000000000000E+000
  0.000000000000000E+000  0.000000000000000E+000  0.000000000000000E+000
  0.000000000000000E+000  0.000000000000000E+000  0.000000000000000E+000
  0.000000000000000E+000  0.000000000000000E+000  0.000000000000000E+000
  0.000000000000000E+000  0.000000000000000E+000  0.000000000000000E+000
  0.000000000000000E+000  0.000000000000000E+000  0.000000000000000E+000
  0.000000000000000E+000  0.000000000000000E+000  0.000000000000000E+000
  0.000000000000000E+000  0.000000000000000E+000  0.000000000000000E+000
  0.000000000000000E+000  0.000000000000000E+000  0.000000000000000E+000
  0.000000000000000E+000  0.000000000000000E+000  0.000000000000000E+000
  0.000000000000000E+000  0.000000000000000E+000  0.000000000000000E+000
  0.000000000000000E+000  0.000000000000000E+000  0.000000000000000E+000
  0.000000000000000E+000  0.000000000000000E+000  0.000000000000000E+000
  0.000000000000000E+000  0.000000000000000E+000  0.000000000000000E+000
  0.000000000000000E+000  0.000000000000000E+000  0.000000000000000E+000
  0.000000000000000E+000  0.000000000000000E+000  0.000000000000000E+000