 Title = "Wing and Wake"
 VARIABLES = "X" "Y" "Z" "GAM" "skew"
 Zone I=   11 J=   26 K=1  T="Blade"
 DATAPACKING=BLOCK
 VARLOCATION=([4]=CELLCENTERED,[5]=CELLCENTERED)
  6.129684261808403E-002  7.126522927267159E-002  8.123361592725904E-002
  9.120200258184645E-002  0.101170389236434       0.111138775891022     
  0.121107162545609       0.131075549200197       0.141043935854784     
  0.151012322509371       0.160980709163959       6.446953357770718E-002
  7.443792023229476E-002  8.440630688688223E-002  9.437469354146971E-002
  0.104343080196057       0.114311466850645       0.124279853505232     
  0.134248240159820       0.144216626814407       0.154185013468995     
  0.164153400123582       7.393757122486945E-002  8.390595787945694E-002
  9.387434453404456E-002  0.103842731188632       0.113811117843219     
  0.123779504497807       0.133747891152394       0.143716277806982     
  0.153684664461569       0.163653051116157       0.173621437770745     
  8.955163894994408E-002  9.952002560453146E-002  0.109488412259119     
  0.119456798913707       0.129425185568294       0.139393572222882     
  0.149361958877469       0.159330345532057       0.169298732186644     
  0.179267118841231       0.189235505495819       0.111065493577514     
  0.121033880232101       0.131002266886689       0.140970653541276     
  0.150939040195864       0.160907426850451       0.170875813505039     
  0.180844200159626       0.190812586814214       0.200780973468801     
  0.210749360123389       0.138139848768349       0.148108235422936     
  0.158076622077524       0.168045008732111       0.178013395386699     
  0.187981782041287       0.197950168695874       0.207918555350461     
  0.217886942005049       0.227855328659636       0.237823715314224     
  0.170347725767654       0.180316112422241       0.190284499076829     
  0.200252885731416       0.210221272386004       0.220189659040591     
  0.230158045695179       0.240126432349766       0.250094819004353     
  0.260063205658941       0.270031592313528       0.207181187115096     
  0.217149573769683       0.227117960424271       0.237086347078859     
  0.247054733733446       0.257023120388033       0.266991507042621     
  0.276959893697208       0.286928280351796       0.296896667006383     
  0.306865053660971       0.248059347121984       0.258027733776571     
  0.267996120431158       0.277964507085746       0.287932893740333     
  0.297901280394921       0.307869667049509       0.317838053704096     
  0.327806440358684       0.337774827013271       0.347743213667858     
  0.292337532785578       0.302305919440166       0.312274306094753     
  0.322242692749341       0.332211079403928       0.342179466058516     
  0.352147852713103       0.362116239367691       0.372084626022278     
  0.382053012676866       0.392021399331453       0.339317450667460     
  0.349285837322047       0.359254223976635       0.369222610631222     
  0.379190997285810       0.389159383940397       0.399127770594985     
  0.409096157249572       0.419064543904160       0.429032930558747     
  0.439001317213335       0.388258199398188       0.398226586052776     
  0.408194972707363       0.418163359361950       0.428131746016538     
  0.438100132671125       0.448068519325713       0.458036905980300     
  0.468005292634888       0.477973679289476       0.487942065944063     
  0.438387954134492       0.448356340789080       0.458324727443667     
  0.468293114098255       0.478261500752843       0.488229887407430     
  0.498198274062017       0.508166660716605       0.518135047371193     
  0.528103434025780       0.538071820680368       0.488916138698119     
  0.498884525352706       0.508852912007293       0.518821298661881     
  0.528789685316469       0.538758071971056       0.548726458625644     
  0.558694845280231       0.568663231934819       0.578631618589406     
  0.588600005243994       0.539045893434423       0.549014280089011     
  0.558982666743599       0.568951053398186       0.578919440052774     
  0.588887826707361       0.598856213361948       0.608824600016536     
  0.618792986671123       0.628761373325711       0.638729759980298     
  0.587986642165151       0.597955028819739       0.607923415474326     
  0.617891802128913       0.627860188783501       0.637828575438089     
  0.647796962092676       0.657765348747264       0.667733735401852     
  0.677702122056439       0.687670508711027       0.634966560047033     
  0.644934946701620       0.654903333356208       0.664871720010795     
  0.674840106665383       0.684808493319971       0.694776879974558     
  0.704745266629145       0.714713653283733       0.724682039938321     
  0.734650426592908       0.679244745710628       0.689213132365215     
  0.699181519019803       0.709149905674390       0.719118292328978     
  0.729086678983565       0.739055065638153       0.749023452292740     
  0.758991838947328       0.768960225601915       0.778928612256502     
  0.720122905717515       0.730091292372103       0.740059679026690     
  0.750028065681278       0.759996452335866       0.769964838990453     
  0.779933225645040       0.789901612299628       0.799869998954215     
  0.809838385608803       0.819806772263390       0.756956367064957     
  0.766924753719545       0.776893140374132       0.786861527028721     
  0.796829913683307       0.806798300337895       0.816766686992483     
  0.826735073647071       0.836703460301658       0.846671846956246     
  0.856640233610832       0.789164244064263       0.799132630718850     
  0.809101017373437       0.819069404028024       0.829037790682612     
  0.839006177337199       0.848974563991788       0.858942950646374     
  0.868911337300962       0.878879723955550       0.888848110610137     
  0.816238599255097       0.826206985909684       0.836175372564272     
  0.846143759218860       0.856112145873447       0.866080532528035     
  0.876048919182622       0.886017305837209       0.895985692491797     
  0.905954079146384       0.915922465800972       0.837752453882668     
  0.847720840537255       0.857689227191843       0.867657613846430     
  0.877626000501017       0.887594387155605       0.897562773810192     
  0.907531160464780       0.917499547119367       0.927467933773955     
  0.937436320428542       0.853366521607742       0.863334908262329     
  0.873303294916917       0.883271681571504       0.893240068226092     
  0.903208454880679       0.913176841535266       0.923145228189855     
  0.933113614844441       0.943082001499029       0.953050388153616     
  0.862834559254904       0.872802945909490       0.882771332564078     
  0.892739719218666       0.902708105873253       0.912676492527842     
  0.922644879182428       0.932613265837017       0.942581652491604     
  0.952550039146191       0.962518425800779       0.866007250214526     
  0.875975636869115       0.885944023523701       0.895912410178290     
  0.905880796832876       0.915849183487464       0.925817570142052     
  0.935785956796639       0.945754343451227       0.955722730105814     
  0.965691116760403     
  0.259362653747163       0.243619512932011       0.227876372116859     
  0.212133231301706       0.196390090486554       0.180646949671402     
  0.164903808856250       0.149160668041097       0.133417527225945     
  0.117674386410793       0.101931245595641       0.261371567380877     
  0.245628426565725       0.229885285750573       0.214142144935421     
  0.198399004120268       0.182655863305116       0.166912722489964     
  0.151169581674811       0.135426440859659       0.119683300044507     
  0.103940159229355       0.267366626513948       0.251623485698796     
  0.235880344883644       0.220137204068492       0.204394063253339     
  0.188650922438187       0.172907781623035       0.157164640807883     
  0.141421499992730       0.125678359177578       0.109935218362426     
  0.277253285482574       0.261510144667422       0.245767003852269     
  0.230023863037117       0.214280722221965       0.198537581406813     
  0.182794440591660       0.167051299776508       0.151308158961356     
  0.135565018146203       0.119821877331051       0.290875625768814     
  0.275132484953662       0.259389344138510       0.243646203323358     
  0.227903062508205       0.212159921693053       0.196416780877901     
  0.180673640062748       0.164930499247596       0.149187358432444     
  0.133444217617292       0.308018814928764       0.292275674113612     
  0.276532533298459       0.260789392483307       0.245046251668155     
  0.229303110853003       0.213559970037850       0.197816829222698     
  0.182073688407546       0.166330547592393       0.150587406777241     
  0.328412494628526       0.312669353813374       0.296926212998222     
  0.281183072183069       0.265439931367917       0.249696790552765     
  0.233953649737612       0.218210508922460       0.202467368107308     
  0.186724227292155       0.170981086477003       0.351735044356641     
  0.335991903541489       0.320248762726337       0.304505621911185     
  0.288762481096032       0.273019340280880       0.257276199465728     
  0.241533058650575       0.225789917835423       0.210046777020271     
  0.194303636205119       0.377618653571681       0.361875512756529     
  0.346132371941377       0.330389231126225       0.314646090311072     
  0.298902949495920       0.283159808680768       0.267416667865616     
  0.251673527050463       0.235930386235311       0.220187245420159     
  0.405655122294207       0.389911981479054       0.374168840663902     
  0.358425699848750       0.342682559033597       0.326939418218445     
  0.311196277403293       0.295453136588141       0.279709995772988     
  0.263966854957836       0.248223714142684       0.435402298664288     
  0.419659157849136       0.403916017033984       0.388172876218831     
  0.372429735403679       0.356686594588527       0.340943453773374     
  0.325200312958222       0.309457172143070       0.293714031327918     
  0.277970890512765       0.466391051940467       0.450647911125316     
  0.434904770310163       0.419161629495011       0.403418488679859     
  0.387675347864706       0.371932207049554       0.356189066234402     
  0.340445925419250       0.324702784604097       0.308959643788945     
  0.498132670971797       0.482389530156644       0.466646389341492     
  0.450903248526340       0.435160107711187       0.419416966896035     
  0.403673826080882       0.387930685265731       0.372187544450579     
  0.356444403635426       0.340701262820274       0.530126571464626     
  0.514383430649474       0.498640289834322       0.482897149019169     
  0.467154008204017       0.451410867388864       0.435667726573713     
  0.419924585758560       0.404181444943408       0.388438304128256     
  0.372695163313103       0.561868190495955       0.546125049680803     
  0.530381908865650       0.514638768050498       0.498895627235345     
  0.483152486420194       0.467409345605041       0.451666204789888     
  0.435923063974737       0.420179923159584       0.404436782344432     
  0.592856943772134       0.577113802956982       0.561370662141830     
  0.545627521326678       0.529884380511525       0.514141239696373     
  0.498398098881221       0.482654958066069       0.466911817250917     
  0.451168676435764       0.435425535620612       0.622604120142216     
  0.606860979327064       0.591117838511911       0.575374697696759     
  0.559631556881606       0.543888416066455       0.528145275251302     
  0.512402134436150       0.496658993620998       0.480915852805845     
  0.465172711990693       0.650640588864741       0.634897448049588     
  0.619154307234436       0.603411166419284       0.587668025604132     
  0.571924884788980       0.556181743973827       0.540438603158675     
  0.524695462343523       0.508952321528370       0.493209180713218     
  0.676524198079781       0.660781057264629       0.645037916449477     
  0.629294775634324       0.613551634819172       0.597808494004020     
  0.582065353188867       0.566322212373715       0.550579071558563     
  0.534835930743410       0.519092789928258       0.699846747807897     
  0.684103606992745       0.668360466177591       0.652617325362440     
  0.636874184547287       0.621131043732135       0.605387902916983     
  0.589644762101831       0.573901621286678       0.558158480471526     
  0.542415339656374       0.720240427507659       0.704497286692506     
  0.688754145877354       0.673011005062201       0.657267864247049     
  0.641524723431897       0.625781582616745       0.610038441801592     
  0.594295300986440       0.578552160171288       0.562809019356135     
  0.737383616667608       0.721640475852455       0.705897335037303     
  0.690154194222151       0.674411053407000       0.658667912591847     
  0.642924771776694       0.627181630961542       0.611438490146390     
  0.595695349331237       0.579952208516086       0.751005956953848     
  0.735262816138696       0.719519675323544       0.703776534508391     
  0.688033393693240       0.672290252878087       0.656547112062935     
  0.640803971247783       0.625060830432629       0.609317689617478     
  0.593574548802325       0.760892615922474       0.745149475107322     
  0.729406334292170       0.713663193477017       0.697920052661865     
  0.682176911846712       0.666433771031560       0.650690630216408     
  0.634947489401255       0.619204348586104       0.603461207770951     
  0.766887675055545       0.751144534240392       0.735401393425240     
  0.719658252610088       0.703915111794935       0.688171970979783     
  0.672428830164631       0.656685689349479       0.640942548534327     
  0.625199407719174       0.609456266904022       0.768896588689258     
  0.753153447874107       0.737410307058954       0.721667166243803     
  0.705924025428650       0.690180884613498       0.674437743798345     
  0.658694602983193       0.642951462168041       0.627208321352888     
  0.611465180537736     
  3.960717710078315E-002  3.564645939070483E-002  3.168574168062652E-002
  2.772502397054821E-002  2.376430626046989E-002  1.980358855039158E-002
  1.584287084031326E-002  1.188215313023495E-002  7.921435420156629E-003
  3.960717710078312E-003  0.000000000000000E+000  3.960717710078315E-002
  3.564645939070483E-002  3.168574168062652E-002  2.772502397054821E-002
  2.376430626046989E-002  1.980358855039158E-002  1.584287084031326E-002
  1.188215313023495E-002  7.921435420156629E-003  3.960717710078312E-003
  0.000000000000000E+000  3.960717710078315E-002  3.564645939070483E-002
  3.168574168062652E-002  2.772502397054821E-002  2.376430626046989E-002
  1.980358855039158E-002  1.584287084031326E-002  1.188215313023495E-002
  7.921435420156629E-003  3.960717710078312E-003  0.000000000000000E+000
  3.960717710078315E-002  3.564645939070483E-002  3.168574168062652E-002
  2.772502397054821E-002  2.376430626046989E-002  1.980358855039158E-002
  1.584287084031326E-002  1.188215313023495E-002  7.921435420156629E-003
  3.960717710078312E-003  0.000000000000000E+000  3.960717710078315E-002
  3.564645939070483E-002  3.168574168062652E-002  2.772502397054821E-002
  2.376430626046989E-002  1.980358855039158E-002  1.584287084031326E-002
  1.188215313023495E-002  7.921435420156629E-003  3.960717710078312E-003
  0.000000000000000E+000  3.960717710078315E-002  3.564645939070483E-002
  3.168574168062652E-002  2.772502397054821E-002  2.376430626046989E-002
  1.980358855039158E-002  1.584287084031326E-002  1.188215313023495E-002
  7.921435420156629E-003  3.960717710078312E-003  0.000000000000000E+000
  3.960717710078315E-002  3.564645939070483E-002  3.168574168062652E-002
  2.772502397054821E-002  2.376430626046989E-002  1.980358855039158E-002
  1.584287084031326E-002  1.188215313023495E-002  7.921435420156629E-003
  3.960717710078312E-003  0.000000000000000E+000  3.960717710078315E-002
  3.564645939070483E-002  3.168574168062652E-002  2.772502397054821E-002
  2.376430626046989E-002  1.980358855039158E-002  1.584287084031326E-002
  1.188215313023495E-002  7.921435420156629E-003  3.960717710078312E-003
  0.000000000000000E+000  3.960717710078315E-002  3.564645939070483E-002
  3.168574168062652E-002  2.772502397054821E-002  2.376430626046989E-002
  1.980358855039158E-002  1.584287084031326E-002  1.188215313023495E-002
  7.921435420156629E-003  3.960717710078312E-003  0.000000000000000E+000
  3.960717710078315E-002  3.564645939070483E-002  3.168574168062652E-002
  2.772502397054821E-002  2.376430626046989E-002  1.980358855039158E-002
  1.584287084031326E-002  1.188215313023495E-002  7.921435420156629E-003
  3.960717710078312E-003  0.000000000000000E+000  3.960717710078315E-002
  3.564645939070483E-002  3.168574168062652E-002  2.772502397054821E-002
  2.376430626046989E-002  1.980358855039158E-002  1.584287084031326E-002
  1.188215313023495E-002  7.921435420156629E-003  3.960717710078312E-003
  0.000000000000000E+000  3.960717710078315E-002  3.564645939070483E-002
  3.168574168062652E-002  2.772502397054821E-002  2.376430626046989E-002
  1.980358855039158E-002  1.584287084031326E-002  1.188215313023495E-002
  7.921435420156629E-003  3.960717710078312E-003  0.000000000000000E+000
  3.960717710078315E-002  3.564645939070483E-002  3.168574168062652E-002
  2.772502397054821E-002  2.376430626046989E-002  1.980358855039158E-002
  1.584287084031326E-002  1.188215313023495E-002  7.921435420156629E-003
  3.960717710078312E-003  0.000000000000000E+000  3.960717710078315E-002
  3.564645939070483E-002  3.168574168062652E-002  2.772502397054821E-002
  2.376430626046989E-002  1.980358855039158E-002  1.584287084031326E-002
  1.188215313023495E-002  7.921435420156629E-003  3.960717710078312E-003
  0.000000000000000E+000  3.960717710078315E-002  3.564645939070483E-002
  3.168574168062652E-002  2.772502397054821E-002  2.376430626046989E-002
  1.980358855039158E-002  1.584287084031326E-002  1.188215313023495E-002
  7.921435420156629E-003  3.960717710078312E-003  0.000000000000000E+000
  3.960717710078315E-002  3.564645939070483E-002  3.168574168062652E-002
  2.772502397054821E-002  2.376430626046989E-002  1.980358855039158E-002
  1.584287084031326E-002  1.188215313023495E-002  7.921435420156629E-003
  3.960717710078312E-003  0.000000000000000E+000  3.960717710078315E-002
  3.564645939070483E-002  3.168574168062652E-002  2.772502397054821E-002
  2.376430626046989E-002  1.980358855039158E-002  1.584287084031326E-002
  1.188215313023495E-002  7.921435420156629E-003  3.960717710078312E-003
  0.000000000000000E+000  3.960717710078315E-002  3.564645939070483E-002
  3.168574168062652E-002  2.772502397054821E-002  2.376430626046989E-002
  1.980358855039158E-002  1.584287084031326E-002  1.188215313023495E-002
  7.921435420156629E-003  3.960717710078312E-003  0.000000000000000E+000
  3.960717710078315E-002  3.564645939070483E-002  3.168574168062652E-002
  2.772502397054821E-002  2.376430626046989E-002  1.980358855039158E-002
  1.584287084031326E-002  1.188215313023495E-002  7.921435420156629E-003
  3.960717710078312E-003  0.000000000000000E+000  3.960717710078315E-002
  3.564645939070483E-002  3.168574168062652E-002  2.772502397054821E-002
  2.376430626046989E-002  1.980358855039158E-002  1.584287084031326E-002
  1.188215313023495E-002  7.921435420156629E-003  3.960717710078312E-003
  0.000000000000000E+000  3.960717710078315E-002  3.564645939070483E-002
  3.168574168062652E-002  2.772502397054821E-002  2.376430626046989E-002
  1.980358855039158E-002  1.584287084031326E-002  1.188215313023495E-002
  7.921435420156629E-003  3.960717710078312E-003  0.000000000000000E+000
  3.960717710078315E-002  3.564645939070483E-002  3.168574168062652E-002
  2.772502397054821E-002  2.376430626046989E-002  1.980358855039158E-002
  1.584287084031326E-002  1.188215313023495E-002  7.921435420156629E-003
  3.960717710078312E-003  0.000000000000000E+000  3.960717710078315E-002
  3.564645939070483E-002  3.168574168062652E-002  2.772502397054821E-002
  2.376430626046989E-002  1.980358855039158E-002  1.584287084031326E-002
  1.188215313023495E-002  7.921435420156629E-003  3.960717710078312E-003
  0.000000000000000E+000  3.960717710078315E-002  3.564645939070483E-002
  3.168574168062652E-002  2.772502397054821E-002  2.376430626046989E-002
  1.980358855039158E-002  1.584287084031326E-002  1.188215313023495E-002
  7.921435420156629E-003  3.960717710078312E-003  0.000000000000000E+000
  3.960717710078315E-002  3.564645939070483E-002  3.168574168062652E-002
  2.772502397054821E-002  2.376430626046989E-002  1.980358855039158E-002
  1.584287084031326E-002  1.188215313023495E-002  7.921435420156629E-003
  3.960717710078312E-003  0.000000000000000E+000  3.960717710078315E-002
  3.564645939070483E-002  3.168574168062652E-002  2.772502397054821E-002
  2.376430626046989E-002  1.980358855039158E-002  1.584287084031326E-002
  1.188215313023495E-002  7.921435420156629E-003  3.960717710078312E-003
  0.000000000000000E+000
  0.391630814689443       0.538669575331529       0.641813559587673     
  0.723429030334603       0.790311882004558       0.845341503093319     
  0.890270106053014       0.926778051877568       0.956531002590515     
  0.979052238702987       0.642219794583366       0.899834392974093     
   1.07878921042308        1.21988832814147        1.33547515687566     
   1.43074419990014        1.50882337714830        1.57272924234974     
   1.62595348013863        1.67155325613952       0.829883530478002     
   1.19959078544472        1.45802745573779        1.66155709088313     
   1.82855916221495        1.96694676009819        2.08141321998650     
   2.17613951279137        2.25605671553569        2.32341778248058     
  0.935408562845511        1.38535588283288        1.70972673688460     
   1.96821802800039        2.18199602548863        2.36060747970559     
   2.50929496884192        2.63160096045926        2.73118571180684     
   2.80651101175292       0.965331664423554        1.45249011267892     
   1.81548999089599        2.11159688003952        2.36035750359491     
   2.57061833289935        2.74675103633350        2.89147839764210     
   3.00675046930384        3.08952630222734       0.941208041879735     
   1.42971809092551        1.80224097297714        2.11163203916787     
   2.37580599267167        2.60218980223715        2.79410981653573     
   2.95277884619977        3.07755120016858        3.16396771438561     
  0.909353521329162        1.38414296173114        1.74813963760358     
   2.05217122527066        2.31349114642836        2.53936543419368     
   2.73268792491338        2.89365012256179        3.02041521370203     
   3.10689480534785       0.912461826145707        1.38189515309609     
   1.73838119192133        2.03424933700045        2.28759272175714     
   2.50623614593545        2.69351171541661        2.85007686764020     
   2.97413435798104        3.05903891228472       0.971188133260168     
   1.45794372881085        1.82030199622591        2.11653179864767     
   2.36730754170552        2.58196039439175        2.76489025828803     
   2.91759903736397        3.03894728013151        3.12269213720552     
   1.07603996348916        1.60311564112621        1.98779725731155     
   2.29707705082825        2.55532692098626        2.77397334240179     
   2.95880988188593        3.11235652617704        3.23422316001029     
   3.31859396410247        1.20633784627975        1.78831385618977     
   2.20706008913996        2.53938041437576        2.81365701671637     
   3.04350748767273        3.23611106109388        3.39493533893778     
   3.52025078521763        3.60660766978734        1.34633208626693     
   1.98943422701926        2.44768000423839        2.80793960065335     
   3.10259590712807        3.34738841352785        3.55080405868028     
   3.71718722064606        3.84740701103555        3.93634799659268     
   1.48651570662273        2.19149623638418        2.69019946194259     
   3.07941169825532        3.39541415484833        3.65599249105686     
   3.87088390481283        4.04526178304784        4.18055099211897     
   4.27194726842837        1.62158953533938        2.38599862395072     
   2.92340105196081        3.34016000745107        3.67631971925488     
   3.95162950902781        4.17700997345443        4.35840824028340     
   4.49777187872582        4.59064384437100        1.74965212155146     
   2.56947289209240        3.14225074578396        3.58359685772397     
   3.93722976705985        4.22482832142193        4.45846201475831     
   4.64480180490193        4.78627600055529        4.87884259673845     
   1.87255661532513        2.74369641738327        3.34779784720142     
   3.80968452999408        4.17683111254974        4.47295738824971     
   4.71137609283606        4.89952962539352        5.04034828663715     
   5.13034249154906        1.99554043488279        2.91482444801745     
   3.54582333034442        4.02321407081370        4.39863792859353     
   4.69817597184702        4.93664501900187        5.12247089575882     
   5.25927820776371        5.34440556191858        2.12013504310773     
   3.08343403192864        3.73547473882459        4.22194093235120     
   4.59922572006456        4.89610828259871        5.12913829215653     
   5.30794802619415        5.43712707038696        5.51520601573155     
   2.22958473809039        3.22454756209336        3.88617236319876     
   4.37143075649522        4.74168863247866        5.02845684171838     
   5.24991515171908        5.41678449801020        5.53460794785112     
   5.60332276805825        2.29330253643455        3.29271652735402     
   3.94217065004110        4.40853196755561        4.75766991249156     
   5.02338819424644        5.22503536644741        5.37397643305443     
   5.47634708571791        5.53341922761839        2.27902293982374     
   3.23888342335041        3.84333146440594        4.26608082966483     
   4.57591108768792        4.80760082642618        4.98060994334917     
   5.10614461278903        5.19030252116306        5.23516858379492     
   2.15559229283460        3.01550711498447        3.53452212725464     
   3.88732530024468        4.14120272059567        4.32875934849788     
   4.46762744990246        4.56785768717807        4.63513792480266     
   4.67174689117297        1.89489157121511        2.58467371470333     
   2.98235158326230        3.24763338246137        3.43710976824786     
   3.57675530944902        3.68035102392465        3.75610830264919     
   3.81010461969961        3.84862833757857        1.46778685414129     
   1.93487143108595        2.19941428021597        2.37597514278470     
   2.50246808330372        2.59601389272874        2.66569377362914     
   2.71696415501559        2.75401793544678        2.78350715984424     
  0.897039949598330        1.15847148995239        1.30781578179202     
   1.40801783742614        1.48004927889583        1.53343130992355     
   1.57319837733445        1.60224325245366        1.62227973106127     
   1.63344330143295     
  0.000000000000000E+000  0.000000000000000E+000  0.000000000000000E+000
  0.000000000000000E+000  0.000000000000000E+000  0.000000000000000E+000
  0.000000000000000E+000  0.000000000000000E+000  0.000000000000000E+000
  0.000000000000000E+000  0.000000000000000E+000  0.000000000000000E+000
  0.000000000000000E+000  0.000000000000000E+000  0.000000000000000E+000
  0.000000000000000E+000  0.000000000000000E+000  0.000000000000000E+000
  0.000000000000000E+000  0.000000000000000E+000  0.000000000000000E+000
  0.000000000000000E+000  0.000000000000000E+000  0.000000000000000E+000
  0.000000000000000E+000  0.000000000000000E+000  0.000000000000000E+000
  0.000000000000000E+000  0.000000000000000E+000  0.000000000000000E+000
  0.000000000000000E+000  0.000000000000000E+000  0.000000000000000E+000
  0.000000000000000E+000  0.000000000000000E+000  0.000000000000000E+000
  0.000000000000000E+000  0.000000000000000E+000  0.000000000000000E+000
  0.000000000000000E+000  0.000000000000000E+000  0.000000000000000E+000
  0.000000000000000E+000  0.000000000000000E+000  0.000000000000000E+000
  0.000000000000000E+000  0.000000000000000E+000  0.000000000000000E+000
  0.000000000000000E+000  0.000000000000000E+000  0.000000000000000E+000
  0.000000000000000E+000  0.000000000000000E+000  0.000000000000000E+000
  0.000000000000000E+000  0.000000000000000E+000  0.000000000000000E+000
  0.000000000000000E+000  0.000000000000000E+000  0.000000000000000E+000
  0.000000000000000E+000  0.000000000000000E+000  0.000000000000000E+000
  0.000000000000000E+000  0.000000000000000E+000  0.000000000000000E+000
  0.000000000000000E+000  0.000000000000000E+000  0.000000000000000E+000
  0.000000000000000E+000  0.000000000000000E+000  0.000000000000000E+000
  0.000000000000000E+000  0.000000000000000E+000  0.000000000000000E+000
  0.000000000000000E+000  0.000000000000000E+000  0.000000000000000E+000
  0.000000000000000E+000  0.000000000000000E+000  0.000000000000000E+000
  0.000000000000000E+000  0.000000000000000E+000  0.000000000000000E+000
  0.000000000000000E+000  0.000000000000000E+000  0.000000000000000E+000
  0.000000000000000E+000  0.000000000000000E+000  0.000000000000000E+000
  0.000000000000000E+000  0.000000000000000E+000  0.000000000000000E+000
  0.000000000000000E+000  0.000000000000000E+000  0.000000000000000E+000
  0.000000000000000E+000  0.000000000000000E+000  0.000000000000000E+000
  0.000000000000000E+000  0.000000000000000E+000  0.000000000000000E+000
  0.000000000000000E+000  0.000000000000000E+000  0.000000000000000E+000
  0.000000000000000E+000  0.000000000000000E+000  0.000000000000000E+000
  0.000000000000000E+000  0.000000000000000E+000  0.000000000000000E+000
  0.000000000000000E+000  0.000000000000000E+000  0.000000000000000E+000
  0.000000000000000E+000  0.000000000000000E+000  0.000000000000000E+000