 Title = "Wing and Tip"
 VARIABLES = "X" "Y" "Z" "GAM"
 Zone I=   11 J=   26 K=1  T="Blade"
 DATAPACKING=BLOCK
 VARLOCATION=([4]=CELLCENTERED)
  0.251280154874682       0.243434863946630       0.235589573018579     
  0.227744282090527       0.219898991162475       0.212053700234423     
  0.204208409306371       0.196363118378319       0.188517827450267     
  0.180672536522215       0.172827245594163       0.254686323492779     
  0.246841032564727       0.238995741636675       0.231150450708623     
  0.223305159780571       0.215459868852519       0.207614577924467     
  0.199769286996415       0.191923996068364       0.184078705140312     
  0.176233414212260       0.264851112033214       0.257005821105162     
  0.249160530177110       0.241315239249058       0.233469948321006     
  0.225624657392954       0.217779366464902       0.209934075536850     
  0.202088784608798       0.194243493680747       0.186398202752695     
  0.281614215708555       0.273768924780503       0.265923633852451     
  0.258078342924399       0.250233051996347       0.242387761068295     
  0.234542470140243       0.226697179212191       0.218851888284139     
  0.211006597356088       0.203161306428036       0.304711270360048     
  0.296865979431996       0.289020688503944       0.281175397575893     
  0.273330106647841       0.265484815719789       0.257639524791737     
  0.249794233863685       0.241948942935633       0.234103652007581     
  0.226258361079529       0.333778021638329       0.325932730710277     
  0.318087439782225       0.310242148854173       0.302396857926121     
  0.294551566998069       0.286706276070017       0.278860985141966     
  0.271015694213914       0.263170403285862       0.255325112357810     
  0.368356069512103       0.360510778584051       0.352665487655999     
  0.344820196727947       0.336974905799895       0.329129614871843     
  0.321284323943791       0.313439033015739       0.305593742087688     
  0.297748451159636       0.289903160231584       0.407900097510476     
  0.400054806582424       0.392209515654372       0.384364224726320     
  0.376518933798268       0.368673642870216       0.360828351942164     
  0.352983061014112       0.345137770086060       0.337292479158009     
  0.329447188229957       0.451786472689456       0.443941181761404     
  0.436095890833353       0.428250599905301       0.420405308977249     
  0.412560018049197       0.404714727121145       0.396869436193093     
  0.389024145265041       0.381178854336990       0.373333563408937     
  0.499323080696022       0.491477789767970       0.483632498839918     
  0.475787207911866       0.467941916983814       0.460096626055763     
  0.452251335127710       0.444406044199659       0.436560753271607     
  0.428715462343555       0.420870171415503       0.549760240824916     
  0.541914949896864       0.534069658968813       0.526224368040760     
  0.518379077112709       0.510533786184657       0.502688495256605     
  0.494843204328553       0.486997913400501       0.479152622472449     
  0.471307331544397       0.602302528931207       0.594457238003155     
  0.586611947075103       0.578766656147051       0.570921365218999     
  0.563076074290948       0.555230783362895       0.547385492434844     
  0.539540201506792       0.531694910578740       0.523849619650688     
  0.656121321744217       0.648276030816165       0.640430739888113     
  0.632585448960061       0.624740158032010       0.616894867103957     
  0.609049576175905       0.601204285247854       0.593358994319802     
  0.585513703391750       0.577668412463698       0.710367864751497     
  0.702522573823445       0.694677282895393       0.686831991967341     
  0.678986701039289       0.671141410111236       0.663296119183185     
  0.655450828255133       0.647605537327081       0.639760246399029     
  0.631914955470977       0.764186657564506       0.756341366636455     
  0.748496075708403       0.740650784780351       0.732805493852299     
  0.724960202924247       0.717114911996195       0.709269621068143     
  0.701424330140091       0.693579039212039       0.685733748283987     
  0.816728945670797       0.808883654742745       0.801038363814694     
  0.793193072886642       0.785347781958590       0.777502491030538     
  0.769657200102486       0.761811909174434       0.753966618246382     
  0.746121327318330       0.738276036390279       0.867166105799691     
  0.859320814871640       0.851475523943588       0.843630233015536     
  0.835784942087484       0.827939651159432       0.820094360231380     
  0.812249069303328       0.804403778375277       0.796558487447224     
  0.788713196519172       0.914702713806257       0.906857422878205     
  0.899012131950153       0.891166841022101       0.883321550094049     
  0.875476259165997       0.867630968237945       0.859785677309894     
  0.851940386381842       0.844095095453789       0.836249804525737     
  0.958589088985237       0.950743798057185       0.942898507129133     
  0.935053216201082       0.927207925273030       0.919362634344978     
  0.911517343416926       0.903672052488874       0.895826761560822     
  0.887981470632770       0.880136179704718       0.998133116983611     
  0.990287826055559       0.982442535127506       0.974597244199455     
  0.966751953271403       0.958906662343351       0.951061371415299     
  0.943216080487248       0.935370789559195       0.927525498631143     
  0.919680207703092        1.03271116485738        1.02486587392933     
   1.01702058300128        1.00917529207323        1.00133000114518     
  0.993484710217125       0.985639419289073       0.977794128361021     
  0.969948837432969       0.962103546504917       0.954258255576865     
   1.06177791613567        1.05393262520761        1.04608733427956     
   1.03824204335151        1.03039675242346        1.02255146149541     
   1.01470617056735        1.00686087963930       0.999015588711250     
  0.991170297783198       0.983325006855147        1.08487497078716     
   1.07702967985911        1.06918438893106        1.06133909800300     
   1.05349380707495        1.04564851614690        1.03780322521885     
   1.02995793429080        1.02211264336274        1.01426735243469     
   1.00642206150664        1.10163807446250        1.09379278353445     
   1.08594749260640        1.07810220167834        1.07025691075029     
   1.06241161982224        1.05456632889419        1.04672103796614     
   1.03887574703808        1.03103045611003        1.02318516518198     
   1.11180286300293        1.10395757207488        1.09611228114683     
   1.08826699021878        1.08042169929073        1.07257640836267     
   1.06473111743462        1.05688582650657        1.04904053557852     
   1.04119524465047        1.03334995372242        1.11520903162103     
   1.10736374069298        1.09951844976493        1.09167315883688     
   1.08382786790882        1.07598257698077        1.06813728605272     
   1.06029199512467        1.05244670419662        1.04460141326856     
   1.03675612234051     
  8.879511720738266E-002  7.189344198049172E-002  5.499176675360091E-002
  3.809009152670993E-002  2.118841629981901E-002  4.286741072928130E-003
 -1.261493415396284E-002 -2.951660938085375E-002 -4.641828460774464E-002
 -6.331995983463561E-002 -8.022163506152655E-002  8.721406779066869E-002
  7.031239256377771E-002  5.341071733688681E-002  3.650904210999586E-002
  1.960736688310493E-002  2.705691656214055E-003 -1.419598357067692E-002
 -3.109765879756781E-002 -4.799933402445877E-002 -6.490100925134973E-002
 -8.180268447824064E-002  8.249585363430131E-002  6.559417840741050E-002
  4.869250318051944E-002  3.179082795362857E-002  1.488915272673761E-002
 -2.012522500153348E-003 -1.891419772704426E-002 -3.581587295393521E-002
 -5.271754818082610E-002 -6.961922340771706E-002 -8.652089863460802E-002
  7.471488379405089E-002  5.781320856716001E-002  4.091153334026898E-002
  2.400985811337815E-002  7.108182886487248E-003 -9.793492340403718E-003
 -2.669516756729472E-002 -4.359684279418552E-002 -6.049851802107651E-002
 -7.740019324796743E-002 -9.430186847485837E-002  6.399386881242446E-002
  4.709219358553361E-002  3.019051835864264E-002  1.328884313175171E-002
 -3.612832095139337E-003 -2.051450732203016E-002 -3.741618254892114E-002
 -5.431785777581202E-002 -7.121953300270298E-002 -8.812120822959381E-002
 -0.105022883456485       5.050188550010610E-002  3.360021027321513E-002
  1.669853504632426E-002 -2.031401805666685E-004 -1.710481540745761E-002
 -3.400649063434868E-002 -5.090816586123943E-002 -6.780984108813044E-002
 -8.471151631502136E-002 -0.101613191541912      -0.118514866768803     
  3.445171049365122E-002  1.755003526676039E-002  6.483600398692851E-004
 -1.625331518702163E-002 -3.315499041391248E-002 -5.005666564080342E-002
 -6.695834086769423E-002 -8.386001609458517E-002 -0.100761691321476     
 -0.117663366548367      -0.134565041775258       1.609646464082137E-002
 -8.052105860694934E-004 -1.770688581296065E-002 -3.460856103985145E-002
 -5.151023626674230E-002 -6.841191149363324E-002 -8.531358672052412E-002
 -0.102215261947415      -0.119116937174306      -0.136018612401197     
 -0.152920287628088      -4.274378866391834E-003 -2.117605409328287E-002
 -3.807772932017361E-002 -5.497940454706442E-002 -7.188107977395559E-002
 -8.878275500084648E-002 -0.105684430227737      -0.122586105454628     
 -0.139487780681519      -0.156389455908410      -0.173291131135301     
 -2.633955965692756E-002 -4.324123488381867E-002 -6.014291011070949E-002
 -7.704458533760046E-002 -9.394626056449160E-002 -0.110847935791382     
 -0.127749611018273      -0.144651286245164      -0.161552961472055     
 -0.178454636698946      -0.195356311925837      -4.975109664861931E-002
 -6.665277187551014E-002 -8.355444710240120E-002 -0.100456122329292     
 -0.117357797556183      -0.134259472783074      -0.151161148009965     
 -0.168062823236856      -0.184964498463747      -0.201866173690638     
 -0.218767848917529      -7.413977591773327E-002 -9.104145114462435E-002
 -0.107943126371515      -0.124844801598406      -0.141746476825297     
 -0.158648152052188      -0.175549827279079      -0.192451502505970     
 -0.209353177732861      -0.226254852959752      -0.243156528186643     
 -9.912097342310494E-002 -0.116022648649996      -0.132924323876887     
 -0.149825999103778      -0.166727674330669      -0.183629349557560     
 -0.200531024784451      -0.217432700011342      -0.234334375238232     
 -0.251236050465123      -0.268137725692015      -0.124300720757031     
 -0.141202395983922      -0.158104071210812      -0.175005746437704     
 -0.191907421664595      -0.208809096891485      -0.225710772118377     
 -0.242612447345267      -0.259514122572158      -0.276415797799049     
 -0.293317473025940      -0.149281918262403      -0.166183593489294     
 -0.183085268716185      -0.199986943943075      -0.216888619169967     
 -0.233790294396857      -0.250691969623748      -0.267593644850639     
 -0.284495320077530      -0.301396995304421      -0.318298670531312     
 -0.173670597531517      -0.190572272758408      -0.207473947985298     
 -0.224375623212189      -0.241277298439080      -0.258178973665972     
 -0.275080648892862      -0.291982324119753      -0.308883999346644     
 -0.325785674573535      -0.342687349800426      -0.197082134523208     
 -0.213983809750099      -0.230885484976990      -0.247787160203881     
 -0.264688835430772      -0.281590510657663      -0.298492185884554     
 -0.315393861111445      -0.332295536338336      -0.349197211565227     
 -0.366098886792118      -0.219147315313744      -0.236048990540635     
 -0.252950665767526      -0.269852340994417      -0.286754016221308     
 -0.303655691448199      -0.320557366675090      -0.337459041901981     
 -0.354360717128871      -0.371262392355763      -0.388164067582653     
 -0.239518158820957      -0.256419834047848      -0.273321509274739     
 -0.290223184501630      -0.307124859728521      -0.324026534955412     
 -0.340928210182303      -0.357829885409194      -0.374731560636085     
 -0.391633235862976      -0.408534911089867      -0.257873404673787     
 -0.274775079900678      -0.291676755127569      -0.308578430354460     
 -0.325480105581351      -0.342381780808242      -0.359283456035133     
 -0.376185131262024      -0.393086806488914      -0.409988481715806     
 -0.426890156942696      -0.273923579680242      -0.290825254907133     
 -0.307726930134024      -0.324628605360915      -0.341530280587806     
 -0.358431955814696      -0.375333631041588      -0.392235306268478     
 -0.409136981495369      -0.426038656722260      -0.442940331949151     
 -0.287415562992561      -0.304317238219451      -0.321218913446342     
 -0.338120588673233      -0.355022263900124      -0.371923939127015     
 -0.388825614353906      -0.405727289580797      -0.422628964807688     
 -0.439530640034579      -0.456432315261470      -0.298136577974187     
 -0.315038253201078      -0.331939928427969      -0.348841603654860     
 -0.365743278881750      -0.382644954108642      -0.399546629335532     
 -0.416448304562423      -0.433349979789315      -0.450251655016205     
 -0.467153330243097      -0.305917547814438      -0.322819223041328     
 -0.339720898268219      -0.356622573495110      -0.373524248722001     
 -0.390425923948892      -0.407327599175783      -0.424229274402674     
 -0.441130949629565      -0.458032624856456      -0.474934300083347     
 -0.310635761970805      -0.327537437197695      -0.344439112424586     
 -0.361340787651477      -0.378242462878368      -0.395144138105259     
 -0.412045813332150      -0.428947488559041      -0.445849163785932     
 -0.462750839012823      -0.479652514239714      -0.312216811387518     
 -0.329118486614410      -0.346020161841300      -0.362921837068192     
 -0.379823512295082      -0.396725187521973      -0.413626862748864     
 -0.430528537975755      -0.447430213202646      -0.464331888429537     
 -0.481233563656428     
  3.960717710078315E-002  3.564645939070483E-002  3.168574168062652E-002
  2.772502397054821E-002  2.376430626046989E-002  1.980358855039158E-002
  1.584287084031326E-002  1.188215313023495E-002  7.921435420156629E-003
  3.960717710078312E-003  0.000000000000000E+000  3.960717710078315E-002
  3.564645939070483E-002  3.168574168062652E-002  2.772502397054821E-002
  2.376430626046989E-002  1.980358855039158E-002  1.584287084031326E-002
  1.188215313023495E-002  7.921435420156629E-003  3.960717710078312E-003
  0.000000000000000E+000  3.960717710078315E-002  3.564645939070483E-002
  3.168574168062652E-002  2.772502397054821E-002  2.376430626046989E-002
  1.980358855039158E-002  1.584287084031326E-002  1.188215313023495E-002
  7.921435420156629E-003  3.960717710078312E-003  0.000000000000000E+000
  3.960717710078315E-002  3.564645939070483E-002  3.168574168062652E-002
  2.772502397054821E-002  2.376430626046989E-002  1.980358855039158E-002
  1.584287084031326E-002  1.188215313023495E-002  7.921435420156629E-003
  3.960717710078312E-003  0.000000000000000E+000  3.960717710078315E-002
  3.564645939070483E-002  3.168574168062652E-002  2.772502397054821E-002
  2.376430626046989E-002  1.980358855039158E-002  1.584287084031326E-002
  1.188215313023495E-002  7.921435420156629E-003  3.960717710078312E-003
  0.000000000000000E+000  3.960717710078315E-002  3.564645939070483E-002
  3.168574168062652E-002  2.772502397054821E-002  2.376430626046989E-002
  1.980358855039158E-002  1.584287084031326E-002  1.188215313023495E-002
  7.921435420156629E-003  3.960717710078312E-003  0.000000000000000E+000
  3.960717710078315E-002  3.564645939070483E-002  3.168574168062652E-002
  2.772502397054821E-002  2.376430626046989E-002  1.980358855039158E-002
  1.584287084031326E-002  1.188215313023495E-002  7.921435420156629E-003
  3.960717710078312E-003  0.000000000000000E+000  3.960717710078315E-002
  3.564645939070483E-002  3.168574168062652E-002  2.772502397054821E-002
  2.376430626046989E-002  1.980358855039158E-002  1.584287084031326E-002
  1.188215313023495E-002  7.921435420156629E-003  3.960717710078312E-003
  0.000000000000000E+000  3.960717710078315E-002  3.564645939070483E-002
  3.168574168062652E-002  2.772502397054821E-002  2.376430626046989E-002
  1.980358855039158E-002  1.584287084031326E-002  1.188215313023495E-002
  7.921435420156629E-003  3.960717710078312E-003  0.000000000000000E+000
  3.960717710078315E-002  3.564645939070483E-002  3.168574168062652E-002
  2.772502397054821E-002  2.376430626046989E-002  1.980358855039158E-002
  1.584287084031326E-002  1.188215313023495E-002  7.921435420156629E-003
  3.960717710078312E-003  0.000000000000000E+000  3.960717710078315E-002
  3.564645939070483E-002  3.168574168062652E-002  2.772502397054821E-002
  2.376430626046989E-002  1.980358855039158E-002  1.584287084031326E-002
  1.188215313023495E-002  7.921435420156629E-003  3.960717710078312E-003
  0.000000000000000E+000  3.960717710078315E-002  3.564645939070483E-002
  3.168574168062652E-002  2.772502397054821E-002  2.376430626046989E-002
  1.980358855039158E-002  1.584287084031326E-002  1.188215313023495E-002
  7.921435420156629E-003  3.960717710078312E-003  0.000000000000000E+000
  3.960717710078315E-002  3.564645939070483E-002  3.168574168062652E-002
  2.772502397054821E-002  2.376430626046989E-002  1.980358855039158E-002
  1.584287084031326E-002  1.188215313023495E-002  7.921435420156629E-003
  3.960717710078312E-003  0.000000000000000E+000  3.960717710078315E-002
  3.564645939070483E-002  3.168574168062652E-002  2.772502397054821E-002
  2.376430626046989E-002  1.980358855039158E-002  1.584287084031326E-002
  1.188215313023495E-002  7.921435420156629E-003  3.960717710078312E-003
  0.000000000000000E+000  3.960717710078315E-002  3.564645939070483E-002
  3.168574168062652E-002  2.772502397054821E-002  2.376430626046989E-002
  1.980358855039158E-002  1.584287084031326E-002  1.188215313023495E-002
  7.921435420156629E-003  3.960717710078312E-003  0.000000000000000E+000
  3.960717710078315E-002  3.564645939070483E-002  3.168574168062652E-002
  2.772502397054821E-002  2.376430626046989E-002  1.980358855039158E-002
  1.584287084031326E-002  1.188215313023495E-002  7.921435420156629E-003
  3.960717710078312E-003  0.000000000000000E+000  3.960717710078315E-002
  3.564645939070483E-002  3.168574168062652E-002  2.772502397054821E-002
  2.376430626046989E-002  1.980358855039158E-002  1.584287084031326E-002
  1.188215313023495E-002  7.921435420156629E-003  3.960717710078312E-003
  0.000000000000000E+000  3.960717710078315E-002  3.564645939070483E-002
  3.168574168062652E-002  2.772502397054821E-002  2.376430626046989E-002
  1.980358855039158E-002  1.584287084031326E-002  1.188215313023495E-002
  7.921435420156629E-003  3.960717710078312E-003  0.000000000000000E+000
  3.960717710078315E-002  3.564645939070483E-002  3.168574168062652E-002
  2.772502397054821E-002  2.376430626046989E-002  1.980358855039158E-002
  1.584287084031326E-002  1.188215313023495E-002  7.921435420156629E-003
  3.960717710078312E-003  0.000000000000000E+000  3.960717710078315E-002
  3.564645939070483E-002  3.168574168062652E-002  2.772502397054821E-002
  2.376430626046989E-002  1.980358855039158E-002  1.584287084031326E-002
  1.188215313023495E-002  7.921435420156629E-003  3.960717710078312E-003
  0.000000000000000E+000  3.960717710078315E-002  3.564645939070483E-002
  3.168574168062652E-002  2.772502397054821E-002  2.376430626046989E-002
  1.980358855039158E-002  1.584287084031326E-002  1.188215313023495E-002
  7.921435420156629E-003  3.960717710078312E-003  0.000000000000000E+000
  3.960717710078315E-002  3.564645939070483E-002  3.168574168062652E-002
  2.772502397054821E-002  2.376430626046989E-002  1.980358855039158E-002
  1.584287084031326E-002  1.188215313023495E-002  7.921435420156629E-003
  3.960717710078312E-003  0.000000000000000E+000  3.960717710078315E-002
  3.564645939070483E-002  3.168574168062652E-002  2.772502397054821E-002
  2.376430626046989E-002  1.980358855039158E-002  1.584287084031326E-002
  1.188215313023495E-002  7.921435420156629E-003  3.960717710078312E-003
  0.000000000000000E+000  3.960717710078315E-002  3.564645939070483E-002
  3.168574168062652E-002  2.772502397054821E-002  2.376430626046989E-002
  1.980358855039158E-002  1.584287084031326E-002  1.188215313023495E-002
  7.921435420156629E-003  3.960717710078312E-003  0.000000000000000E+000
  3.960717710078315E-002  3.564645939070483E-002  3.168574168062652E-002
  2.772502397054821E-002  2.376430626046989E-002  1.980358855039158E-002
  1.584287084031326E-002  1.188215313023495E-002  7.921435420156629E-003
  3.960717710078312E-003  0.000000000000000E+000  3.960717710078315E-002
  3.564645939070483E-002  3.168574168062652E-002  2.772502397054821E-002
  2.376430626046989E-002  1.980358855039158E-002  1.584287084031326E-002
  1.188215313023495E-002  7.921435420156629E-003  3.960717710078312E-003
  0.000000000000000E+000
  0.294710009954974       0.409232550905017       0.490139200760372     
  0.554179794766095       0.606471220632698       0.649069808293277     
  0.683381627488116       0.710516897882116       0.731058900103664     
  0.743814294268532       0.491609526981792       0.693802406901655     
  0.834984945165221       0.946210562171148        1.03699578650912     
   1.11113240239200        1.17110940327400        1.21888789309389     
   1.25587549855414        1.28290078975050       0.666722496847095     
  0.964956689452949        1.17287241767165        1.33583397932794     
   1.46879233714030        1.57789156299214        1.66699385900328     
   1.73881797465473        1.79534709860948        1.83635524064303     
  0.818214917285268        1.20280994862699        1.47509130048918     
   1.68928891694270        1.86439801629306        2.00843545828189     
   2.12689590896121        2.22226779223343        2.29556869140801     
   2.34271011079350       0.958123752998952        1.41777473531154     
   1.74729872468655        2.00822469991142        2.22214011677096     
   2.39933585881571        2.54537849987330        2.66289582082118     
   2.75209739699107        2.80691252676375        1.09512969628343     
   1.62362682468632        2.00378127119162        2.30514291263211     
   2.55300460182123        2.75906293592111        2.92920994598462     
   3.06610905497675        3.16929981588486        3.23237537536444     
   1.23154939018950        1.82600870920064        2.25346355246936     
   2.59194107116772        2.87002279158151        3.10108558495711     
   3.29186787381094        3.44529027650870        3.56082040869389     
   3.63192777174175        1.36722890913203        2.02586818310190     
   2.49858679264773        2.87216306221788        3.17844251689236     
   3.43245545648338        3.64188623483844        3.81016157314208     
   3.93693453567617        4.01545725935029        1.50232581541876     
   2.22373636420505        2.74001560054336        3.14696924574393     
   3.47983336117473        3.75536154558155        3.98221964119876     
   4.16434167230963        4.30154655634491        4.38689488401504     
   1.63703533564750        2.42022082892554        2.97878705183292     
   3.41774923736855        3.77587866060611        4.07169624472100     
   4.31486380921152        4.50988173142319        4.65680178982836     
   4.74854493312541        1.77079745150285        2.61472653016673     
   3.21439969300302        3.68407402310656        4.06612554205784     
   4.38091947471064        4.63916582675949        4.84596866573660     
   5.00167498084695        5.09913322746603        1.90174798172758     
   2.80463906676888        3.44378583070949        3.94257046897278     
   4.34695768604865        4.67916527831651        4.95098245985274     
   5.16817347391672        5.33145326569822        5.43370052524942     
   2.02655753195631        2.98511334307278        3.66110371558324     
   4.18667381849212        4.61123875380319        4.95882564415782     
   5.24231661974751        5.46817456708325        5.63753992274298     
   5.74343925779212        2.14046185121903        3.14910394398144     
   3.85770732276815        4.40652671288030        4.84818706131665     
   5.20841918647473        5.50115438517431        5.73355046347543     
   5.90721867261935        6.01546656349508        2.23736823227271     
   3.28752752602556        4.02235177601038        4.58919709305951     
   5.04353483372497        5.41262675255970        5.71136898758299     
   5.94758930916785        6.12340698783329        6.23255366856703     
   2.31036159353829        3.39001149438438        4.14209624524428     
   4.71965527027959        5.18051168077216        5.55323578898684     
   5.85358472130749        6.09003115269372        6.26524909099735     
   6.37357171841891        2.35310225299202        3.44684321350631     
   4.20455965981559        4.78320995868568        5.24237923924072     
   5.61171348045342        5.90774239893462        6.13957389124056     
   6.31050933460798        6.41572839358715        2.36307284570258     
   3.45326300380451        4.20264093176059        4.77040318254632     
   5.21741126072364        5.57423337420052        5.85814396026996     
   6.07891860382435        6.24059005866680        6.33949669584319     
   2.34648601148826        3.41542921354094        4.14072763737538     
   4.68330151889935        5.10535010852189        5.43844359394402     
   5.70062459280132        5.90233931357772        6.04839996635896     
   6.13660343723594        2.31159094951233        3.34105985592173     
   4.02447545508757        4.52566455934276        4.90876635929162     
   5.20646916954058        5.43742683207695        5.61250352490775     
   5.73704942925470        5.81030253567023        2.23786789903198     
   3.19936007765785        3.81732130147197        4.25860713698658     
   4.58897796672449        4.84149538408523        5.03463782957711     
   5.17905941377580        5.28007258912950        5.33762364633989     
   2.08206615128709        2.92884463834441        3.45034855362357     
   3.81218734752072        4.07815221729175        4.27902922994901     
   4.43145569055617        4.54498794669153        4.62467442166611     
   4.67073119551033        1.80891683334841        2.48186451097146     
   2.87827675756903        3.14820980301606        3.34507423168364     
   3.49328640400523        3.60583978524485        3.69052423328463     
   3.75285688434225        3.79745655247260        1.39011025701890     
   1.84452014612727        2.10781408381085        2.28714473196025     
   2.41824127543613        2.51715648110181        2.59245021495102     
   2.64925990051009        2.69132320535004        2.72409599083231     
  0.846833794840687        1.10126725589634        1.24997058370036     
   1.35175487605708        1.42638088178480        1.48277224212696     
   1.52566835083895        1.55778403265859        1.58059776033908     
   1.59369309975397     
 Zone I=   41 J=1    K=1  T="NearWake"
 DATAPACKING=BLOCK
 VARLOCATION=([4]=CELLCENTERED)
  0.974870901556437       0.859775826750001       0.712702890414345     
  0.547254202537901       0.366750648472272       0.174390270733362     
 -2.633946444448886E-002 -0.219157243464347      -0.400040519046472     
 -0.565348069130241      -0.711628343855032      -0.836508340253979     
 -0.938676427063454       -1.01776133428683       -1.07418809778744     
  -1.10902842439780       -1.12385808289615       -1.12063648407235     
  -1.10164680463281       -1.06965193862041       -1.02969329440178     
 -0.988011271771151      -0.950323511308244      -0.871433278668465     
 -0.806148139710620      -0.731467240262002      -0.658394030296888     
 -0.587693092596653      -0.512301650735094      -0.444197912652488     
 -0.375447366360376      -0.314980653563235      -0.261986490320693     
 -0.211646975686023      -0.163002388322013      -0.124738133677587     
 -9.302984943605287E-002 -6.715760888811448E-002 -3.847484438717769E-002
 -1.352609635490217E-002 -6.038531213081959E-003
 -0.467785724358717      -0.655421607533203      -0.809867345427205     
 -0.936263489754969       -1.02900755692494       -1.08400723913753     
  -1.10203275029851       -1.08535676063659       -1.03635081576183     
 -0.959806031200289      -0.860261124912331      -0.742515183704094     
 -0.611340797687290      -0.471284131066209      -0.326524835193759     
 -0.180782252380046      -3.726337169221104E-002  0.101350059401976     
  0.232868355637302       0.355474683717947       0.466972783075018     
  0.575314379716674       0.687028977024628       0.762936306679037     
  0.844533941068690       0.905870370012741       0.964831965196962     
   1.01043042349603        1.04646077995055        1.07815507998913     
   1.08869337270943        1.10946808604991        1.13521297458024     
   1.13524726941915        1.12085663780538        1.13327648846893     
   1.12510918443711        1.11950239886533        1.07028772842122     
   1.04746069861521        1.04805475068724     
 -2.945501272318378E-003 -2.945501272318379E-003 -2.693581739485704E-002
 -4.437858699365225E-002 -5.258038381643420E-002 -5.632137951572290E-002
 -5.410158789602076E-002 -5.767276911711150E-002 -6.013745153829137E-002
 -6.191087100878143E-002 -6.318504832099792E-002 -6.412967596400827E-002
 -6.485217297480747E-002 -6.541510325749125E-002 -6.585151494281900E-002
 -6.616679985443570E-002 -6.633624356758094E-002 -6.629595649696016E-002
 -6.591708540054909E-002 -6.493902370767045E-002 -6.341760316421799E-002
 -7.152231697156625E-002 -7.099468754107510E-002 -6.706708467957667E-002
 -6.486119708873661E-002 -5.960863421389802E-002 -5.654776613000157E-002
 -5.463995230187943E-002 -4.677643473985619E-002 -4.416692488665885E-002
 -4.212336409613989E-002 -3.414310692667960E-002 -3.739351037479974E-002