 Title = "Wing and Tip"
 VARIABLES = "X" "Y" "Z" "GAM"
 Zone I=   11 J=   26 K=1  T="Blade"
 DATAPACKING=BLOCK
 VARLOCATION=([4]=CELLCENTERED)
  0.109258511145437       9.176627874316094E-002  7.427404634088502E-002
  5.678181393860890E-002  3.928958153633276E-002  2.179734913405676E-002
  4.305116731780717E-003 -1.318711567049539E-002 -3.067934807277135E-002
 -4.817158047504753E-002 -6.566381287732365E-002  0.107964374807163     
  9.047214240488648E-002  7.297991000261041E-002  5.548767760033443E-002
  3.799544519805832E-002  2.050321279578231E-002  3.010980393506220E-003
 -1.448125200876989E-002 -3.197348441104594E-002 -4.946571681332195E-002
 -6.695794921559808E-002  0.104102375095473       8.661014269319761E-002
  6.911791029092137E-002  5.162567788864533E-002  3.413344548636931E-002
  1.664121308409322E-002 -8.510193181829399E-004 -1.834325172045901E-002
 -3.583548412273498E-002 -5.332771652501115E-002 -7.081994892728721E-002
  9.773341805286966E-002  8.024118565059363E-002  6.274895324831746E-002
  4.525672084604155E-002  2.776448844376551E-002  1.027225604148934E-002
 -7.219976360786775E-003 -2.471220876306272E-002 -4.220444116533878E-002
 -5.969667356761489E-002 -7.718890596989093E-002  8.895794593654366E-002
  7.146571353426778E-002  5.397348113199163E-002  3.648124872971564E-002
  1.898901632743947E-002  1.496783925163453E-003 -1.599544847711264E-002
 -3.348768087938866E-002 -5.097991328166477E-002 -6.847214568394075E-002
 -8.596437808621686E-002  7.791435318398302E-002  6.042212078170695E-002
  4.292988837943090E-002  2.543765597715487E-002  7.945423574878733E-003
 -9.546808827397500E-003 -2.703904122967333E-002 -4.453127363194951E-002
 -6.202350603422559E-002 -7.951573843650149E-002 -9.700797083877762E-002
  6.477680385001795E-002  4.728457144774191E-002  2.979233904546573E-002
  1.230010664318967E-002 -5.192125759086464E-003 -2.268435816136241E-002
 -4.017659056363835E-002 -5.766882296591448E-002 -7.516105536819048E-002
 -9.265328777046664E-002 -0.110145520172743       4.975248493563665E-002
  3.226025253336055E-002  1.476802013108430E-002 -2.724212271191503E-003
 -2.021644467346756E-002 -3.770867707574361E-002 -5.520090947801972E-002
 -7.269314188029577E-002 -9.018537428257185E-002 -0.107677606684848     
 -0.125169839087124       3.307833892521197E-002  1.558610652293591E-002
 -1.906125879340044E-003 -1.939835828161595E-002 -3.689059068389219E-002
 -5.438282308616830E-002 -7.187505548844446E-002 -8.936728789072047E-002
 -0.106859520292997      -0.124351752695273      -0.141843985097549     
  1.501732706198053E-002 -2.474905340295524E-003 -1.996713774257165E-002
 -3.745937014484769E-002 -5.495160254712393E-002 -7.244383494939978E-002
 -8.993606735167581E-002 -0.107428299753952      -0.124920532156228     
 -0.142412764558504      -0.159904996960780      -4.145717707849305E-003
 -2.163795011012525E-002 -3.913018251240133E-002 -5.662241491467718E-002
 -7.411464731695340E-002 -9.160687971922947E-002 -0.109099112121506     
 -0.126591344523782      -0.144083576926058      -0.161575809328334     
 -0.179068041730610      -2.410858272080890E-002 -4.160081512308501E-002
 -5.909304752536117E-002 -7.658527992763725E-002 -9.407751232991303E-002
 -0.111569744732189      -0.129061977134465      -0.146554209536741     
 -0.164046441939017      -0.181538674341294      -0.199030906743570     
 -4.455644167040633E-002 -6.204867407268277E-002 -7.954090647495879E-002
 -9.703313887723454E-002 -0.114525371279511      -0.132017603681787     
 -0.149509836084063      -0.167002068486339      -0.184494300888615     
 -0.201986533290891      -0.219478765693167      -6.516681960604835E-002
 -8.265905200832435E-002 -0.100151284410600      -0.117643516812876     
 -0.135135749215153      -0.152627981617429      -0.170120214019705     
 -0.187612446421981      -0.205104678824257      -0.222596911226533     
 -0.240089143628809      -8.561467855564578E-002 -0.103106910957922     
 -0.120599143360198      -0.138091375762474      -0.155583608164751     
 -0.173075840567026      -0.190568072969302      -0.208060305371578     
 -0.225552537773854      -0.243044770176131      -0.260537002578407     
 -0.105577543568606      -0.123069775970882      -0.140562008373158     
 -0.158054240775433      -0.175546473177710      -0.193038705579986     
 -0.210530937982262      -0.228023170384538      -0.245515402786814     
 -0.263007635189090      -0.280499867591366      -0.124740588338435     
 -0.142232820740712      -0.159725053142987      -0.177217285545264     
 -0.194709517947540      -0.212201750349816      -0.229693982752092     
 -0.247186215154368      -0.264678447556644      -0.282170679958920     
 -0.299662912361196      -0.142801600201667      -0.160293832603943     
 -0.177786065006219      -0.195278297408495      -0.212770529810771     
 -0.230262762213047      -0.247754994615323      -0.265247227017599     
 -0.282739459419875      -0.300231691822152      -0.317723924224427     
 -0.159475746212092      -0.176967978614368      -0.194460211016643     
 -0.211952443418920      -0.229444675821196      -0.246936908223472     
 -0.264429140625748      -0.281921373028024      -0.299413605430300     
 -0.316905837832576      -0.334398070234852      -0.174500065126473     
 -0.191992297528749      -0.209484529931025      -0.226976762333301     
 -0.244468994735577      -0.261961227137853      -0.279453459540129     
 -0.296945691942405      -0.314437924344681      -0.331930156746958     
 -0.349422389149233      -0.187637614460438      -0.205129846862714     
 -0.222622079264990      -0.240114311667266      -0.257606544069542     
 -0.275098776471818      -0.292591008874095      -0.310083241276370     
 -0.327575473678646      -0.345067706080923      -0.362559938483199     
 -0.198681207212999      -0.216173439615274      -0.233665672017551     
 -0.251157904419827      -0.268650136822103      -0.286142369224379     
 -0.303634601626655      -0.321126834028931      -0.338619066431207     
 -0.356111298833483      -0.373603531235759      -0.207456679329325     
 -0.224948911731600      -0.242441144133877      -0.259933376536153     
 -0.277425608938429      -0.294917841340705      -0.312410073742981     
 -0.329902306145257      -0.347394538547534      -0.364886770949809     
 -0.382379003352086      -0.213825636371929      -0.231317868774204     
 -0.248810101176481      -0.266302333578757      -0.283794565981033     
 -0.301286798383309      -0.318779030785585      -0.336271263187861     
 -0.353763495590137      -0.371255727992413      -0.388747960394689     
 -0.217687636083618      -0.235179868485893      -0.252672100888169     
 -0.270164333290445      -0.287656565692721      -0.305148798094998     
 -0.322641030497273      -0.340133262899550      -0.357625495301826     
 -0.375117727704102      -0.392609960106378      -0.218981772421892     
 -0.236474004824168      -0.253966237226443      -0.271458469628721     
 -0.288950702030996      -0.306442934433272      -0.323935166835549     
 -0.341427399237824      -0.358919631640100      -0.376411864042376     
 -0.393904096444653     
 -0.243082016644588      -0.236660410863645      -0.230238805082703     
 -0.223817199301760      -0.217395593520817      -0.210973987739875     
 -0.204552381958932      -0.198130776177990      -0.191709170397047     
 -0.185287564616104      -0.178865958835162      -0.246607199342116     
 -0.240185593561173      -0.233763987780231      -0.227342381999288     
 -0.220920776218346      -0.214499170437403      -0.208077564656461     
 -0.201655958875518      -0.195234353094575      -0.188812747313633     
 -0.182391141532690      -0.257127153197719      -0.250705547416777     
 -0.244283941635834      -0.237862335854891      -0.231440730073949     
 -0.225019124293006      -0.218597518512064      -0.212175912731121     
 -0.205754306950178      -0.199332701169236      -0.192911095388293     
 -0.274475972254778      -0.268054366473836      -0.261632760692893     
 -0.255211154911951      -0.248789549131008      -0.242367943350065     
 -0.235946337569123      -0.229524731788180      -0.223103126007238     
 -0.216681520226295      -0.210259914445353      -0.298380055273081     
 -0.291958449492139      -0.285536843711196      -0.279115237930254     
 -0.272693632149311      -0.266272026368368      -0.259850420587426     
 -0.253428814806483      -0.247007209025541      -0.240585603244598     
 -0.234163997463656      -0.328462420583823      -0.322040814802880     
 -0.315619209021937      -0.309197603240995      -0.302775997460053     
 -0.296354391679110      -0.289932785898167      -0.283511180117225     
 -0.277089574336282      -0.270667968555339      -0.264246362774397     
 -0.364248651315718      -0.357827045534776      -0.351405439753833     
 -0.344983833972891      -0.338562228191948      -0.332140622411006     
 -0.325719016630063      -0.319297410849120      -0.312875805068178     
 -0.306454199287235      -0.300032593506292      -0.405174377232468     
 -0.398752771451525      -0.392331165670583      -0.385909559889640     
 -0.379487954108697      -0.373066348327755      -0.366644742546812     
 -0.360223136765870      -0.353801530984927      -0.347379925203985     
 -0.340958319423042      -0.450594175188520      -0.444172569407578     
 -0.437750963626635      -0.431329357845693      -0.424907752064750     
 -0.418486146283808      -0.412064540502865      -0.405642934721923     
 -0.399221328940980      -0.392799723160038      -0.386378117379095     
 -0.499791747837637      -0.493370142056695      -0.486948536275752     
 -0.480526930494810      -0.474105324713867      -0.467683718932925     
 -0.461262113151982      -0.454840507371039      -0.448418901590096     
 -0.441997295809154      -0.435575690028211      -0.551991220069936     
 -0.545569614288994      -0.539148008508051      -0.532726402727108     
 -0.526304796946166      -0.519883191165223      -0.513461585384281     
 -0.507039979603338      -0.500618373822396      -0.494196768041453     
 -0.487775162260511      -0.606369375025861      -0.599947769244919     
 -0.593526163463976      -0.587104557683033      -0.580682951902090     
 -0.574261346121148      -0.567839740340205      -0.561418134559263     
 -0.554996528778320      -0.548574922997378      -0.542153317216436     
 -0.662068636717821      -0.655647030936878      -0.649225425155935     
 -0.642803819374993      -0.636382213594051      -0.629960607813108     
 -0.623539002032165      -0.617117396251223      -0.610695790470281     
 -0.604274184689338      -0.597852578908395      -0.718210594515808     
 -0.711788988734866      -0.705367382953923      -0.698945777172980     
 -0.692524171392038      -0.686102565611095      -0.679680959830153     
 -0.673259354049210      -0.666837748268268      -0.660416142487325     
 -0.653994536706382      -0.773909856207768      -0.767488250426826     
 -0.761066644645883      -0.754645038864940      -0.748223433083998     
 -0.741801827303055      -0.735380221522112      -0.728958615741169     
 -0.722537009960228      -0.716115404179285      -0.709693798398342     
 -0.828288011163692      -0.821866405382749      -0.815444799601808     
 -0.809023193820864      -0.802601588039922      -0.796179982258980     
 -0.789758376478037      -0.783336770697095      -0.776915164916152     
 -0.770493559135209      -0.764071953354267      -0.880487483395991     
 -0.874065877615049      -0.867644271834106      -0.861222666053164     
 -0.854801060272221      -0.848379454491279      -0.841957848710336     
 -0.835536242929394      -0.829114637148451      -0.822693031367508     
 -0.816271425586566      -0.929685056045108      -0.923263450264166     
 -0.916841844483223      -0.910420238702280      -0.903998632921338     
 -0.897577027140396      -0.891155421359453      -0.884733815578510     
 -0.878312209797568      -0.871890604016625      -0.865468998235682     
 -0.975104854001160      -0.968683248220218      -0.962261642439275     
 -0.955840036658333      -0.949418430877391      -0.942996825096448     
 -0.936575219315505      -0.930153613534563      -0.923732007753620     
 -0.917310401972677      -0.910888796191735       -1.01603057991791     
  -1.00960897413697       -1.00318736835602      -0.996765762575083     
 -0.990344156794140      -0.983922551013197      -0.977500945232256     
 -0.971079339451313      -0.964657733670370      -0.958236127889427     
 -0.951814522108485       -1.05181681064981       -1.04539520486886     
  -1.03897359908792       -1.03255199330698       -1.02613038752604     
  -1.01970878174509       -1.01328717596415       -1.00686557018321     
  -1.00044396440227      -0.994022358621322      -0.987600752840380     
  -1.08189917596055       -1.07547757017960       -1.06905596439866     
  -1.06263435861772       -1.05621275283678       -1.04979114705583     
  -1.04336954127489       -1.03694793549395       -1.03052632971301     
  -1.02410472393206       -1.01768311815112       -1.10580325897885     
  -1.09938165319791       -1.09296004741697       -1.08653844163602     
  -1.08011683585508       -1.07369523007414       -1.06727362429319     
  -1.06085201851225       -1.05443041273131       -1.04800880695037     
  -1.04158720116942       -1.12315207803591       -1.11673047225497     
  -1.11030886647402       -1.10388726069308       -1.09746565491214     
  -1.09104404913120       -1.08462244335025       -1.07820083756931     
  -1.07177923178837       -1.06535762600743       -1.05893602022648     
  -1.13367203189151       -1.12725042611057       -1.12082882032963     
  -1.11440721454868       -1.10798560876774       -1.10156400298680     
  -1.09514239720586       -1.08872079142491       -1.08229918564397     
  -1.07587757986303       -1.06945597408209       -1.13719721458904     
  -1.13077560880810       -1.12435400302716       -1.11793239724621     
  -1.11151079146527       -1.10508918568433       -1.09866757990338     
  -1.09224597412244       -1.08582436834150       -1.07940276256056     
  -1.07298115677962     
  3.960717710078315E-002  3.564645939070483E-002  3.168574168062652E-002
  2.772502397054821E-002  2.376430626046989E-002  1.980358855039158E-002
  1.584287084031326E-002  1.188215313023495E-002  7.921435420156629E-003
  3.960717710078312E-003  0.000000000000000E+000  3.960717710078315E-002
  3.564645939070483E-002  3.168574168062652E-002  2.772502397054821E-002
  2.376430626046989E-002  1.980358855039158E-002  1.584287084031326E-002
  1.188215313023495E-002  7.921435420156629E-003  3.960717710078312E-003
  0.000000000000000E+000  3.960717710078315E-002  3.564645939070483E-002
  3.168574168062652E-002  2.772502397054821E-002  2.376430626046989E-002
  1.980358855039158E-002  1.584287084031326E-002  1.188215313023495E-002
  7.921435420156629E-003  3.960717710078312E-003  0.000000000000000E+000
  3.960717710078315E-002  3.564645939070483E-002  3.168574168062652E-002
  2.772502397054821E-002  2.376430626046989E-002  1.980358855039158E-002
  1.584287084031326E-002  1.188215313023495E-002  7.921435420156629E-003
  3.960717710078312E-003  0.000000000000000E+000  3.960717710078315E-002
  3.564645939070483E-002  3.168574168062652E-002  2.772502397054821E-002
  2.376430626046989E-002  1.980358855039158E-002  1.584287084031326E-002
  1.188215313023495E-002  7.921435420156629E-003  3.960717710078312E-003
  0.000000000000000E+000  3.960717710078315E-002  3.564645939070483E-002
  3.168574168062652E-002  2.772502397054821E-002  2.376430626046989E-002
  1.980358855039158E-002  1.584287084031326E-002  1.188215313023495E-002
  7.921435420156629E-003  3.960717710078312E-003  0.000000000000000E+000
  3.960717710078315E-002  3.564645939070483E-002  3.168574168062652E-002
  2.772502397054821E-002  2.376430626046989E-002  1.980358855039158E-002
  1.584287084031326E-002  1.188215313023495E-002  7.921435420156629E-003
  3.960717710078312E-003  0.000000000000000E+000  3.960717710078315E-002
  3.564645939070483E-002  3.168574168062652E-002  2.772502397054821E-002
  2.376430626046989E-002  1.980358855039158E-002  1.584287084031326E-002
  1.188215313023495E-002  7.921435420156629E-003  3.960717710078312E-003
  0.000000000000000E+000  3.960717710078315E-002  3.564645939070483E-002
  3.168574168062652E-002  2.772502397054821E-002  2.376430626046989E-002
  1.980358855039158E-002  1.584287084031326E-002  1.188215313023495E-002
  7.921435420156629E-003  3.960717710078312E-003  0.000000000000000E+000
  3.960717710078315E-002  3.564645939070483E-002  3.168574168062652E-002
  2.772502397054821E-002  2.376430626046989E-002  1.980358855039158E-002
  1.584287084031326E-002  1.188215313023495E-002  7.921435420156629E-003
  3.960717710078312E-003  0.000000000000000E+000  3.960717710078315E-002
  3.564645939070483E-002  3.168574168062652E-002  2.772502397054821E-002
  2.376430626046989E-002  1.980358855039158E-002  1.584287084031326E-002
  1.188215313023495E-002  7.921435420156629E-003  3.960717710078312E-003
  0.000000000000000E+000  3.960717710078315E-002  3.564645939070483E-002
  3.168574168062652E-002  2.772502397054821E-002  2.376430626046989E-002
  1.980358855039158E-002  1.584287084031326E-002  1.188215313023495E-002
  7.921435420156629E-003  3.960717710078312E-003  0.000000000000000E+000
  3.960717710078315E-002  3.564645939070483E-002  3.168574168062652E-002
  2.772502397054821E-002  2.376430626046989E-002  1.980358855039158E-002
  1.584287084031326E-002  1.188215313023495E-002  7.921435420156629E-003
  3.960717710078312E-003  0.000000000000000E+000  3.960717710078315E-002
  3.564645939070483E-002  3.168574168062652E-002  2.772502397054821E-002
  2.376430626046989E-002  1.980358855039158E-002  1.584287084031326E-002
  1.188215313023495E-002  7.921435420156629E-003  3.960717710078312E-003
  0.000000000000000E+000  3.960717710078315E-002  3.564645939070483E-002
  3.168574168062652E-002  2.772502397054821E-002  2.376430626046989E-002
  1.980358855039158E-002  1.584287084031326E-002  1.188215313023495E-002
  7.921435420156629E-003  3.960717710078312E-003  0.000000000000000E+000
  3.960717710078315E-002  3.564645939070483E-002  3.168574168062652E-002
  2.772502397054821E-002  2.376430626046989E-002  1.980358855039158E-002
  1.584287084031326E-002  1.188215313023495E-002  7.921435420156629E-003
  3.960717710078312E-003  0.000000000000000E+000  3.960717710078315E-002
  3.564645939070483E-002  3.168574168062652E-002  2.772502397054821E-002
  2.376430626046989E-002  1.980358855039158E-002  1.584287084031326E-002
  1.188215313023495E-002  7.921435420156629E-003  3.960717710078312E-003
  0.000000000000000E+000  3.960717710078315E-002  3.564645939070483E-002
  3.168574168062652E-002  2.772502397054821E-002  2.376430626046989E-002
  1.980358855039158E-002  1.584287084031326E-002  1.188215313023495E-002
  7.921435420156629E-003  3.960717710078312E-003  0.000000000000000E+000
  3.960717710078315E-002  3.564645939070483E-002  3.168574168062652E-002
  2.772502397054821E-002  2.376430626046989E-002  1.980358855039158E-002
  1.584287084031326E-002  1.188215313023495E-002  7.921435420156629E-003
  3.960717710078312E-003  0.000000000000000E+000  3.960717710078315E-002
  3.564645939070483E-002  3.168574168062652E-002  2.772502397054821E-002
  2.376430626046989E-002  1.980358855039158E-002  1.584287084031326E-002
  1.188215313023495E-002  7.921435420156629E-003  3.960717710078312E-003
  0.000000000000000E+000  3.960717710078315E-002  3.564645939070483E-002
  3.168574168062652E-002  2.772502397054821E-002  2.376430626046989E-002
  1.980358855039158E-002  1.584287084031326E-002  1.188215313023495E-002
  7.921435420156629E-003  3.960717710078312E-003  0.000000000000000E+000
  3.960717710078315E-002  3.564645939070483E-002  3.168574168062652E-002
  2.772502397054821E-002  2.376430626046989E-002  1.980358855039158E-002
  1.584287084031326E-002  1.188215313023495E-002  7.921435420156629E-003
  3.960717710078312E-003  0.000000000000000E+000  3.960717710078315E-002
  3.564645939070483E-002  3.168574168062652E-002  2.772502397054821E-002
  2.376430626046989E-002  1.980358855039158E-002  1.584287084031326E-002
  1.188215313023495E-002  7.921435420156629E-003  3.960717710078312E-003
  0.000000000000000E+000  3.960717710078315E-002  3.564645939070483E-002
  3.168574168062652E-002  2.772502397054821E-002  2.376430626046989E-002
  1.980358855039158E-002  1.584287084031326E-002  1.188215313023495E-002
  7.921435420156629E-003  3.960717710078312E-003  0.000000000000000E+000
  3.960717710078315E-002  3.564645939070483E-002  3.168574168062652E-002
  2.772502397054821E-002  2.376430626046989E-002  1.980358855039158E-002
  1.584287084031326E-002  1.188215313023495E-002  7.921435420156629E-003
  3.960717710078312E-003  0.000000000000000E+000  3.960717710078315E-002
  3.564645939070483E-002  3.168574168062652E-002  2.772502397054821E-002
  2.376430626046989E-002  1.980358855039158E-002  1.584287084031326E-002
  1.188215313023495E-002  7.921435420156629E-003  3.960717710078312E-003
  0.000000000000000E+000
  0.414927722770660       0.573839007618447       0.686166807602842     
  0.775233690489369       0.848014907439535       0.907871112295293     
  0.957045397460109       0.997298854957222        1.02989756530109     
   1.05390510501563       0.682287053821344       0.960883473725715     
   1.15599927382081        1.31024638991190        1.43640592305766     
   1.54047143220532        1.62631144638448        1.69705294007130     
   1.75548831243166        1.80406501270043       0.889195952645647     
   1.29060128495737        1.57338967644819        1.79687284421995     
   1.98036829842150        2.13288668100669        2.25991911890606     
   2.36574027953782        2.45408990359688        2.52586584575389     
   1.01986211279359        1.51387890341034        1.87164612340868     
   2.15769708366305        2.39453061514253        2.59318293104110     
   2.75977385788932        2.89807040456423        3.00977081393947     
   3.09098413427259        1.08490363619982        1.63307485374554     
   2.04135657943250        2.37330616838912        2.65127206838663     
   2.88711423520052        3.08649853088209        3.25201022334342     
   3.38392928799718        3.47602873853758        1.10943650335910     
   1.67925692471409        2.11054739724471        2.46666151769345     
   2.76950757441067        3.02913046468584        3.25022998279110     
   3.43434305653812        3.58035221932803        3.68051978098775     
   1.13349808468841        1.71272652247875        2.15079970111738     
   2.51362608403499        2.82396423163046        3.09158277204298     
   3.32066969366826        3.51230737233966        3.66462592672537     
   3.76924613342703        1.18679389512316        1.78370715034819     
   2.22981363313359        2.59620508923025        2.90798213912795     
   3.17621746802577        3.40589960043663        3.59858045107106     
   3.75260073804062        3.85967858374066        1.28100388093358     
   1.91301074390123        2.37762835348984        2.75399793436089     
   3.07076395159378        3.34113699592091        3.57155200159874     
   3.76454243606494        3.91918148686321        4.02776444687026     
   1.40434017081100        2.08698500161663        2.58200341464060     
   2.97803466195726        3.30764935582455        3.58629891055200     
   3.82195241386193        4.01827172105199        4.17517885742379     
   4.28557135740813        1.54008312878545        2.28116356311175     
   2.81330335058439        3.23504928635286        3.58295101597022     
   3.87463111663218        4.11946233805306        4.32210111007787     
   4.48318778937824        4.59607866001133        1.67731139259659     
   2.47855174661971        3.04972120598407        3.49917490934990     
   3.86735491819853        4.17395565658454        4.42964158555676     
   4.63993687134316        4.80607622585530        4.92178625371249     
   1.80850325184131        2.66740348834908        3.27610964710736     
   3.75231552683343        4.14015391030906        4.46126961563715     
   4.72752308512912        4.94523889160138        5.11621112542143     
   5.23452394685575        1.92719077777824        2.83776250292838     
   3.47975627171413        3.97940189965444        4.38420710032763     
   4.71760084826113        4.99255102253275        5.21614229951318     
   5.39072280463840        5.51079264120970        2.02771644450794     
   2.98098159158952        3.64964716364988        4.16736139678966     
   4.58461228837990        4.92643200929146        5.20679872751204     
   5.43351324033495        5.60949716754066        5.72980065614047     
   2.10640483436711        3.09125813627309        3.77817810643182     
   4.30692646313038        4.73052373971708        5.07542328577743     
   5.35655050933565        5.58242579521879        5.75661278637136     
   5.87492983692445        2.16326063046494        3.16793951151237     
   3.86373512237418        4.39532521011230        4.81788754237875     
   5.15918736533051        5.43511346451952        5.65500156481730     
   5.82323208477137        5.93673924392889        2.20414422826294     
   3.21809904982745        3.91317190420697        4.43853292508543     
   4.85153830805857        5.18137556326993        5.44504626586909     
   5.65289372826993        5.81037657347035        5.91600110823683     
   2.24409653261987        3.25955172664293        3.94383741018666     
   4.45237193853908        4.84575095915160        5.15518575234224     
   5.39905998772918        5.58881548122749        5.73107214110533     
   5.82618389499598        2.29344933365841        3.30127379596218     
   3.96134121473186        4.43942922189278        4.80133458133120     
   5.08107778073262        5.29838879509802        5.46533482315552     
   5.58917823114710        5.67186729878865        2.31424799794166     
   3.28795914190386        3.90078350573210        4.33030842777901     
   4.64780391291496        4.88950999502935        5.07521885474689     
   5.21636990728859        5.31997968449779        5.38890423283148     
   2.23335815083275        3.11661569279911        3.64581633825635     
   4.00443581800776        4.26450186855022        4.46110926995585     
   4.61161123224267        4.72580031932782        4.81020385567208     
   4.86787655684213        1.99342472693090        2.70885838624465     
   3.11648785870946        3.38679240000132        3.58149979167817     
   3.72918684256425        3.84288524481699        3.93035364757157     
   3.99848746413744        4.05448238263617        1.55749117569517     
   2.04389105101383        2.31548623212103        2.49547704822719     
   2.62575921318430        2.72542941825984        2.80279216126166     
   2.86272871080542        2.90999199745803        2.95207183825632     
  0.954673640256134        1.22704079829281        1.38035527648493     
   1.48246425346005        1.55669794259269        1.61378091563597     
   1.65817393573658        1.69235551451460        1.71830441155702     
   1.73639233274849     
 Zone I=   61 J=1    K=1  T="NearWake"
 DATAPACKING=BLOCK
 VARLOCATION=([4]=CELLCENTERED)
 -0.386348415478910      -0.623523579039652      -0.811638569382391     
 -0.954607561400874       -1.04768528215874       -1.07845176683209     
  -1.04580063455278      -0.948147731437865      -0.794399610167721     
 -0.586495597265344      -0.350797420477068      -6.409986747132033E-002
  0.220867875192223       0.500399815377703       0.728197005806120     
  0.939309780178198        1.08506123636406        1.17267877300100     
   1.20012177945320        1.16398952670806        1.08387243772854     
  0.961413346233308       0.796105946785329       0.623440000876938     
  0.426193029842433       0.229937854146342       1.298530524673937E-002
 -0.204383108544075      -0.386596810145328      -0.535722166943642     
 -0.708702454150557      -0.832329239820223      -0.929189719550562     
  -1.02164410532703       -1.06966657346291       -1.12593626768049     
  -1.13691214640517       -1.14364099981677       -1.14427660400110     
  -1.09983235475588       -1.06839365836526       -1.02643435401593     
 -0.964317065433826      -0.901810160977821      -0.823193143146481     
 -0.771922746685539      -0.689831987925927      -0.612247813898442     
 -0.550753222381998      -0.483637144218749      -0.416618094915855     
 -0.362429846931295      -0.293196094454762      -0.238112844250132     
 -0.206793693996188      -0.180559890630216      -0.131741073279904     
 -0.100293967331344      -6.632926354759812E-002 -5.117307050875082E-002
 -4.409463079402091E-002
  -1.01218915402959      -0.885810193328599      -0.696766237628085     
 -0.475128793883279      -0.226607442141515       3.563048699768540E-002
  0.301614735869038       0.556451960333460       0.781972356241870     
  0.955118043300354        1.08978454492149        1.13923421776260     
   1.12576510948067        1.06308014284425       0.916984366239320     
  0.733675379465922       0.507702761014429       0.253187320732202     
 -8.901389936627868E-003 -0.251819943939756      -0.484039830200158     
 -0.690866346267605      -0.859056318730683      -0.995343220516553     
  -1.07283100590965       -1.11114091179901       -1.14381537000598     
  -1.13222769421055       -1.06511298910437      -0.977407143958790     
 -0.909050812395629      -0.784306569879768      -0.645661617002545     
 -0.506555723845237      -0.357654278615682      -0.216167462310036     
 -6.881764137624087E-002  6.411410019203599E-002  0.204502216012810     
  0.325474157493441       0.448150858667972       0.560589873735896     
  0.662242055452159       0.755846510844094       0.821902344962875     
  0.907243940915072       0.952305676879309       0.987136476411044     
   1.03270925153286        1.06633073880475        1.08299235257610     
   1.10007532259661        1.07478867314265        1.10768808113994     