 Title = "Wing and Tip"
 VARIABLES = "X" "Y" "Z" "GAM"
 Zone I=   11 J=   26 K=1  T="Blade"
 DATAPACKING=BLOCK
 VARLOCATION=([4]=CELLCENTERED)
  0.266389783763892       0.253763245174449       0.241136706585005     
  0.228510167995562       0.215883629406119       0.203257090816676     
  0.190630552227232       0.178004013637789       0.165377475048346     
  0.152750936458903       0.140124397869460       0.269151427768642     
  0.256524889179199       0.243898350589755       0.231271812000312     
  0.218645273410869       0.206018734821426       0.193392196231983     
  0.180765657642539       0.168139119053096       0.155512580463653     
  0.142886041874210       0.277392807007211       0.264766268417768     
  0.252139729828325       0.239513191238881       0.226886652649438     
  0.214260114059995       0.201633575470552       0.189007036881109     
  0.176380498291665       0.163753959702222       0.151127421112779     
  0.290983950005846       0.278357411416403       0.265730872826960     
  0.253104334237516       0.240477795648073       0.227851257058630     
  0.215224718469187       0.202598179879743       0.189971641290300     
  0.177345102700857       0.164718564111414       0.309710516320502     
  0.297083977731060       0.284457439141616       0.271830900552173     
  0.259204361962730       0.246577823373287       0.233951284783843     
  0.221324746194400       0.208698207604957       0.196071669015514     
  0.183445130426070       0.333277176813690       0.320650638224247     
  0.308024099634804       0.295397561045361       0.282771022455918     
  0.270144483866474       0.257517945277031       0.244891406687588     
  0.232264868098145       0.219638329508701       0.207011790919258     
  0.361312271171391       0.348685732581948       0.336059193992505     
  0.323432655403062       0.310806116813618       0.298179578224175     
  0.285553039634732       0.272926501045289       0.260299962455845     
  0.247673423866402       0.235046885276959       0.393373669208231     
  0.380747130618787       0.368120592029344       0.355494053439901     
  0.342867514850458       0.330240976261015       0.317614437671571     
  0.304987899082128       0.292361360492685       0.279734821903242     
  0.267108283313798       0.428955743524617       0.416329204935173     
  0.403702666345730       0.391076127756287       0.378449589166844     
  0.365823050577400       0.353196511987957       0.340569973398514     
  0.327943434809071       0.315316896219628       0.302690357630184     
  0.467497343552879       0.454870804963436       0.442244266373993     
  0.429617727784549       0.416991189195106       0.404364650605663     
  0.391738112016220       0.379111573426777       0.366485034837333     
  0.353858496247890       0.341231957658447       0.508390645236937     
  0.495764106647493       0.483137568058050       0.470511029468607     
  0.457884490879164       0.445257952289721       0.432631413700277     
  0.420004875110834       0.407378336521391       0.394751797931948     
  0.382125259342504       0.550990736780757       0.538364198191314     
  0.525737659601870       0.513111121012427       0.500484582422984     
  0.487858043833541       0.475231505244098       0.462604966654654     
  0.449978428065211       0.437351889475768       0.424725350886325     
  0.594625789292633       0.581999250703190       0.569372712113746     
  0.556746173524303       0.544119634934860       0.531493096345417     
  0.518866557755973       0.506240019166531       0.493613480577087     
  0.480986941987644       0.468360403398201       0.638607651928136     
  0.625981113338693       0.613354574749249       0.600728036159806     
  0.588101497570362       0.575474958980919       0.562848420391477     
  0.550221881802033       0.537595343212590       0.524968804623147     
  0.512342266033703       0.682242704440012       0.669616165850569     
  0.656989627261125       0.644363088671682       0.631736550082239     
  0.619110011492796       0.606483472903352       0.593856934313908     
  0.581230395724466       0.568603857135022       0.555977318545579     
  0.724842795983832       0.712216257394388       0.699589718804946     
  0.686963180215503       0.674336641626059       0.661710103036616     
  0.649083564447173       0.636457025857730       0.623830487268287     
  0.611203948678843       0.598577410089400       0.765736097667889     
  0.753109559078446       0.740483020489003       0.727856481899560     
  0.715229943310116       0.702603404720673       0.689976866131230     
  0.677350327541787       0.664723788952344       0.652097250362900     
  0.639470711773457       0.804277697696152       0.791651159106708     
  0.779024620517265       0.766398081927822       0.753771543338379     
  0.741145004748936       0.728518466159492       0.715891927570049     
  0.703265388980606       0.690638850391163       0.678012311801719     
  0.839859772012537       0.827233233423095       0.814606694833651     
  0.801980156244208       0.789353617654765       0.776727079065322     
  0.764100540475878       0.751474001886435       0.738847463296992     
  0.726220924707548       0.713594386118106       0.871921170049378     
  0.859294631459934       0.846668092870490       0.834041554281048     
  0.821415015691604       0.808788477102161       0.796161938512718     
  0.783535399923275       0.770908861333831       0.758282322744388     
  0.745655784154945       0.899956264407078       0.887329725817635     
  0.874703187228192       0.862076648638749       0.849450110049305     
  0.836823571459862       0.824197032870419       0.811570494280975     
  0.798943955691532       0.786317417102089       0.773690878512646     
  0.923522924900266       0.910896386310823       0.898269847721379     
  0.885643309131936       0.873016770542493       0.860390231953050     
  0.847763693363606       0.835137154774163       0.822510616184720     
  0.809884077595277       0.797257539005834       0.942249491214922     
  0.929622952625479       0.916996414036036       0.904369875446593     
  0.891743336857150       0.879116798267707       0.866490259678263     
  0.853863721088820       0.841237182499376       0.828610643909934     
  0.815984105320490       0.955840634213558       0.943214095624114     
  0.930587557034671       0.917961018445228       0.905334479855784     
  0.892707941266341       0.880081402676898       0.867454864087455     
  0.854828325498012       0.842201786908569       0.829575248319125     
  0.964082013452127       0.951455474862683       0.938828936273240     
  0.926202397683797       0.913575859094353       0.900949320504911     
  0.888322781915467       0.875696243326024       0.863069704736581     
  0.850443166147137       0.837816627557694       0.966843657456876     
  0.954217118867434       0.941590580277990       0.928964041688548     
  0.916337503099103       0.903710964509661       0.891084425920217     
  0.878457887330774       0.865831348741331       0.853204810151887     
  0.840578271562445     
  7.922889620840668E-003 -5.780604038455628E-003 -1.948409769775175E-002
 -3.318759135704798E-002 -4.689108501634437E-002 -6.059457867564053E-002
 -7.429807233493674E-002 -8.800156599423303E-002 -0.101705059653529     
 -0.115408553312825      -0.129112046972122       5.378282715241322E-003
 -8.325210944055042E-003 -2.202870460335122E-002 -3.573219826264747E-002
 -4.943569192194368E-002 -6.313918558123990E-002 -7.684267924053612E-002
 -9.054617289983230E-002 -0.104249666559129      -0.117953160218425     
 -0.131656653877721      -2.215408030580788E-003 -1.591890168987696E-002
 -2.962239534917335E-002 -4.332588900846952E-002 -5.702938266776569E-002
 -7.073287632706197E-002 -8.443636998635824E-002 -9.813986364565451E-002
 -0.111843357304951      -0.125546850964247      -0.139250344623543     
 -1.473842557731345E-002 -2.844191923660960E-002 -4.214541289590598E-002
 -5.584890655520194E-002 -6.955240021449821E-002 -8.325589387379455E-002
 -9.695938753309086E-002 -0.110662881192387      -0.124366374851683     
 -0.138069868510980      -0.151773362170276      -3.199327445735598E-002
 -4.569676811665223E-002 -5.940026177594849E-002 -7.310375543524465E-002
 -8.680724909454099E-002 -0.100510742753837      -0.114214236413134     
 -0.127917730072430      -0.141621223731726      -0.155324717391022     
 -0.169028211050318      -5.370783539632346E-002 -6.741132905561979E-002
 -8.111482271491589E-002 -9.481831637421208E-002 -0.108521810033509     
 -0.122225303692805      -0.135928797352101      -0.149632291011397     
 -0.163335784670694      -0.177039278329990      -0.190742771989286     
 -7.953965679655844E-002 -9.324315045585470E-002 -0.106946644115151     
 -0.120650137774447      -0.134353631433744      -0.148057125093040     
 -0.161760618752336      -0.175464112411632      -0.189167606070928     
 -0.202871099730224      -0.216574593389521      -0.109081355403397     
 -0.122784849062693      -0.136488342721990      -0.150191836381286     
 -0.163895330040582      -0.177598823699878      -0.191302317359174     
 -0.205005811018471      -0.218709304677767      -0.232412798337063     
 -0.246116291996360      -0.141867040982454      -0.155570534641750     
 -0.169274028301046      -0.182977521960342      -0.196681015619639     
 -0.210384509278935      -0.224088002938231      -0.237791496597528     
 -0.251494990256824      -0.265198483916120      -0.278901977575416     
 -0.177379663686928      -0.191083157346224      -0.204786651005521     
 -0.218490144664817      -0.232193638324113      -0.245897131983409     
 -0.259600625642705      -0.273304119302002      -0.287007612961298     
 -0.300711106620595      -0.314414600279890      -0.215059168242558     
 -0.228762661901854      -0.242466155561150      -0.256169649220446     
 -0.269873142879743      -0.283576636539039      -0.297280130198335     
 -0.310983623857632      -0.324687117516928      -0.338390611176224     
 -0.352094104835520      -0.254311326353856      -0.268014820013152     
 -0.281718313672448      -0.295421807331744      -0.309125300991040     
 -0.322828794650337      -0.336532288309633      -0.350235781968929     
 -0.363939275628225      -0.377642769287522      -0.391346262946818     
 -0.294517108039304      -0.308220601698600      -0.321924095357896     
 -0.335627589017192      -0.349331082676489      -0.363034576335784     
 -0.376738069995081      -0.390441563654377      -0.404145057313673     
 -0.417848550972969      -0.431552044632266      -0.335042444103952     
 -0.348745937763249      -0.362449431422545      -0.376152925081841     
 -0.389856418741137      -0.403559912400433      -0.417263406059731     
 -0.430966899719026      -0.444670393378323      -0.458373887037619     
 -0.472077380696915      -0.375248225789400      -0.388951719448697     
 -0.402655213107993      -0.416358706767289      -0.430062200426586     
 -0.443765694085882      -0.457469187745177      -0.471172681404474     
 -0.484876175063770      -0.498579668723066      -0.512283162382363     
 -0.414500383900698      -0.428203877559994      -0.441907371219291     
 -0.455610864878586      -0.469314358537883      -0.483017852197179     
 -0.496721345856475      -0.510424839515772      -0.524128333175068     
 -0.537831826834364      -0.551535320493661      -0.452179888456328     
 -0.465883382115624      -0.479586875774920      -0.493290369434216     
 -0.506993863093513      -0.520697356752809      -0.534400850412105     
 -0.548104344071402      -0.561807837730698      -0.575511331389994     
 -0.589214825049290      -0.487692511160803      -0.501396004820099     
 -0.515099498479394      -0.528802992138690      -0.542506485797987     
 -0.556209979457283      -0.569913473116579      -0.583616966775876     
 -0.597320460435172      -0.611023954094469      -0.624727447753764     
 -0.520478196739859      -0.534181690399156      -0.547885184058451     
 -0.561588677717747      -0.575292171377044      -0.588995665036340     
 -0.602699158695636      -0.616402652354933      -0.630106146014229     
 -0.643809639673525      -0.657513133332821      -0.550019895346697     
 -0.563723389005994      -0.577426882665289      -0.591130376324587     
 -0.604833869983882      -0.618537363643179      -0.632240857302475     
 -0.645944350961772      -0.659647844621068      -0.673351338280364     
 -0.687054831939660      -0.575851716746932      -0.589555210406229     
 -0.603258704065525      -0.616962197724821      -0.630665691384117     
 -0.644369185043413      -0.658072678702710      -0.671776172362006     
 -0.685479666021302      -0.699183159680598      -0.712886653339895     
 -0.597566277685900      -0.611269771345196      -0.624973265004492     
 -0.638676758663789      -0.652380252323084      -0.666083745982381     
 -0.679787239641677      -0.693490733300973      -0.707194226960269     
 -0.720897720619566      -0.734601214278862      -0.614821126565943     
 -0.628524620225239      -0.642228113884535      -0.655931607543831     
 -0.669635101203127      -0.683338594862424      -0.697042088521720     
 -0.710745582181016      -0.724449075840312      -0.738152569499609     
 -0.751856063158905      -0.627344144112676      -0.641047637771971     
 -0.654751131431268      -0.668454625090564      -0.682158118749860     
 -0.695861612409156      -0.709565106068452      -0.723268599727749     
 -0.736972093387045      -0.750675587046341      -0.764379080705637     
 -0.634937834858497      -0.648641328517792      -0.662344822177088     
 -0.676048315836386      -0.689751809495681      -0.703455303154979     
 -0.717158796814274      -0.730862290473571      -0.744565784132867     
 -0.758269277792162      -0.771972771451459      -0.637482441764096     
 -0.651185935423392      -0.664889429082688      -0.678592922741986     
 -0.692296416401281      -0.705999910060577      -0.719703403719874     
 -0.733406897379170      -0.747110391038466      -0.760813884697762     
 -0.774517378357060     
  3.960717710078315E-002  3.564645939070483E-002  3.168574168062652E-002
  2.772502397054821E-002  2.376430626046989E-002  1.980358855039158E-002
  1.584287084031326E-002  1.188215313023495E-002  7.921435420156629E-003
  3.960717710078312E-003  0.000000000000000E+000  3.960717710078315E-002
  3.564645939070483E-002  3.168574168062652E-002  2.772502397054821E-002
  2.376430626046989E-002  1.980358855039158E-002  1.584287084031326E-002
  1.188215313023495E-002  7.921435420156629E-003  3.960717710078312E-003
  0.000000000000000E+000  3.960717710078315E-002  3.564645939070483E-002
  3.168574168062652E-002  2.772502397054821E-002  2.376430626046989E-002
  1.980358855039158E-002  1.584287084031326E-002  1.188215313023495E-002
  7.921435420156629E-003  3.960717710078312E-003  0.000000000000000E+000
  3.960717710078315E-002  3.564645939070483E-002  3.168574168062652E-002
  2.772502397054821E-002  2.376430626046989E-002  1.980358855039158E-002
  1.584287084031326E-002  1.188215313023495E-002  7.921435420156629E-003
  3.960717710078312E-003  0.000000000000000E+000  3.960717710078315E-002
  3.564645939070483E-002  3.168574168062652E-002  2.772502397054821E-002
  2.376430626046989E-002  1.980358855039158E-002  1.584287084031326E-002
  1.188215313023495E-002  7.921435420156629E-003  3.960717710078312E-003
  0.000000000000000E+000  3.960717710078315E-002  3.564645939070483E-002
  3.168574168062652E-002  2.772502397054821E-002  2.376430626046989E-002
  1.980358855039158E-002  1.584287084031326E-002  1.188215313023495E-002
  7.921435420156629E-003  3.960717710078312E-003  0.000000000000000E+000
  3.960717710078315E-002  3.564645939070483E-002  3.168574168062652E-002
  2.772502397054821E-002  2.376430626046989E-002  1.980358855039158E-002
  1.584287084031326E-002  1.188215313023495E-002  7.921435420156629E-003
  3.960717710078312E-003  0.000000000000000E+000  3.960717710078315E-002
  3.564645939070483E-002  3.168574168062652E-002  2.772502397054821E-002
  2.376430626046989E-002  1.980358855039158E-002  1.584287084031326E-002
  1.188215313023495E-002  7.921435420156629E-003  3.960717710078312E-003
  0.000000000000000E+000  3.960717710078315E-002  3.564645939070483E-002
  3.168574168062652E-002  2.772502397054821E-002  2.376430626046989E-002
  1.980358855039158E-002  1.584287084031326E-002  1.188215313023495E-002
  7.921435420156629E-003  3.960717710078312E-003  0.000000000000000E+000
  3.960717710078315E-002  3.564645939070483E-002  3.168574168062652E-002
  2.772502397054821E-002  2.376430626046989E-002  1.980358855039158E-002
  1.584287084031326E-002  1.188215313023495E-002  7.921435420156629E-003
  3.960717710078312E-003  0.000000000000000E+000  3.960717710078315E-002
  3.564645939070483E-002  3.168574168062652E-002  2.772502397054821E-002
  2.376430626046989E-002  1.980358855039158E-002  1.584287084031326E-002
  1.188215313023495E-002  7.921435420156629E-003  3.960717710078312E-003
  0.000000000000000E+000  3.960717710078315E-002  3.564645939070483E-002
  3.168574168062652E-002  2.772502397054821E-002  2.376430626046989E-002
  1.980358855039158E-002  1.584287084031326E-002  1.188215313023495E-002
  7.921435420156629E-003  3.960717710078312E-003  0.000000000000000E+000
  3.960717710078315E-002  3.564645939070483E-002  3.168574168062652E-002
  2.772502397054821E-002  2.376430626046989E-002  1.980358855039158E-002
  1.584287084031326E-002  1.188215313023495E-002  7.921435420156629E-003
  3.960717710078312E-003  0.000000000000000E+000  3.960717710078315E-002
  3.564645939070483E-002  3.168574168062652E-002  2.772502397054821E-002
  2.376430626046989E-002  1.980358855039158E-002  1.584287084031326E-002
  1.188215313023495E-002  7.921435420156629E-003  3.960717710078312E-003
  0.000000000000000E+000  3.960717710078315E-002  3.564645939070483E-002
  3.168574168062652E-002  2.772502397054821E-002  2.376430626046989E-002
  1.980358855039158E-002  1.584287084031326E-002  1.188215313023495E-002
  7.921435420156629E-003  3.960717710078312E-003  0.000000000000000E+000
  3.960717710078315E-002  3.564645939070483E-002  3.168574168062652E-002
  2.772502397054821E-002  2.376430626046989E-002  1.980358855039158E-002
  1.584287084031326E-002  1.188215313023495E-002  7.921435420156629E-003
  3.960717710078312E-003  0.000000000000000E+000  3.960717710078315E-002
  3.564645939070483E-002  3.168574168062652E-002  2.772502397054821E-002
  2.376430626046989E-002  1.980358855039158E-002  1.584287084031326E-002
  1.188215313023495E-002  7.921435420156629E-003  3.960717710078312E-003
  0.000000000000000E+000  3.960717710078315E-002  3.564645939070483E-002
  3.168574168062652E-002  2.772502397054821E-002  2.376430626046989E-002
  1.980358855039158E-002  1.584287084031326E-002  1.188215313023495E-002
  7.921435420156629E-003  3.960717710078312E-003  0.000000000000000E+000
  3.960717710078315E-002  3.564645939070483E-002  3.168574168062652E-002
  2.772502397054821E-002  2.376430626046989E-002  1.980358855039158E-002
  1.584287084031326E-002  1.188215313023495E-002  7.921435420156629E-003
  3.960717710078312E-003  0.000000000000000E+000  3.960717710078315E-002
  3.564645939070483E-002  3.168574168062652E-002  2.772502397054821E-002
  2.376430626046989E-002  1.980358855039158E-002  1.584287084031326E-002
  1.188215313023495E-002  7.921435420156629E-003  3.960717710078312E-003
  0.000000000000000E+000  3.960717710078315E-002  3.564645939070483E-002
  3.168574168062652E-002  2.772502397054821E-002  2.376430626046989E-002
  1.980358855039158E-002  1.584287084031326E-002  1.188215313023495E-002
  7.921435420156629E-003  3.960717710078312E-003  0.000000000000000E+000
  3.960717710078315E-002  3.564645939070483E-002  3.168574168062652E-002
  2.772502397054821E-002  2.376430626046989E-002  1.980358855039158E-002
  1.584287084031326E-002  1.188215313023495E-002  7.921435420156629E-003
  3.960717710078312E-003  0.000000000000000E+000  3.960717710078315E-002
  3.564645939070483E-002  3.168574168062652E-002  2.772502397054821E-002
  2.376430626046989E-002  1.980358855039158E-002  1.584287084031326E-002
  1.188215313023495E-002  7.921435420156629E-003  3.960717710078312E-003
  0.000000000000000E+000  3.960717710078315E-002  3.564645939070483E-002
  3.168574168062652E-002  2.772502397054821E-002  2.376430626046989E-002
  1.980358855039158E-002  1.584287084031326E-002  1.188215313023495E-002
  7.921435420156629E-003  3.960717710078312E-003  0.000000000000000E+000
  3.960717710078315E-002  3.564645939070483E-002  3.168574168062652E-002
  2.772502397054821E-002  2.376430626046989E-002  1.980358855039158E-002
  1.584287084031326E-002  1.188215313023495E-002  7.921435420156629E-003
  3.960717710078312E-003  0.000000000000000E+000  3.960717710078315E-002
  3.564645939070483E-002  3.168574168062652E-002  2.772502397054821E-002
  2.376430626046989E-002  1.980358855039158E-002  1.584287084031326E-002
  1.188215313023495E-002  7.921435420156629E-003  3.960717710078312E-003
  0.000000000000000E+000
  0.335642646634687       0.462557162947728       0.551769151692445     
  0.622181975304394       0.679540998808773       0.727086521430181     
  0.766190115066444       0.797656691084344       0.822049816443118     
  0.838760637083392       0.550308629824026       0.772108849837919     
  0.926333783931390        1.04745114091374        1.14611285944079     
   1.22794515359788        1.29542452605222        1.35005852284159     
   1.39337852237639        1.42762675320299       0.710160861373626     
   1.02678664949528        1.24781636218764        1.42085436382164     
   1.56209162168389        1.67937115254673        1.77649262858016     
   1.85574053252175        1.91948582890897        1.96910448801137     
  0.796458942575291        1.17887853491481        1.45382505325405     
   1.67171757049536        1.85067029400405        1.99939052856559     
   2.12215067885198        2.22107608756778        2.29754569131188     
   2.35021011777342       0.811288020808501        1.22166107801294     
   1.52700989214916        1.77419565013504        1.97966996307887     
   2.15121122201798        2.29254545850916        2.40533878115528     
   2.49034294412903        2.54558060020181       0.772650751302932     
   1.17648919149060        1.48491048821459        1.74002702563909     
   1.95590770722846        2.13853963839413        2.28996910818924     
   2.41044024602610        2.49986047161156        2.55593714249669     
  0.716515137912078        1.09638952192163        1.39015740613220     
   1.63661468327175        1.84844202447949        2.03014131720073     
   2.18215545358424        2.30436414767789        2.39600160753036     
   2.45348406383735       0.687654329400254        1.04949211455357     
   1.32891839458747        1.56358999704423        1.76582106493874     
   1.94021165409215        2.08820709745902        2.20936205810125     
   2.30145892709446        2.35898900615733       0.718515769745545     
   1.08590077421558        1.36382739152141        1.59399953246240     
   1.79084579245161        1.96044044457452        2.10498978496858     
   2.22416331223795        2.31537524874219        2.37343244401956     
  0.814235159211174        1.21729424624648        1.51417307919345     
   1.75471455561406        1.95679545500675        2.12847975371964     
   2.27342824352883        2.39269209030078        2.48514553745172     
   2.54589884580774       0.955181387385624        1.41704846212240     
   1.74999061113694        2.01449944374342        2.23280367555759     
   2.41544420054040        2.56783057663054        2.69238762862249     
   2.78895559917689        2.85288978216108        1.12015260345517     
   1.65399790935424        2.03343889289444        2.33084356270365     
   2.57316583818282        2.77347357898901        2.93876212187130     
   3.07252566867073        3.17528810632475        3.24263802329016     
   1.29767277393233        1.91014231754701        2.34120490483701     
   2.67575447799659        2.94566584889831        3.16657651892341     
   3.34702849133460        3.49150756270056        3.60114150988007     
   3.67172647849856        1.48250987711430        2.17681551419532     
   2.66154798255330        3.03461605718829        3.33300019588991     
   3.57499972987169        3.77075098215444        3.92575150402484     
   4.04174388002640        4.11478169984533        1.67224333869281     
   2.44966155114953        2.98820626975460        3.39928547850632     
   3.72520207732982        3.98705206227413        4.19666459401739     
   4.36062689460884        4.48137026532343        4.55533923787910     
   1.86364461983957        2.72307101134346        3.31334934834020     
   3.75984795723375        4.11043649772283        4.38917979369179     
   4.60973986472244        4.77991348514263        4.90293348559931     
   4.97581306011611        2.04823817655578        2.98372214267658     
   3.61977881689461        4.09587020157236        4.46559785939794     
   4.75613388656059        4.98309263166096        5.15559821105616     
   5.27782675450350        5.34760263980209        2.20911257144859     
   3.20619855803418        3.87588206201890        4.37092034749258     
   4.75050108692296        5.04489543767220        5.27169517695470     
   5.44141118739444        5.55930738053225        5.62435378642748     
   2.32296527691804        3.35584223611694        4.03901292887783     
   4.53637749679870        4.91206990727065        5.19918663544397     
   5.41712993370422        5.57768945606777        5.68723947887025     
   5.74622904508068        2.36640444191756        3.39727054670344     
   4.06536603778314        4.54247069097800        4.89651850837293     
   5.16273054761840        5.36175936404033        5.50621169547754     
   5.60326084183695        5.65486594675090        2.31960121452837     
   3.29930751555728        3.91627494141073        4.34628037217016     
   4.65916493144623        4.89074048102900        5.06163241095208     
   5.18428337390213        5.26592049404520        5.30938290485485     
   2.16501492969226        3.03387871454747        3.55964318079581     
   3.91640377875608        4.17161088059414        4.35849806556543     
   4.49561763902608        4.59409642949507        4.66067289701295     
   4.69831845396885        1.88328784611263        2.57535218010272     
   2.97620102852828        3.24335365791195        3.43308243664166     
   3.57172745117020        3.67376595361193        3.74827165533845     
   3.80218510561804        3.84234360142945        1.44893428312243     
   1.91615482308346        2.18224156655727        2.35964560460101     
   2.48594265473915        2.57849141986793        2.64686867229713     
   2.69715265259563        2.73416114500665        2.76491705080771     
  0.883226269689112        1.14463207457032        1.29477564183023     
   1.39537663721472        1.46720577637025        1.51992669355907     
   1.55886768931280        1.58729056714946        1.60728306665308     
   1.61920951601906     
 Zone I=   91 J=1    K=1  T="NearWake"
 DATAPACKING=BLOCK
 VARLOCATION=([4]=CELLCENTERED)
  0.786675127760478       0.579501593539950       0.332003275650583     
  7.317034559409498E-002 -0.184732971279037      -0.427207574260636     
 -0.638437692171415      -0.811041140968227      -0.931644486951428     
 -0.997920054019773       -1.00846238949622      -0.956689393095763     
 -0.851753119677245      -0.689830968762856      -0.496091761562786     
 -0.252592280714148       8.525570923630437E-003  0.293301020769909     
  0.553689299985828       0.810797008414332        1.01721567319299     
   1.14942712232592        1.22621751882461        1.22674879753855     
   1.14825793926913       0.985584433018430       0.773101947298706     
  0.509760259715908       0.206232825892351      -0.112959008358028     
 -0.439015254345643      -0.677422254882025      -0.895876940578630     
  -1.06784117085711       -1.14569535885078       -1.17173294787034     
  -1.12139164309998      -0.996871920473166      -0.821650924415520     
 -0.627177920449778      -0.403911902535980      -0.111800164157648     
  0.169903918085668       0.444808348699310       0.666760336643032     
  0.867828708353015        1.02563499277614        1.13585440326119     
   1.15982365942645        1.13771024273669        1.10864482865060     
   1.00516005112016       0.868403544602403       0.671861031943492     
  0.511719151887188       0.316189679039098       6.814087811253558E-002
 -0.170707263263888      -0.377859528002355      -0.560000840309457     
 -0.747293021912826      -0.869623408881970      -0.999660895160579     
  -1.05783815364544       -1.16574628512680       -1.15530502645911     
  -1.25175972683445       -1.16277092449467       -1.22312102928506     
  -1.11204201149597       -1.14947183731502       -1.01834512467220     
  -1.01373056419171      -0.897236571107476      -0.792647807627227     
 -0.753879782093521      -0.693807044784149      -0.620149009371462     
 -0.576059632610385      -0.535994813045248      -0.461125905069561     
 -0.406021546269688      -0.367148114107449      -0.314210564955497     
 -0.278454281534810      -0.218839469273160      -0.171362842238397     
 -0.149508594630483      -0.149593613171950      -0.126460084650965     
 -0.118749001855531     
 -0.743693590867155      -0.914599448722434       -1.01094127144575     
  -1.04933949005654       -1.02363242513432      -0.939585432844975     
 -0.798487271001616      -0.612227325881514      -0.392344002694484     
 -0.148817334398636       0.102061893332091       0.349073660303449     
  0.573854293554263       0.759521904383688       0.930169948580647     
   1.04592176128021        1.11252562328524        1.09522890241209     
   1.00129684567483       0.848415253217618       0.645146551932131     
  0.375502692550082       8.736336211386507E-002 -0.208689876980724     