 Title = "Wing and Tip"
 VARIABLES = "X" "Y" "Z" "GAM"
 Zone I=   11 J=   26 K=1  T="Blade"
 DATAPACKING=BLOCK
 VARLOCATION=([4]=CELLCENTERED)
 -0.237219635633934      -0.219551431956112      -0.201883228278289     
 -0.184215024600467      -0.166546820922645      -0.148878617244823     
 -0.131210413567001      -0.113542209889178      -9.587400621135631E-002
 -7.820580253353412E-002 -6.053759885571195E-002 -0.238412741898680     
 -0.220744538220858      -0.203076334543036      -0.185408130865214     
 -0.167739927187391      -0.150071723509569      -0.132403519831747     
 -0.114735316153925      -9.706711247610254E-002 -7.939890879828039E-002
 -6.173070512045820E-002 -0.241973244694396      -0.224305041016574     
 -0.206636837338752      -0.188968633660930      -0.171300429983108     
 -0.153632226305286      -0.135964022627463      -0.118295818949641     
 -0.100627615271819      -8.295941159399677E-002 -6.529120791617460E-002
 -0.247844992765054      -0.230176789087231      -0.212508585409409     
 -0.194840381731587      -0.177172178053765      -0.159503974375943     
 -0.141835770698120      -0.124167567020298      -0.106499363342476     
 -8.883115966465384E-002 -7.116295598683167E-002 -0.255935385135965     
 -0.238267181458142      -0.220598977780320      -0.202930774102498     
 -0.185262570424676      -0.167594366746854      -0.149926163069031     
 -0.132257959391209      -0.114589755713387      -9.692155203556482E-002
 -7.925334835774263E-002 -0.266116831486474      -0.248448627808652     
 -0.230780424130830      -0.213112220453007      -0.195444016775185     
 -0.177775813097363      -0.160107609419541      -0.142439405741719     
 -0.124771202063896      -0.107102998386074      -8.943479470825216E-002
 -0.278228764325533      -0.260560560647711      -0.242892356969889     
 -0.225224153292067      -0.207555949614245      -0.189887745936423     
 -0.172219542258600      -0.154551338580778      -0.136883134902956     
 -0.119214931225134      -0.101546727547312      -0.292080171236953     
 -0.274411967559130      -0.256743763881308      -0.239075560203486     
 -0.221407356525664      -0.203739152847842      -0.186070949170020     
 -0.168402745492197      -0.150734541814375      -0.133066338136553     
 -0.115398134458731      -0.307452607259309      -0.289784403581487     
 -0.272116199903665      -0.254447996225843      -0.236779792548021     
 -0.219111588870198      -0.201443385192376      -0.183775181514554     
 -0.166106977836732      -0.148438774158910      -0.130770570481087     
 -0.324103639893483      -0.306435436215660      -0.288767232537838     
 -0.271099028860016      -0.253430825182194      -0.235762621504372     
 -0.218094417826549      -0.200426214148727      -0.182758010470905     
 -0.165089806793083      -0.147421603115261      -0.341770672407987     
 -0.324102468730165      -0.306434265052343      -0.288766061374520     
 -0.271097857696698      -0.253429654018876      -0.235761450341054     
 -0.218093246663232      -0.200425042985409      -0.182756839307587     
 -0.165088635629765      -0.360175085146295      -0.342506881468473     
 -0.324838677790650      -0.307170474112828      -0.289502270435006     
 -0.271834066757184      -0.254165863079362      -0.236497659401539     
 -0.218829455723717      -0.201161252045895      -0.183493048368073     
 -0.379026629525260      -0.361358425847438      -0.343690222169616     
 -0.326022018491793      -0.308353814813971      -0.290685611136149     
 -0.273017407458327      -0.255349203780505      -0.237681000102682     
 -0.220012796424860      -0.202344592747038      -0.398028005428659     
 -0.380359801750837      -0.362691598073015      -0.345023394395193     
 -0.327355190717370      -0.309686987039548      -0.292018783361726     
 -0.274350579683904      -0.256682376006082      -0.239014172328260     
 -0.221345968650437      -0.416879549807624      -0.399211346129802     
 -0.381543142451980      -0.363874938774158      -0.346206735096336     
 -0.328538531418513      -0.310870327740691      -0.293202124062869     
 -0.275533920385047      -0.257865716707225      -0.240197513029402     
 -0.435283962545932      -0.417615758868110      -0.399947555190288     
 -0.382279351512466      -0.364611147834643      -0.346942944156821     
 -0.329274740478999      -0.311606536801177      -0.293938333123355     
 -0.276270129445532      -0.258601925767710      -0.452950995060437     
 -0.435282791382614      -0.417614587704792      -0.399946384026970     
 -0.382278180349148      -0.364609976671325      -0.346941772993503     
 -0.329273569315681      -0.311605365637859      -0.293937161960037     
 -0.276268958282215      -0.469602027694610      -0.451933824016788     
 -0.434265620338965      -0.416597416661143      -0.398929212983321     
 -0.381261009305499      -0.363592805627677      -0.345924601949854     
 -0.328256398272032      -0.310588194594210      -0.292919990916388     
 -0.484974463716966      -0.467306260039144      -0.449638056361322     
 -0.431969852683500      -0.414301649005678      -0.396633445327855     
 -0.378965241650033      -0.361297037972211      -0.343628834294389     
 -0.325960630616567      -0.308292426938744      -0.498825870628386     
 -0.481157666950564      -0.463489463272741      -0.445821259594919     
 -0.428153055917097      -0.410484852239275      -0.392816648561453     
 -0.375148444883630      -0.357480241205808      -0.339812037527986     
 -0.322143833850164      -0.510937803467445      -0.493269599789623     
 -0.475601396111801      -0.457933192433978      -0.440264988756156     
 -0.422596785078334      -0.404928581400512      -0.387260377722690     
 -0.369592174044867      -0.351923970367045      -0.334255766689223     
 -0.521119249817955      -0.503451046140132      -0.485782842462310     
 -0.468114638784488      -0.450446435106666      -0.432778231428844     
 -0.415110027751021      -0.397441824073199      -0.379773620395377     
 -0.362105416717555      -0.344437213039733      -0.529209642188866     
 -0.511541438511043      -0.493873234833221      -0.476205031155399     
 -0.458536827477577      -0.440868623799755      -0.423200420121932     
 -0.405532216444110      -0.387864012766288      -0.370195809088466     
 -0.352527605410644      -0.535081390259523      -0.517413186581700     
 -0.499744982903878      -0.482076779226056      -0.464408575548234     
 -0.446740371870412      -0.429072168192589      -0.411403964514767     
 -0.393735760836945      -0.376067557159123      -0.358399353481301     
 -0.538641893055239      -0.520973689377417      -0.503305485699595     
 -0.485637282021772      -0.467969078343950      -0.450300874666128     
 -0.432632670988306      -0.414964467310484      -0.397296263632661     
 -0.379628059954839      -0.361959856277017      -0.539834999319985     
 -0.522166795642163      -0.504498591964341      -0.486830388286519     
 -0.469162184608696      -0.451493980930874      -0.433825777253052     
 -0.416157573575230      -0.398489369897408      -0.380821166219586     
 -0.363152962541764     
  0.121462477923929       0.127382764574089       0.133303051224249     
  0.139223337874409       0.145143624524569       0.151063911174729     
  0.156984197824889       0.162904484475049       0.168824771125209     
  0.174745057775369       0.180665344425529       0.125023123842020     
  0.130943410492180       0.136863697142340       0.142783983792500     
  0.148704270442660       0.154624557092820       0.160544843742980     
  0.166465130393140       0.172385417043300       0.178305703693460     
  0.184225990343620       0.135648908083138       0.141569194733298     
  0.147489481383458       0.153409768033618       0.159330054683778     
  0.165250341333938       0.171170627984098       0.177090914634258     
  0.183011201284418       0.188931487934578       0.194851774584738     
  0.153172255682266       0.159092542332426       0.165012828982586     
  0.170933115632746       0.176853402282906       0.182773688933066     
  0.188693975583226       0.194614262233386       0.200534548883546     
  0.206454835533706       0.212375122183866       0.177316812979824     
  0.183237099629984       0.189157386280144       0.195077672930304     
  0.200997959580464       0.206918246230624       0.212838532880784     
  0.218758819530944       0.224679106181104       0.230599392831263     
  0.236519679481424       0.207701805883970       0.213622092534130     
  0.219542379184290       0.225462665834450       0.231382952484610     
  0.237303239134770       0.243223525784930       0.249143812435090     
  0.255064099085250       0.260984385735409       0.266904672385570     
  0.243848044905491       0.249768331555651       0.255688618205811     
  0.261608904855971       0.267529191506131       0.273449478156291     
  0.279369764806451       0.285290051456611       0.291210338106771     
  0.297130624756931       0.303050911407091       0.285185482262301     
  0.291105768912461       0.297026055562621       0.302946342212781     
  0.308866628862941       0.314786915513101       0.320707202163261     
  0.326627488813421       0.332547775463581       0.338468062113741     
  0.344388348763901       0.331062201873496       0.336982488523656     
  0.342902775173816       0.348823061823976       0.354743348474136     
  0.360663635124296       0.366583921774456       0.372504208424616     
  0.378424495074776       0.384344781724936       0.390265068375096     
  0.380754700465382       0.386674987115542       0.392595273765702     
  0.398515560415862       0.404435847066022       0.410356133716182     
  0.416276420366342       0.422196707016502       0.428116993666662     
  0.434037280316822       0.439957566966982       0.433479297650306     
  0.439399584300466       0.445319870950626       0.451240157600786     
  0.457160444250946       0.463080730901106       0.469001017551266     
  0.474921304201426       0.480841590851586       0.486761877501746     
  0.492682164151906       0.488404495034514       0.494324781684674     
  0.500245068334834       0.506165354984994       0.512085641635154     
  0.518005928285314       0.523926214935474       0.529846501585634     
  0.535766788235794       0.541687074885954       0.547607361536114     
  0.544664089444534       0.550584376094694       0.556504662744854     
  0.562424949395014       0.568345236045175       0.574265522695334     
  0.580185809345494       0.586106095995654       0.592026382645814     
  0.597946669295974       0.603866955946134       0.601370833468669     
  0.607291120118829       0.613211406768989       0.619131693419149     
  0.625051980069309       0.630972266719468       0.636892553369629     
  0.642812840019788       0.648733126669949       0.654653413320109     
  0.660573699970268       0.657630427878689       0.663550714528849     
  0.669471001179009       0.675391287829169       0.681311574479329     
  0.687231861129489       0.693152147779649       0.699072434429809     
  0.704992721079969       0.710913007730129       0.716833294380289     
  0.712555625262897       0.718475911913057       0.724396198563217     
  0.730316485213377       0.736236771863537       0.742157058513697     
  0.748077345163857       0.753997631814017       0.759917918464177     
  0.765838205114337       0.771758491764497       0.765280222447821     
  0.771200509097981       0.777120795748141       0.783041082398301     
  0.788961369048461       0.794881655698621       0.800801942348781     
  0.806722228998941       0.812642515649101       0.818562802299261     
  0.824483088949421       0.814972721039707       0.820893007689867     
  0.826813294340027       0.832733580990187       0.838653867640347     
  0.844574154290507       0.850494440940667       0.856414727590827     
  0.862335014240987       0.868255300891147       0.874175587541307     
  0.860849440650901       0.866769727301061       0.872690013951221     
  0.878610300601381       0.884530587251541       0.890450873901701     
  0.896371160551861       0.902291447202021       0.908211733852181     
  0.914132020502342       0.920052307152502       0.902186878007712     
  0.908107164657872       0.914027451308032       0.919947737958192     
  0.925868024608352       0.931788311258512       0.937708597908672     
  0.943628884558832       0.949549171208992       0.955469457859152     
  0.961389744509312       0.938333117029233       0.944253403679393     
  0.950173690329553       0.956093976979713       0.962014263629873     
  0.967934550280033       0.973854836930193       0.979775123580353     
  0.985695410230513       0.991615696880673       0.997535983530833     
  0.968718109933379       0.974638396583539       0.980558683233699     
  0.986478969883859       0.992399256534019       0.998319543184179     
   1.00423982983434        1.01016011648450        1.01608040313466     
   1.02200068978482        1.02792097643498       0.992862667230937     
  0.998782953881097        1.00470324053126        1.01062352718142     
   1.01654381383158        1.02246410048174        1.02838438713190     
   1.03430467378206        1.04022496043222        1.04614524708238     
   1.05206553373254        1.01038601483006        1.01630630148022     
   1.02222658813038        1.02814687478054        1.03406716143070     
   1.03998744808086        1.04590773473102        1.05182802138118     
   1.05774830803134        1.06366859468150        1.06958888133166     
   1.02101179907118        1.02693208572134        1.03285237237150     
   1.03877265902166        1.04469294567182        1.05061323232198     
   1.05653351897214        1.06245380562230        1.06837409227246     
   1.07429437892262        1.08021466557278        1.02457244498927     
   1.03049273163943        1.03641301828959        1.04233330493975     
   1.04825359158991        1.05417387824007        1.06009416489023     
   1.06601445154039        1.07193473819055        1.07785502484071     
   1.08377531149087     
  3.960717710078315E-002  3.564645939070483E-002  3.168574168062652E-002
  2.772502397054821E-002  2.376430626046989E-002  1.980358855039158E-002
  1.584287084031326E-002  1.188215313023495E-002  7.921435420156629E-003
  3.960717710078312E-003  0.000000000000000E+000  3.960717710078315E-002
  3.564645939070483E-002  3.168574168062652E-002  2.772502397054821E-002
  2.376430626046989E-002  1.980358855039158E-002  1.584287084031326E-002
  1.188215313023495E-002  7.921435420156629E-003  3.960717710078312E-003
  0.000000000000000E+000  3.960717710078315E-002  3.564645939070483E-002
  3.168574168062652E-002  2.772502397054821E-002  2.376430626046989E-002
  1.980358855039158E-002  1.584287084031326E-002  1.188215313023495E-002
  7.921435420156629E-003  3.960717710078312E-003  0.000000000000000E+000
  3.960717710078315E-002  3.564645939070483E-002  3.168574168062652E-002
  2.772502397054821E-002  2.376430626046989E-002  1.980358855039158E-002
  1.584287084031326E-002  1.188215313023495E-002  7.921435420156629E-003
  3.960717710078312E-003  0.000000000000000E+000  3.960717710078315E-002
  3.564645939070483E-002  3.168574168062652E-002  2.772502397054821E-002
  2.376430626046989E-002  1.980358855039158E-002  1.584287084031326E-002
  1.188215313023495E-002  7.921435420156629E-003  3.960717710078312E-003
  0.000000000000000E+000  3.960717710078315E-002  3.564645939070483E-002
  3.168574168062652E-002  2.772502397054821E-002  2.376430626046989E-002
  1.980358855039158E-002  1.584287084031326E-002  1.188215313023495E-002
  7.921435420156629E-003  3.960717710078312E-003  0.000000000000000E+000
  3.960717710078315E-002  3.564645939070483E-002  3.168574168062652E-002
  2.772502397054821E-002  2.376430626046989E-002  1.980358855039158E-002
  1.584287084031326E-002  1.188215313023495E-002  7.921435420156629E-003
  3.960717710078312E-003  0.000000000000000E+000  3.960717710078315E-002
  3.564645939070483E-002  3.168574168062652E-002  2.772502397054821E-002
  2.376430626046989E-002  1.980358855039158E-002  1.584287084031326E-002
  1.188215313023495E-002  7.921435420156629E-003  3.960717710078312E-003
  0.000000000000000E+000  3.960717710078315E-002  3.564645939070483E-002
  3.168574168062652E-002  2.772502397054821E-002  2.376430626046989E-002
  1.980358855039158E-002  1.584287084031326E-002  1.188215313023495E-002
  7.921435420156629E-003  3.960717710078312E-003  0.000000000000000E+000
  3.960717710078315E-002  3.564645939070483E-002  3.168574168062652E-002
  2.772502397054821E-002  2.376430626046989E-002  1.980358855039158E-002
  1.584287084031326E-002  1.188215313023495E-002  7.921435420156629E-003
  3.960717710078312E-003  0.000000000000000E+000  3.960717710078315E-002
  3.564645939070483E-002  3.168574168062652E-002  2.772502397054821E-002
  2.376430626046989E-002  1.980358855039158E-002  1.584287084031326E-002
  1.188215313023495E-002  7.921435420156629E-003  3.960717710078312E-003
  0.000000000000000E+000  3.960717710078315E-002  3.564645939070483E-002
  3.168574168062652E-002  2.772502397054821E-002  2.376430626046989E-002
  1.980358855039158E-002  1.584287084031326E-002  1.188215313023495E-002
  7.921435420156629E-003  3.960717710078312E-003  0.000000000000000E+000
  3.960717710078315E-002  3.564645939070483E-002  3.168574168062652E-002
  2.772502397054821E-002  2.376430626046989E-002  1.980358855039158E-002
  1.584287084031326E-002  1.188215313023495E-002  7.921435420156629E-003
  3.960717710078312E-003  0.000000000000000E+000  3.960717710078315E-002
  3.564645939070483E-002  3.168574168062652E-002  2.772502397054821E-002
  2.376430626046989E-002  1.980358855039158E-002  1.584287084031326E-002
  1.188215313023495E-002  7.921435420156629E-003  3.960717710078312E-003
  0.000000000000000E+000  3.960717710078315E-002  3.564645939070483E-002
  3.168574168062652E-002  2.772502397054821E-002  2.376430626046989E-002
  1.980358855039158E-002  1.584287084031326E-002  1.188215313023495E-002
  7.921435420156629E-003  3.960717710078312E-003  0.000000000000000E+000
  3.960717710078315E-002  3.564645939070483E-002  3.168574168062652E-002
  2.772502397054821E-002  2.376430626046989E-002  1.980358855039158E-002
  1.584287084031326E-002  1.188215313023495E-002  7.921435420156629E-003
  3.960717710078312E-003  0.000000000000000E+000  3.960717710078315E-002
  3.564645939070483E-002  3.168574168062652E-002  2.772502397054821E-002
  2.376430626046989E-002  1.980358855039158E-002  1.584287084031326E-002
  1.188215313023495E-002  7.921435420156629E-003  3.960717710078312E-003
  0.000000000000000E+000  3.960717710078315E-002  3.564645939070483E-002
  3.168574168062652E-002  2.772502397054821E-002  2.376430626046989E-002
  1.980358855039158E-002  1.584287084031326E-002  1.188215313023495E-002
  7.921435420156629E-003  3.960717710078312E-003  0.000000000000000E+000
  3.960717710078315E-002  3.564645939070483E-002  3.168574168062652E-002
  2.772502397054821E-002  2.376430626046989E-002  1.980358855039158E-002
  1.584287084031326E-002  1.188215313023495E-002  7.921435420156629E-003
  3.960717710078312E-003  0.000000000000000E+000  3.960717710078315E-002
  3.564645939070483E-002  3.168574168062652E-002  2.772502397054821E-002
  2.376430626046989E-002  1.980358855039158E-002  1.584287084031326E-002
  1.188215313023495E-002  7.921435420156629E-003  3.960717710078312E-003
  0.000000000000000E+000  3.960717710078315E-002  3.564645939070483E-002
  3.168574168062652E-002  2.772502397054821E-002  2.376430626046989E-002
  1.980358855039158E-002  1.584287084031326E-002  1.188215313023495E-002
  7.921435420156629E-003  3.960717710078312E-003  0.000000000000000E+000
  3.960717710078315E-002  3.564645939070483E-002  3.168574168062652E-002
  2.772502397054821E-002  2.376430626046989E-002  1.980358855039158E-002
  1.584287084031326E-002  1.188215313023495E-002  7.921435420156629E-003
  3.960717710078312E-003  0.000000000000000E+000  3.960717710078315E-002
  3.564645939070483E-002  3.168574168062652E-002  2.772502397054821E-002
  2.376430626046989E-002  1.980358855039158E-002  1.584287084031326E-002
  1.188215313023495E-002  7.921435420156629E-003  3.960717710078312E-003
  0.000000000000000E+000  3.960717710078315E-002  3.564645939070483E-002
  3.168574168062652E-002  2.772502397054821E-002  2.376430626046989E-002
  1.980358855039158E-002  1.584287084031326E-002  1.188215313023495E-002
  7.921435420156629E-003  3.960717710078312E-003  0.000000000000000E+000
  3.960717710078315E-002  3.564645939070483E-002  3.168574168062652E-002
  2.772502397054821E-002  2.376430626046989E-002  1.980358855039158E-002
  1.584287084031326E-002  1.188215313023495E-002  7.921435420156629E-003
  3.960717710078312E-003  0.000000000000000E+000  3.960717710078315E-002
  3.564645939070483E-002  3.168574168062652E-002  2.772502397054821E-002
  2.376430626046989E-002  1.980358855039158E-002  1.584287084031326E-002
  1.188215313023495E-002  7.921435420156629E-003  3.960717710078312E-003
  0.000000000000000E+000
  4.835505423049837E-002  6.476059842291700E-002  7.479785492420454E-002
  8.161922680198069E-002  8.627933970952688E-002  8.924932299294616E-002
  9.076418518493583E-002  9.094887116266590E-002  8.991013093713371E-002
  8.794820105883511E-002  8.120493516459255E-002  0.110637580607964     
  0.128478018167552       0.140544648550457       0.148769141404759     
  0.154010150991798       0.156698688580364       0.157075441357130     
  0.155382343690668       0.152437030005595       0.112120679647166     
  0.156909239288214       0.184248417574215       0.202682811404682     
  0.215219778640220       0.223217744294578       0.227368555613165     
  0.228071575672125       0.225724917904515       0.221404948331297     
  0.141391361750337       0.201331546615148       0.238875746500616     
  0.264413287616349       0.281841565974836       0.292996737930668     
  0.298826224418684       0.299843802710831       0.296438217193644     
  0.289624497257984       0.170940578314955       0.245551301797628     
  0.293305279024888       0.326227508703764       0.348886090933902     
  0.363484195171247       0.371172865686718       0.372556191829115     
  0.368038974571963       0.358773091194108       0.201864752382639     
  0.291213291673256       0.349148797522654       0.389527498900913     
  0.417576427700441       0.435821804291691       0.445592008412235     
  0.447585082787940       0.442253558705551       0.430872408520644     
  0.234753027793197       0.339384940160278       0.407734366785441     
  0.455731607348735       0.489347543332165       0.511458854063453     
  0.523580038838288       0.526506974260533       0.520731005356353     
  0.507576987980803       0.269870112161878       0.390610559342750     
  0.469840168856589       0.525780901902561       0.565241709828905     
  0.591496863524412       0.606269729434006       0.610460076984324     
  0.604584444725830       0.589959688012578       0.307201027349548     
  0.444967893059228       0.535656015414684       0.599964657037421     
  0.645621194703369       0.676340295226413       0.694076609716508     
  0.699841070313224       0.694166550795682       0.678323099868886     
  0.346460165211012       0.502095826281642       0.604800991674251     
  0.677901434596963       0.730105654489169       0.765601947787648     
  0.786593999436434       0.794210268672372       0.788994377049792     
  0.772142501838203       0.387099158196359       0.561219045829466     
  0.676359861780059       0.758578418526767       0.817607898990680     
  0.858133298002601       0.882619763126017       0.892317824814102     
  0.887777758953630       0.870101317553766       0.428318042463119     
  0.621172938508361       0.748920986699942       0.840399375038526     
  0.906388120283377       0.952081454264571       0.980213127799836     
  0.992158409485057       0.988471237437960       0.970142897766755     
  0.469072859313874       0.680418325444792       0.820597714112488     
  0.921211304356164       0.994083762092600        1.04491990965069     
   1.07672405389142        1.09099738568613        1.08829621717282     
   1.06948996943176       0.508074132924589       0.737038355009286     
  0.889023308861516       0.998296788983560        1.07769851557380     
   1.13343338735623        1.16877325512856        1.18534563830111     
   1.18371081773920        1.16461087864659       0.543776516986838     
  0.788718337769830       0.951320631764946        1.06833345124992     
   1.15355182049669        1.21365794853094        1.25218373335542     
   1.27088359239134        1.27032770102244        1.25113308496278     
  0.574366125617426       0.832718036488343        1.00405837267546     
   1.12733444389153        1.21720491767157        1.28079454027202     
   1.32188403315722        1.34235635472969        1.34280302867272     
   1.32372766433697       0.597757202150969       0.865853090738951     
   1.04321467047965        1.17059540856059        1.26339438962635     
   1.32913324671601        1.37182717715176        1.39349030653893     
   1.39475205269872        1.37602336302600       0.611611744729825     
  0.884504677779904        1.06417324531990        1.19268190040615     
   1.28601934619408        1.35204904205530        1.39500168253131     
   1.41702229726086        1.41879449634178        1.40066055665835     
  0.613390230050296       0.884667735481388        1.06177095140534     
   1.18749426976505        1.27824515703378        1.34216147700135     
   1.38365575475167        1.40498696521856        1.40689329395389     
   1.38965824473940       0.600421571800528       0.862019298602759     
   1.03039777765915        1.14845548472279        1.23282392961192     
   1.29180724579610        1.32991714948333        1.34946267129754     
   1.35119480629443        1.33530354555690       0.569933576173713     
  0.811935056001638       0.964152670303210        1.06894454730569     
   1.14285137601790        1.19408326801799        1.22704601430371     
   1.24396119874114        1.24551023769036        1.23169281783023     
  0.518887814769228       0.729360159514799       0.857250424526885     
  0.943396663654082        1.00341464024270        1.04479624435060     
   1.07146251599540        1.08538888619896        1.08721061931341     
   1.07675140060916       0.443288855673003       0.608934451334414     
  0.705723153731635       0.769969341186684       0.814529088729205     
  0.845277959132442       0.865248926889165       0.876056132244623     
  0.878531160551079       0.873320322564744       0.337202671355357     
  0.448513986582814       0.512626575172906       0.555249947363305     
  0.584908018964095       0.605439516386946       0.618820056024837     
  0.626095298999998       0.627808658981433       0.624826613264554     
  0.204665549522559       0.266919376709203       0.303093800133366     
  0.327265733423302       0.344134235399842       0.355827738518701     
  0.363437999766557       0.367516705249946       0.368242234786920     
  0.365354978370949     
 Zone I=   11 J=1    K=1  T="NearWake"
 DATAPACKING=BLOCK
 VARLOCATION=([4]=CELLCENTERED)
 -0.330444577396365      -0.273676470993637      -0.221685547879314     
 -0.174250601319389      -0.131623159027419      -9.398015060885791E-002
 -6.157066611682934E-002 -3.482748174321451E-002 -1.396927682922062E-002
  1.865368363962739E-003  1.311355564653023E-002
   1.02977761159429        1.04646737238035        1.05866337395549     
   1.06781715421850        1.07421439282193        1.07838285813949     
   1.08088262998680        1.08226582686637        1.08311355800627     
   1.14190014751043        1.14180951277353     
 -2.945501272318378E-003 -2.945501272318379E-003 -7.652513763868512E-003
 -1.054457659795077E-002 -1.184883474510457E-002 -1.162236510925778E-002
 -9.710376129379023E-003 -5.938252971478656E-003 -1.114785813963447E-003
  2.970071746072594E-003  4.033385390352401E-003
   1.38965824473940        1.20920037943271        1.03331150522323     
  0.863307845688558       0.700774929743554       0.547531780911124     
  0.405421405209783       0.275549874277528       0.156140588013869     
  0.000000000000000E+000
 Zone I=    2 J=1   K=1   T="FarWake"
 DATAPACKING=BLOCK
 VARLOCATION=([4]=CELLCENTERED)
  1.311355564653023E-002  1.311355564653023E-002
   1.14180951277353        1.14180951277353     
  4.033385390352401E-003  4.033385390352401E-003
  0.000000000000000E+000
 Zone I=   11 J=   26 K=1  T="Blade"
 DATAPACKING=BLOCK
 VARLOCATION=([4]=CELLCENTERED)
  0.237219635633934       0.219551431956112       0.201883228278289     
  0.184215024600467       0.166546820922645       0.148878617244823     
  0.131210413567001       0.113542209889178       9.587400621135629E-002
  7.820580253353411E-002  6.053759885571192E-002  0.238412741898680     
  0.220744538220858       0.203076334543036       0.185408130865214     
  0.167739927187391       0.150071723509569       0.132403519831747     
  0.114735316153925       9.706711247610253E-002  7.939890879828036E-002
  6.173070512045817E-002  0.241973244694396       0.224305041016574     
  0.206636837338752       0.188968633660930       0.171300429983108     
  0.153632226305286       0.135964022627463       0.118295818949641     
  0.100627615271819       8.295941159399675E-002  6.529120791617457E-002
  0.247844992765054       0.230176789087231       0.212508585409409     
  0.194840381731587       0.177172178053765       0.159503974375943     
  0.141835770698120       0.124167567020298       0.106499363342476     
  8.883115966465381E-002  7.116295598683164E-002  0.255935385135965     
  0.238267181458142       0.220598977780320       0.202930774102498     
  0.185262570424676       0.167594366746854       0.149926163069031     
  0.132257959391209       0.114589755713387       9.692155203556480E-002
  7.925334835774260E-002  0.266116831486474       0.248448627808652     