 Title = "Wing and Wake"
 VARIABLES = "X" "Y" "Z" "GAM"
 Zone I=   26 J=   25 K=1  T="Blade"
 DATAPACKING=BLOCK
 VARLOCATION=([4]=CELLCENTERED)
  0.122238480576972       0.121792688897327       0.121346897217683     
  0.120901105538038       0.120455313858393       0.120009522178748     
  0.119563730499104       0.119117938819459       0.118672147139814     
  0.118226355460170       0.117780563780525       0.117334772100880     
  0.116888980421235       0.116443188741591       0.115997397061946     
  0.115551605382301       0.115105813702656       0.114660022023012     
  0.114214230343367       0.113768438663722       0.113322646984077     
  0.112876855304433       0.112431063624788       0.111985271945144     
  0.111539480265499       0.111093688585854       0.123828205637361     
  0.123382413957717       0.122936622278072       0.122490830598428     
  0.122045038918783       0.121599247239138       0.121153455559493     
  0.120707663879848       0.120261872200204       0.119816080520559     
  0.119370288840914       0.118924497161270       0.118478705481625     
  0.118032913801980       0.117587122122336       0.117141330442691     
  0.116695538763046       0.116249747083401       0.115803955403757     
  0.115358163724112       0.114912372044467       0.114466580364822     
  0.114020788685178       0.113574997005533       0.113129205325888     
  0.112683413646244       0.128570180181992       0.128124388502347     
  0.127678596822702       0.127232805143057       0.126787013463412     
  0.126341221783768       0.125895430104123       0.125449638424479     
  0.125003846744834       0.124558055065189       0.124112263385544     
  0.123666471705900       0.123220680026255       0.122774888346610     
  0.122329096666965       0.121883304987321       0.121437513307676     
  0.120991721628031       0.120545929948387       0.120100138268742     
  0.119654346589097       0.119208554909452       0.118762763229808     
  0.118316971550163       0.117871179870518       0.117425388190873     
  0.136383267711680       0.135937476032035       0.135491684352390     
  0.135045892672746       0.134600100993101       0.134154309313456     
  0.133708517633812       0.133262725954167       0.132816934274522     
  0.132371142594877       0.131925350915233       0.131479559235588     
  0.131033767555943       0.130587975876299       0.130142184196653     
  0.129696392517009       0.129250600837364       0.128804809157719     
  0.128359017478075       0.127913225798430       0.127467434118785     
  0.127021642439141       0.126575850759496       0.126130059079851     
  0.125684267400206       0.125238475720562       0.147133784132596     
  0.146687992452952       0.146242200773307       0.145796409093662     
  0.145350617414017       0.144904825734372       0.144459034054728     
  0.144013242375083       0.143567450695438       0.143121659015793     
  0.142675867336149       0.142230075656504       0.141784283976859     
  0.141338492297215       0.140892700617570       0.140446908937925     
  0.140001117258280       0.139555325578635       0.139109533898991     
  0.138663742219347       0.138217950539702       0.137772158860057     
  0.137326367180412       0.136880575500767       0.136434783821122     
  0.135988992141478       0.160637785128172       0.160191993448528     
  0.159746201768883       0.159300410089238       0.158854618409594     
  0.158408826729948       0.157963035050304       0.157517243370659     
  0.157071451691014       0.156625660011370       0.156179868331725     
  0.155734076652081       0.155288284972436       0.154842493292791     
  0.154396701613146       0.153950909933502       0.153505118253857     
  0.153059326574212       0.152613534894567       0.152167743214922     
  0.151721951535278       0.151276159855633       0.150830368175988     
  0.150384576496344       0.149938784816699       0.149492993137054     
  0.176664213497358       0.176218421817713       0.175772630138068     
  0.175326838458424       0.174881046778779       0.174435255099134     
  0.173989463419490       0.173543671739845       0.173097880060200     
  0.172652088380556       0.172206296700911       0.171760505021266     
  0.171314713341621       0.170868921661976       0.170423129982332     
  0.169977338302687       0.169531546623042       0.169085754943397     
  0.168639963263753       0.168194171584109       0.167748379904464     
  0.167302588224819       0.166856796545174       0.166411004865529     
  0.165965213185884       0.165519421506240       0.194938852607391     
  0.194493060927746       0.194047269248101       0.193601477568456     
  0.193155685888812       0.192709894209167       0.192264102529523     
  0.191818310849877       0.191372519170233       0.190926727490588     
  0.190480935810943       0.190035144131299       0.189589352451654     
  0.189143560772010       0.188697769092365       0.188251977412720     
  0.187806185733075       0.187360394053431       0.186914602373786     
  0.186468810694141       0.186023019014496       0.185577227334852     
  0.185131435655207       0.184685643975562       0.184239852295917     
  0.183794060616272       0.215149018316411       0.214703226636766     
  0.214257434957122       0.213811643277477       0.213365851597832     
  0.212920059918187       0.212474268238543       0.212028476558898     
  0.211582684879253       0.211136893199608       0.210691101519964     
  0.210245309840319       0.209799518160674       0.209353726481029     
  0.208907934801385       0.208462143121740       0.208016351442096     
  0.207570559762450       0.207124768082806       0.206678976403161     
  0.206233184723516       0.205787393043872       0.205341601364227     
  0.204895809684582       0.204450018004937       0.204004226325293     
  0.236948909085820       0.236503117406176       0.236057325726531     
  0.235611534046887       0.235165742367242       0.234719950687597     
  0.234274159007952       0.233828367328307       0.233382575648662     
  0.232936783969018       0.232490992289373       0.232045200609729     
  0.231599408930084       0.231153617250439       0.230707825570794     
  0.230262033891150       0.229816242211505       0.229370450531860     
  0.228924658852215       0.228478867172570       0.228033075492926     
  0.227587283813281       0.227141492133636       0.226695700453992     
  0.226249908774347       0.225804117094702       0.259965522740483     
  0.259519731060839       0.259073939381193       0.258628147701549     
  0.258182356021904       0.257736564342260       0.257290772662614     
  0.256844980982970       0.256399189303325       0.255953397623681     
  0.255507605944035       0.255061814264391       0.254616022584746     
  0.254170230905101       0.253724439225457       0.253278647545812     
  0.252832855866167       0.252387064186523       0.251941272506878     
  0.251495480827233       0.251049689147589       0.250603897467944     
  0.250158105788299       0.249712314108654       0.249266522429009     
  0.248820730749365       0.283805038639357       0.283359246959712     
  0.282913455280068       0.282467663600424       0.282021871920778     
  0.281576080241134       0.281130288561488       0.280684496881844     
  0.280238705202199       0.279792913522554       0.279347121842909     
  0.278901330163265       0.278455538483621       0.278009746803976     
  0.277563955124331       0.277118163444685       0.276672371765041     
  0.276226580085396       0.275780788405752       0.275334996726107     
  0.274889205046463       0.274443413366818       0.273997621687173     
  0.273551830007528       0.273106038327883       0.272660246648238     
  0.308059556055850       0.307613764376205       0.307167972696560     
  0.306722181016916       0.306276389337271       0.305830597657626     
  0.305384805977982       0.304939014298336       0.304493222618692     
  0.304047430939047       0.303601639259402       0.303155847579757     
  0.302710055900113       0.302264264220468       0.301818472540824     
  0.301372680861179       0.300926889181534       0.300481097501890     
  0.300035305822244       0.299589514142599       0.299143722462955     
  0.298697930783311       0.298252139103665       0.297806347424020     
  0.297360555744376       0.296914764064731       0.332314073472342     
  0.331868281792698       0.331422490113052       0.330976698433408     
  0.330530906753763       0.330085115074119       0.329639323394474     
  0.329193531714830       0.328747740035184       0.328301948355539     
  0.327856156675894       0.327410364996250       0.326964573316606     
  0.326518781636960       0.326072989957315       0.325627198277672     
  0.325181406598026       0.324735614918381       0.324289823238737     
  0.323844031559092       0.323398239879447       0.322952448199803     
  0.322506656520158       0.322060864840513       0.321615073160868     
  0.321169281481224       0.356153589371216       0.355707797691571     
  0.355262006011926       0.354816214332282       0.354370422652638     
  0.353924630972993       0.353478839293348       0.353033047613703     
  0.352587255934057       0.352141464254413       0.351695672574769     
  0.351249880895124       0.350804089215479       0.350358297535834     
  0.349912505856189       0.349466714176546       0.349020922496901     
  0.348575130817256       0.348129339137612       0.347683547457966     
  0.347237755778321       0.346791964098677       0.346346172419032     
  0.345900380739388       0.345454589059742       0.345008797380098     
  0.379170203025879       0.378724411346235       0.378278619666589     
  0.377832827986944       0.377387036307299       0.376941244627655     
  0.376495452948010       0.376049661268366       0.375603869588721     
  0.375158077909076       0.374712286229431       0.374266494549787     
  0.373820702870141       0.373374911190498       0.372929119510853     
  0.372483327831208       0.372037536151563       0.371591744471919     
  0.371145952792273       0.370700161112629       0.370254369432984     
  0.369808577753339       0.369362786073694       0.368916994394050     
  0.368471202714405       0.368025411034760       0.400970093795288     
  0.400524302115643       0.400078510435999       0.399632718756355     
  0.399186927076710       0.398741135397064       0.398295343717420     
  0.397849552037775       0.397403760358131       0.396957968678486     
  0.396512176998842       0.396066385319197       0.395620593639552     
  0.395174801959907       0.394729010280262       0.394283218600617     
  0.393837426920973       0.393391635241327       0.392945843561684     
  0.392500051882038       0.392054260202393       0.391608468522749     
  0.391162676843104       0.390716885163459       0.390271093483815     
  0.389825301804170       0.421180259504308       0.420734467824664     
  0.420288676145019       0.419842884465374       0.419397092785729     
  0.418951301106085       0.418505509426440       0.418059717746795     
  0.417613926067150       0.417168134387506       0.416722342707861     
  0.416276551028217       0.415830759348571       0.415384967668927     
  0.414939175989282       0.414493384309637       0.414047592629993     
  0.413601800950349       0.413156009270703       0.412710217591058     
  0.412264425911413       0.411818634231769       0.411372842552124     
  0.410927050872480       0.410481259192834       0.410035467513190     
  0.439454898614341       0.439009106934696       0.438563315255051     
  0.438117523575407       0.437671731895763       0.437225940216118     
  0.436780148536473       0.436334356856829       0.435888565177183     
  0.435442773497539       0.434996981817894       0.434551190138250     
  0.434105398458604       0.433659606778960       0.433213815099315     
  0.432768023419670       0.432322231740026       0.431876440060380     
  0.431430648380736       0.430984856701091       0.430539065021447     
  0.430093273341801       0.429647481662157       0.429201689982513     
  0.428755898302868       0.428310106623224       0.455481326983528     
  0.455035535303882       0.454589743624238       0.454143951944592     
  0.453698160264948       0.453252368585302       0.452806576905658     
  0.452360785226014       0.451914993546369       0.451469201866725     
  0.451023410187080       0.450577618507436       0.450131826827790     
  0.449686035148145       0.449240243468501       0.448794451788856     
  0.448348660109212       0.447902868429567       0.447457076749922     
  0.447011285070277       0.446565493390632       0.446119701710987     
  0.445673910031343       0.445228118351697       0.444782326672053     
  0.444336534992409       0.468985327979103       0.468539536299458     
  0.468093744619814       0.467647952940169       0.467202161260524     
  0.466756369580880       0.466310577901235       0.465864786221590     
  0.465418994541945       0.464973202862300       0.464527411182656     
  0.464081619503011       0.463635827823366       0.463190036143722     
  0.462744244464077       0.462298452784433       0.461852661104788     
  0.461406869425143       0.460961077745498       0.460515286065854     
  0.460069494386208       0.459623702706564       0.459177911026918     
  0.458732119347274       0.458286327667630       0.457840535987984     
  0.479735844400019       0.479290052720375       0.478844261040730     
  0.478398469361085       0.477952677681440       0.477506886001795     
  0.477061094322151       0.476615302642506       0.476169510962862     
  0.475723719283217       0.475277927603572       0.474832135923928     
  0.474386344244283       0.473940552564638       0.473494760884993     
  0.473048969205348       0.472603177525703       0.472157385846059     
  0.471711594166414       0.471265802486770       0.470820010807124     
  0.470374219127481       0.469928427447835       0.469482635768191     
  0.469036844088546       0.468591052408901       0.487548931929708     
  0.487103140250063       0.486657348570418       0.486211556890774     
  0.485765765211128       0.485319973531485       0.484874181851839     
  0.484428390172195       0.483982598492550       0.483536806812904     
  0.483091015133260       0.482645223453616       0.482199431773971     
  0.481753640094327       0.481307848414681       0.480862056735036     
  0.480416265055392       0.479970473375747       0.479524681696103     
  0.479078890016458       0.478633098336813       0.478187306657169     
  0.477741514977523       0.477295723297879       0.476849931618233     
  0.476404139938590       0.492290906474338       0.491845114794693     
  0.491399323115048       0.490953531435404       0.490507739755758     
  0.490061948076113       0.489616156396470       0.489170364716825     
  0.488724573037180       0.488278781357535       0.487832989677891     
  0.487387197998246       0.486941406318601       0.486495614638956     
  0.486049822959311       0.485604031279666       0.485158239600023     
  0.484712447920377       0.484266656240733       0.483820864561088     
  0.483375072881444       0.482929281201798       0.482483489522153     
  0.482037697842509       0.481591906162864       0.481146114483220     
  0.493880631534726       0.493434839855083       0.492989048175438     
  0.492543256495792       0.492097464816148       0.491651673136503     
  0.491205881456859       0.490760089777214       0.490314298097570     
  0.489868506417924       0.489422714738280       0.488976923058636     
  0.488531131378990       0.488085339699346       0.487639548019701     
  0.487193756340056       0.486747964660411       0.486302172980767     
  0.485856381301122       0.485410589621477       0.484964797941832     
  0.484519006262188       0.484073214582543       0.483627422902898     
  0.483181631223254       0.482735839543610     
  1.147840869778050E-002  9.830461120741867E-003  8.182513543703506E-003
  6.534565966664989E-003  4.886618389626477E-003  3.238670812588117E-003
  1.590723235549705E-003 -5.722434148900061E-005 -1.705171918527254E-003
 -3.353119495565850E-003 -5.001067072604219E-003 -6.649014649642827E-003
 -8.296962226681224E-003 -9.944909803719863E-003 -1.159285738075840E-002
 -1.324080495779667E-002 -1.488875253483521E-002 -1.653670011187377E-002
 -1.818464768891208E-002 -1.983259526595081E-002 -2.148054284298913E-002
 -2.312849042002761E-002 -2.477643799706619E-002 -2.642438557410453E-002
 -2.807233315114289E-002 -2.972028072818157E-002  1.104836698121211E-002
  9.400419404173580E-003  7.752471827135022E-003  6.104524250096714E-003
  4.456576673058232E-003  2.808629096019792E-003  1.160681518981158E-003
 -4.872660580573735E-004 -2.135213635095799E-003 -3.783161212134278E-003
 -5.431108789172692E-003 -7.079056366211233E-003 -8.727003943249725E-003
 -1.037495152028805E-002 -1.202289909732663E-002 -1.367084667436518E-002
 -1.531879425140359E-002 -1.696674182844204E-002 -1.861468940548076E-002
 -2.026263698251914E-002 -2.191058455955744E-002 -2.355853213659624E-002
 -2.520647971363469E-002 -2.685442729067296E-002 -2.850237486771141E-002
 -3.015032244474996E-002  9.765599964507590E-003  8.117652387469034E-003
  6.469704810430647E-003  4.821757233391966E-003  3.173809656353558E-003
  1.525862079315219E-003 -1.220854977233605E-004 -1.770033074761898E-003
 -3.417980651800364E-003 -5.065928228838760E-003 -6.713875805877273E-003
 -8.361823382915799E-003 -1.000977095995412E-002 -1.165771853699277E-002
 -1.330566611403113E-002 -1.495361369106966E-002 -1.660156126810812E-002
 -1.824950884514655E-002 -1.989745642218520E-002 -2.154540399922358E-002
 -2.319335157626210E-002 -2.484129915330035E-002 -2.648924673033903E-002
 -2.813719430737751E-002 -2.978514188441597E-002 -3.143308946145463E-002
  7.652056146972887E-003  6.004108569934372E-003  4.356160992895957E-003
  2.708213415857320E-003  1.060265838819072E-003 -5.876817382195361E-004
 -2.235629315257936E-003 -3.883576892296599E-003 -5.531524469335054E-003
 -7.179472046373798E-003 -8.827419623412063E-003 -1.047536720045057E-002
 -1.212331477748889E-002 -1.377126235452751E-002 -1.541920993156585E-002
 -1.706715750860436E-002 -1.871510508564282E-002 -2.036305266268140E-002
 -2.201100023971970E-002 -2.365894781675822E-002 -2.530689539379660E-002
 -2.695484297083529E-002 -2.860279054787358E-002 -3.025073812491198E-002
 -3.189868570195066E-002 -3.354663327898907E-002  4.743898849311088E-003
  3.095951272272579E-003  1.448003695233999E-003 -1.999438818044805E-004
 -1.847891458842797E-003 -3.495839035881242E-003 -5.143786612919758E-003
 -6.791734189958296E-003 -8.439681766996807E-003 -1.008762934403517E-002
 -1.173557692107357E-002 -1.338352449811233E-002 -1.503147207515074E-002
 -1.667941965218921E-002 -1.832736722922783E-002 -1.997531480626596E-002
 -2.162326238330467E-002 -2.327120996034305E-002 -2.491915753738163E-002
 -2.656710511442013E-002 -2.821505269145859E-002 -2.986300026849727E-002
 -3.151094784553548E-002 -3.315889542257400E-002 -3.480684299961241E-002
 -3.645479057665096E-002  1.090887449178697E-003 -5.570601278599899E-004
 -2.205007704898231E-003 -3.852955281936892E-003 -5.500902858975236E-003
 -7.148850436013603E-003 -8.796798013052167E-003 -1.044474559009072E-002
 -1.209269316712927E-002 -1.374064074416769E-002 -1.538858832120602E-002
 -1.703653589824440E-002 -1.868448347528287E-002 -2.033243105232150E-002
 -2.198037862936000E-002 -2.362832620639845E-002 -2.527627378343717E-002
 -2.692422136047561E-002 -2.857216893751385E-002 -3.022011651455246E-002
 -3.186806409159117E-002 -3.351601166862947E-002 -3.516395924566788E-002
 -3.681190682270642E-002 -3.845985439974507E-002 -4.010780197678324E-002
 -3.244474015561838E-003 -4.892421592600341E-003 -6.540369169638757E-003
 -8.188316746677197E-003 -9.836264323715812E-003 -1.148421190075419E-002
 -1.313215947779265E-002 -1.478010705483142E-002 -1.642805463186986E-002
 -1.807600220890830E-002 -1.972394978594673E-002 -2.137189736298513E-002
 -2.301984494002358E-002 -2.466779251706191E-002 -2.631574009410050E-002
 -2.796368767113912E-002 -2.961163524817748E-002 -3.125958282521595E-002
 -3.290753040225446E-002 -3.455547797929296E-002 -3.620342555633129E-002
 -3.785137313336977E-002 -3.949932071040844E-002 -4.114726828744684E-002
 -4.279521586448520E-002 -4.444316344152398E-002 -8.188006308259471E-003
 -9.835953885297975E-003 -1.148390146233666E-002 -1.313184903937487E-002
 -1.477979661641352E-002 -1.642774419345168E-002 -1.807569177049033E-002
 -1.972363934752889E-002 -2.137158692456750E-002 -2.301953450160591E-002
 -2.466748207864439E-002 -2.631542965568294E-002 -2.796337723272151E-002
 -2.961132480975993E-002 -3.125927238679818E-002 -3.290721996383669E-002
 -3.455516754087532E-002 -3.620311511791383E-002 -3.785106269495229E-002
 -3.949901027199063E-002 -4.114695784902918E-002 -4.279490542606754E-002
 -4.444285300310605E-002 -4.609080058014490E-002 -4.773874815718300E-002
 -4.938669573422146E-002 -1.365512422078023E-002 -1.530307179781874E-002
 -1.695101937485718E-002 -1.859896695189588E-002 -2.024691452893414E-002
 -2.189486210597284E-002 -2.354280968301123E-002 -2.519075726004978E-002
 -2.683870483708809E-002 -2.848665241412658E-002 -3.013459999116505E-002
 -3.178254756820358E-002 -3.343049514524243E-002 -3.507844272228084E-002
 -3.672639029931900E-002 -3.837433787635738E-002 -4.002228545339578E-002
 -4.167023303043438E-002 -4.331818060747299E-002 -4.496612818451140E-002
 -4.661407576155004E-002 -4.826202333858857E-002 -4.990997091562691E-002
 -5.155791849266549E-002 -5.320586606970393E-002 -5.485381364674225E-002
 -1.955228384986938E-002 -2.120023142690810E-002 -2.284817900394652E-002
 -2.449612658098532E-002 -2.614407415802347E-002 -2.779202173506205E-002
 -2.943996931210032E-002 -3.108791688913875E-002 -3.273586446617716E-002
 -3.438381204321573E-002 -3.603175962025411E-002 -3.767970719729261E-002
 -3.932765477433103E-002 -4.097560235136959E-002 -4.262354992840842E-002
 -4.427149750544649E-002 -4.591944508248486E-002 -4.756739265952370E-002
 -4.921534023656200E-002 -5.086328781360076E-002 -5.251123539063920E-002
 -5.415918296767763E-002 -5.580713054471592E-002 -5.745507812175454E-002
 -5.910302569879301E-002 -6.075097327583141E-002 -2.577858315927161E-002
 -2.742653073631049E-002 -2.907447831334879E-002 -3.072242589038730E-002
 -3.237037346742572E-002 -3.401832104446410E-002 -3.566626862150241E-002
 -3.731421619854089E-002 -3.896216377557974E-002 -4.061011135261829E-002
 -4.225805892965690E-002 -4.390600650669496E-002 -4.555395408373349E-002
 -4.720190166077204E-002 -4.884984923781064E-002 -5.049779681484912E-002
 -5.214574439188719E-002 -5.379369196892614E-002 -5.544163954596449E-002
 -5.708958712300303E-002 -5.873753470004139E-002 -6.038548227707977E-002
 -6.203342985411868E-002 -6.368137743115676E-002 -6.532932500819519E-002
 -6.697727258523394E-002 -3.222748844154730E-002 -3.387543601858557E-002
 -3.552338359562391E-002 -3.717133117266239E-002 -3.881927874970082E-002
 -4.046722632673953E-002 -4.211517390377761E-002 -4.376312148081583E-002
 -4.541106905785454E-002 -4.705901663489279E-002 -4.870696421193194E-002
 -5.035491178897045E-002 -5.200285936600923E-002 -5.365080694304706E-002
 -5.529875452008561E-002 -5.694670209712421E-002 -5.859464967416261E-002
 -6.024259725120067E-002 -6.189054482823984E-002 -6.353849240527820E-002
 -6.518643998231653E-002 -6.683438755935529E-002 -6.848233513639361E-002
 -7.013028271343209E-002 -7.177823029047062E-002 -7.342617786750896E-002
 -3.878865713934107E-002 -4.043660471637970E-002 -4.208455229341777E-002
 -4.373249987045699E-002 -4.538044744749508E-002 -4.702839502453356E-002
 -4.867634260157230E-002 -5.032429017861059E-002 -5.197223775564919E-002
 -5.362018533268737E-002 -5.526813290972589E-002 -5.691608048676408E-002
 -5.856402806380297E-002 -6.021197564084118E-002 -6.185992321787985E-002
 -6.350787079491851E-002 -6.515581837195696E-002 -6.680376594899534E-002
 -6.845171352603377E-002 -7.009966110307234E-002 -7.174760868011024E-002
 -7.339555625714930E-002 -7.504350383418767E-002 -7.669145141122626E-002
 -7.833939898826442E-002 -7.998734656530283E-002 -4.534982583713553E-002
 -4.699777341417405E-002 -4.864572099121204E-002 -5.029366856825074E-002
 -5.194161614528935E-002 -5.358956372232762E-002 -5.523751129936603E-002
 -5.688545887640446E-002 -5.853340645344317E-002 -6.018135403048171E-002
 -6.182930160752005E-002 -6.347724918455872E-002 -6.512519676159756E-002
 -6.677314433863554E-002 -6.842109191567398E-002 -7.006903949271263E-002
 -7.171698706975123E-002 -7.336493464678938E-002 -7.501288222382799E-002
 -7.666082980086639E-002 -7.830877737790476E-002 -7.995672495494328E-002
 -8.160467253198188E-002 -8.325262010902063E-002 -8.490056768605908E-002
 -8.654851526309706E-002 -5.179873111941057E-002 -5.344667869644847E-002
 -5.509462627348722E-002 -5.674257385052597E-002 -5.839052142756455E-002
 -6.003846900460291E-002 -6.168641658164113E-002 -6.333436415867977E-002
 -6.498231173571828E-002 -6.663025931275668E-002 -6.827820688979561E-002
 -6.992615446683351E-002 -7.157410204387206E-002 -7.322204962091078E-002
 -7.486999719794944E-002 -7.651794477498784E-002 -7.816589235202585E-002
 -7.981383992906406E-002 -8.146178750610275E-002 -8.310973508314171E-002
 -8.475768266017977E-002 -8.640563023721871E-002 -8.805357781425702E-002
 -8.970152539129589E-002 -9.134947296833386E-002 -9.299742054537263E-002
 -5.802503042881284E-002 -5.967297800585131E-002 -6.132092558288967E-002
 -6.296887315992830E-002 -6.461682073696680E-002 -6.626476831400535E-002
 -6.791271589104392E-002 -6.956066346808257E-002 -7.120861104512077E-002
 -7.285655862215945E-002 -7.450450619919735E-002 -7.615245377623628E-002
 -7.780040135327403E-002 -7.944834893031300E-002 -8.109629650735162E-002
 -8.274424408438980E-002 -8.439219166142825E-002 -8.604013923846694E-002
 -8.768808681550504E-002 -8.933603439254405E-002 -9.098398196958232E-002
 -9.263192954662121E-002 -9.427987712365900E-002 -9.592782470069829E-002
 -9.757577227773609E-002 -9.922371985477449E-002 -6.392219005790221E-002
 -6.557013763494052E-002 -6.721808521197878E-002 -6.886603278901755E-002
 -7.051398036605540E-002 -7.216192794309409E-002 -7.380987552013320E-002
 -7.545782309717132E-002 -7.710577067420964E-002 -7.875371825124827E-002
 -8.040166582828696E-002 -8.204961340532575E-002 -8.369756098236365E-002
 -8.534550855940237E-002 -8.699345613644091E-002 -8.864140371347895E-002
 -9.028935129051782E-002 -9.193729886755582E-002 -9.358524644459418E-002
 -9.523319402163315E-002 -9.688114159867139E-002 -9.852908917571031E-002
 -0.100177036752748      -0.101824984329787      -0.103472931906825     
 -0.105120879483864      -6.938930797042256E-002 -7.103725554746103E-002
 -7.268520312450027E-002 -7.433315070153770E-002 -7.598109827857565E-002
 -7.762904585561507E-002 -7.927699343265393E-002 -8.092494100969211E-002
 -8.257288858673092E-002 -8.422083616376924E-002 -8.586878374080702E-002
 -8.751673131784590E-002 -8.916467889488459E-002 -9.081262647192283E-002
 -9.246057404896117E-002 -9.410852162599993E-002 -9.575646920303872E-002
 -9.740441678007720E-002 -9.905236435711537E-002 -0.100700311934154     
 -0.102348259511192      -0.103996207088231      -0.105644154665270     
 -0.107292102242308      -0.108940049819346      -0.110587997396385     
 -7.433284026312070E-002 -7.598078784015866E-002 -7.762873541719716E-002
 -7.927668299423583E-002 -8.092463057127458E-002 -8.257257814831306E-002
 -8.422052572535195E-002 -8.586847330239006E-002 -8.751642087942851E-002
 -8.916436845646640E-002 -9.081231603350587E-002 -9.246026361054431E-002
 -9.410821118758232E-002 -9.575615876462036E-002 -9.740410634165961E-002
 -9.905205391869763E-002 -0.100700001495736      -0.102347949072774     
 -0.103995896649814      -0.105643844226852      -0.107291791803890     
 -0.108939739380928      -0.110587686957967      -0.112235634535006     
 -0.113883582112044      -0.115531529689082      -7.866820172786167E-002
 -8.031614930489950E-002 -8.196409688193762E-002 -8.361204445897695E-002
 -8.525999203601518E-002 -8.690793961305321E-002 -8.855588719009225E-002
 -9.020383476713022E-002 -9.185178234416838E-002 -9.349972992120721E-002
 -9.514767749824563E-002 -9.679562507528454E-002 -9.844357265232304E-002
 -0.100091520229361      -0.101739467806400      -0.103387415383439     
 -0.105035362960477      -0.106683310537515      -0.108331258114554     
 -0.109979205691592      -0.111627153268630      -0.113275100845669     
 -0.114923048422708      -0.116570995999746      -0.118218943576785     
 -0.119866891153823      -8.232121312799351E-002 -8.396916070503183E-002
 -8.561710828207028E-002 -8.726505585910926E-002 -8.891300343614737E-002
 -9.056095101318547E-002 -9.220889859022434E-002 -9.385684616726209E-002
 -9.550479374430082E-002 -9.715274132134011E-002 -9.880068889837766E-002
 -0.100448636475416      -0.102096584052455      -0.103744531629494     
 -0.105392479206532      -0.107040426783571      -0.108688374360609     
 -0.110336321937648      -0.111984269514686      -0.113632217091724     
 -0.115280164668763      -0.116928112245801      -0.118576059822840     
 -0.120224007399878      -0.121871954976917      -0.123519902553955     
 -8.522937042565536E-002 -8.687731800269398E-002 -8.852526557973177E-002
 -9.017321315677006E-002 -9.182116073380991E-002 -9.346910831084769E-002
 -9.511705588788567E-002 -9.676500346492392E-002 -9.841295104196310E-002
 -0.100060898619002      -0.101708846196040      -0.103356793773078     
 -0.105004741350117      -0.106652688927155      -0.108300636504194     
 -0.109948584081232      -0.111596531658271      -0.113244479235309     
 -0.114892426812348      -0.116540374389387      -0.118188321966425     
 -0.119836269543463      -0.121484217120502      -0.123132164697541     
 -0.124780112274579      -0.126428059851617      -8.734291424319023E-002
 -8.899086182022864E-002 -9.063880939726676E-002 -9.228675697430513E-002