 Title = "Wing and Wake"
 VARIABLES = "X" "Y" "Z" "GAM"
 Zone I=   26 J=   25 K=1  T="Blade"
 DATAPACKING=BLOCK
 VARLOCATION=([4]=CELLCENTERED)
 -4.268991472756115E-002 -4.098274154655712E-002 -3.927556836555320E-002
 -3.756839518454909E-002 -3.586122200354509E-002 -3.415404882254113E-002
 -3.244687564153712E-002 -3.073970246053309E-002 -2.903252927952910E-002
 -2.732535609852511E-002 -2.561818291752107E-002 -2.391100973651711E-002
 -2.220383655551314E-002 -2.049666337450902E-002 -1.878949019350502E-002
 -1.708231701250107E-002 -1.537514383149704E-002 -1.366797065049307E-002
 -1.196079746948907E-002 -1.025362428848498E-002 -8.546451107481040E-003
 -6.839277926477033E-003 -5.132104745472998E-003 -3.424931564469023E-003
 -1.717758383465041E-003 -1.058520246102749E-005 -4.268547636968111E-002
 -4.097830318867698E-002 -3.927113000767297E-002 -3.756395682666904E-002
 -3.585678364566498E-002 -3.414961046466110E-002 -3.244243728365695E-002
 -3.073526410265298E-002 -2.902809092164896E-002 -2.732091774064499E-002
 -2.561374455964100E-002 -2.390657137863695E-002 -2.219939819763295E-002
 -2.049222501662906E-002 -1.878505183562494E-002 -1.707787865462098E-002
 -1.537070547361695E-002 -1.366353229261296E-002 -1.195635911160887E-002
 -1.024918593060494E-002 -8.542012749600938E-003 -6.834839568596867E-003
 -5.127666387592874E-003 -3.420493206588963E-003 -1.713320025584945E-003
 -6.146844580930076E-006 -4.267223723757460E-002 -4.096506405657062E-002
 -3.925789087556662E-002 -3.755071769456250E-002 -3.584354451355856E-002
 -3.413637133255457E-002 -3.242919815155058E-002 -3.072202497054654E-002
 -2.901485178954246E-002 -2.730767860853852E-002 -2.560050542753448E-002
 -2.389333224653057E-002 -2.218615906552655E-002 -2.047898588452249E-002
 -1.877181270351855E-002 -1.706463952251446E-002 -1.535746634151054E-002
 -1.365029316050654E-002 -1.194311997950258E-002 -1.023594679849848E-002
 -8.528773617494481E-003 -6.821600436490515E-003 -5.114427255486474E-003
 -3.407254074482490E-003 -1.700080893478484E-003  7.092287525522768E-006
 -4.265042385646272E-002 -4.094325067545875E-002 -3.923607749445476E-002
 -3.752890431345079E-002 -3.582173113244688E-002 -3.411455795144270E-002
 -3.240738477043874E-002 -3.070021158943472E-002 -2.899303840843065E-002
 -2.728586522742661E-002 -2.557869204642269E-002 -2.387151886541862E-002
 -2.216434568441471E-002 -2.045717250341064E-002 -1.874999932240667E-002
 -1.704282614140268E-002 -1.533565296039864E-002 -1.362847977939470E-002
 -1.192130659839069E-002 -1.021413341738666E-002 -8.506960236382644E-003
 -6.799787055378620E-003 -5.092613874374621E-003 -3.385440693370572E-003
 -1.678267512366576E-003  2.890566863734509E-005 -4.262040945934404E-002
 -4.091323627834004E-002 -3.920606309733607E-002 -3.749888991633204E-002
 -3.579171673532813E-002 -3.408454355432414E-002 -3.237737037332009E-002
 -3.067019719231600E-002 -2.896302401131201E-002 -2.725585083030804E-002
 -2.554867764930407E-002 -2.384150446829997E-002 -2.213433128729602E-002
 -2.042715810629196E-002 -1.871998492528800E-002 -1.701281174428409E-002
 -1.530563856328006E-002 -1.359846538227602E-002 -1.189129220127200E-002
 -1.018411902026800E-002 -8.476945839264137E-003 -6.769772658259932E-003
 -5.062599477256053E-003 -3.355426296251924E-003 -1.648253115247978E-003
  5.892006575604729E-005 -4.258270760087492E-002 -4.087553441987091E-002
 -3.916836123886694E-002 -3.746118805786283E-002 -3.575401487685895E-002
 -3.404684169585489E-002 -3.233966851485091E-002 -3.063249533384684E-002
 -2.892532215284291E-002 -2.721814897183883E-002 -2.551097579083492E-002
 -2.380380260983093E-002 -2.209662942882690E-002 -2.038945624782302E-002
 -1.868228306681889E-002 -1.697510988581485E-002 -1.526793670481087E-002
 -1.356076352380681E-002 -1.185359034280293E-002 -1.014641716179876E-002
 -8.439243980794748E-003 -6.732070799790843E-003 -5.024897618786844E-003
 -3.317724437782796E-003 -1.610551256778707E-003  9.662192422514555E-005
 -4.253796337030654E-002 -4.083079018930255E-002 -3.912361700829859E-002
 -3.741644382729462E-002 -3.570927064629058E-002 -3.400209746528669E-002
 -3.229492428428260E-002 -3.058775110327846E-002 -2.888057792227450E-002
 -2.717340474127066E-002 -2.546623156026652E-002 -2.375905837926255E-002
 -2.205188519825851E-002 -2.034471201725452E-002 -1.863753883625062E-002
 -1.693036565524646E-002 -1.522319247424251E-002 -1.351601929323857E-002
 -1.180884611223451E-002 -1.010167293123055E-002 -8.394499750226663E-003
 -6.687326569222533E-003 -4.980153388218400E-003 -3.272980207214506E-003
 -1.565807026210562E-003  1.413661547934707E-004 -4.248694235382951E-002
 -4.077976917282561E-002 -3.907259599182149E-002 -3.736542281081753E-002
 -3.565824962981359E-002 -3.395107644880956E-002 -3.224390326780568E-002
 -3.053673008680144E-002 -2.882955690579759E-002 -2.712238372479354E-002
 -2.541521054378958E-002 -2.370803736278555E-002 -2.200086418178150E-002
 -2.029369100077741E-002 -1.858651781977356E-002 -1.687934463876947E-002
 -1.517217145776538E-002 -1.346499827676149E-002 -1.175782509575748E-002
 -1.005065191475352E-002 -8.343478733749422E-003 -6.636305552745531E-003
 -4.929132371741331E-003 -3.221959190737423E-003 -1.514786009733445E-003
  1.923871712705759E-004 -4.243051753518146E-002 -4.072334435417745E-002
 -3.901617117317348E-002 -3.730899799216935E-002 -3.560182481116537E-002
 -3.389465163016146E-002 -3.218747844915758E-002 -3.048030526815329E-002
 -2.877313208714934E-002 -2.706595890614541E-002 -2.535878572514144E-002
 -2.365161254413741E-002 -2.194443936313335E-002 -2.023726618212938E-002
 -1.853009300112538E-002 -1.682291982012126E-002 -1.511574663911742E-002
 -1.340857345811341E-002 -1.170140027710951E-002 -9.994227096105321E-003
 -8.287053915101341E-003 -6.579880734097266E-003 -4.872707553093385E-003
 -3.165534372089287E-003 -1.458361191085343E-003  2.488119899186242E-004
 -4.236965435865310E-002 -4.066248117764919E-002 -3.895530799664512E-002
 -3.724813481564120E-002 -3.554096163463719E-002 -3.383378845363314E-002
 -3.212661527262931E-002 -3.041944209162515E-002 -2.871226891062125E-002
 -2.700509572961722E-002 -2.529792254861320E-002 -2.359074936760915E-002
 -2.188357618660518E-002 -2.017640300560116E-002 -1.846922982459723E-002
 -1.676205664359320E-002 -1.505488346258915E-002 -1.334771028158506E-002
 -1.164053710058119E-002 -9.933363919577025E-003 -8.226190738573141E-003
 -6.519017557569110E-003 -4.811844376565235E-003 -3.104671195561140E-003
 -1.397498014557230E-003  3.096751664469281E-004 -4.230539421006969E-002
 -4.059822102906583E-002 -3.889104784806162E-002 -3.718387466705755E-002
 -3.547670148605374E-002 -3.376952830504963E-002 -3.206235512404570E-002
 -3.035518194304166E-002 -2.864800876203767E-002 -2.694083558103371E-002
 -2.523366240002966E-002 -2.352648921902576E-002 -2.181931603802176E-002
 -2.011214285701754E-002 -1.840496967601358E-002 -1.669779649500955E-002
 -1.499062331400571E-002 -1.328345013300159E-002 -1.157627695199761E-002
 -9.869103770993535E-003 -8.161930589989496E-003 -6.454757408985677E-003
 -4.747584227981624E-003 -3.040411046977534E-003 -1.333237865973590E-003
  3.739353150304141E-004 -4.223883659838942E-002 -4.053166341738541E-002
 -3.882449023638144E-002 -3.711731705537766E-002 -3.541014387437337E-002
 -3.370297069336944E-002 -3.199579751236552E-002 -3.028862433136164E-002
 -2.858145115035758E-002 -2.687427796935359E-002 -2.516710478834944E-002
 -2.345993160734542E-002 -2.175275842634142E-002 -2.004558524533762E-002
 -1.833841206433358E-002 -1.663123888332940E-002 -1.492406570232555E-002
 -1.321689252132158E-002 -1.150971934031743E-002 -9.802546159313337E-003
 -8.095372978309461E-003 -6.388199797305559E-003 -4.681026616301419E-003
 -2.973853435297450E-003 -1.266680254293312E-003  4.404929267106747E-004
 -4.217112034280178E-002 -4.046394716179773E-002 -3.875677398079369E-002
 -3.704960079978994E-002 -3.534242761878566E-002 -3.363525443778166E-002
 -3.192808125677749E-002 -3.022090807577373E-002 -2.851373489476968E-002
 -2.680656171376582E-002 -2.509938853276173E-002 -2.339221535175768E-002
 -2.168504217075381E-002 -1.997786898974972E-002 -1.827069580874556E-002
 -1.656352262774175E-002 -1.485634944673757E-002 -1.314917626573364E-002
 -1.144200308472954E-002 -9.734829903725527E-003 -8.027656722721654E-003
 -6.320483541717573E-003 -4.613310360713765E-003 -2.906137179709628E-003
 -1.198963998705560E-003  5.082091822983686E-004 -4.210340408721400E-002
 -4.039623090620991E-002 -3.868905772520583E-002 -3.698188454420182E-002
 -3.527471136319784E-002 -3.356753818219370E-002 -3.186036500118990E-002
 -3.015319182018602E-002 -2.844601863918186E-002 -2.673884545817788E-002
 -2.503167227717387E-002 -2.332449909616974E-002 -2.161732591516581E-002
 -1.991015273416192E-002 -1.820297955315775E-002 -1.649580637215378E-002
 -1.478863319114971E-002 -1.308146001014569E-002 -1.137428682914173E-002
 -9.667113648137731E-003 -7.959940467134012E-003 -6.252767286129902E-003
 -4.545594105125581E-003 -2.838420924121709E-003 -1.131247743117681E-003
  5.759254378860813E-004 -4.203684647553360E-002 -4.032967329452960E-002
 -3.862250011352584E-002 -3.691532693252179E-002 -3.520815375151790E-002
 -3.350098057051366E-002 -3.179380738950971E-002 -3.008663420850574E-002
 -2.837946102750179E-002 -2.667228784649772E-002 -2.496511466549372E-002
 -2.325794148448990E-002 -2.155076830348566E-002 -1.984359512248160E-002
 -1.813642194147747E-002 -1.642924876047363E-002 -1.472207557946985E-002
 -1.301490239846577E-002 -1.130772921746170E-002 -9.600556036457871E-003
 -7.893382855453717E-003 -6.186209674449540E-003 -4.479036493445581E-003
 -2.771863312441557E-003 -1.064690131437638E-003  6.424830495662604E-004
 -4.197258632695009E-002 -4.026541314594632E-002 -3.855823996494206E-002
 -3.685106678393821E-002 -3.514389360293427E-002 -3.343672042193024E-002
 -3.172954724092605E-002 -3.002237405992216E-002 -2.831520087891835E-002
 -2.660802769791414E-002 -2.490085451691043E-002 -2.319368133590618E-002
 -2.148650815490217E-002 -1.977933497389832E-002 -1.807216179289425E-002
 -1.636498861189035E-002 -1.465781543088622E-002 -1.295064224988211E-002
 -1.124346906887809E-002 -9.536295887874247E-003 -7.829122706870065E-003
 -6.121949525866110E-003 -4.414776344862387E-003 -2.707603163858068E-003
 -1.000429982854041E-003  7.067431981498496E-004 -4.191172315042201E-002
 -4.020454996941798E-002 -3.849737678841399E-002 -3.679020360740989E-002
 -3.508303042640615E-002 -3.337585724540196E-002 -3.166868406439797E-002
 -2.996151088339402E-002 -2.825433770239011E-002 -2.654716452138614E-002
 -2.483999134038215E-002 -2.313281815937789E-002 -2.142564497837416E-002
 -1.971847179736992E-002 -1.801129861636590E-002 -1.630412543536211E-002
 -1.459695225435780E-002 -1.288977907335388E-002 -1.118260589235018E-002
 -9.475432711345797E-003 -7.768259530341754E-003 -6.061086349337866E-003
 -4.353913168333926E-003 -2.646739987329979E-003 -9.395668063259936E-004
  7.676063746778786E-004 -4.185529833177394E-002 -4.014812515076990E-002
 -3.844095196976591E-002 -3.673377878876188E-002 -3.502660560775816E-002
 -3.331943242675385E-002 -3.161225924574980E-002 -2.990508606474588E-002
 -2.819791288374172E-002 -2.649073970273770E-002 -2.478356652173388E-002
 -2.307639334072976E-002 -2.136922015972574E-002 -1.966204697872184E-002
 -1.795487379771775E-002 -1.624770061671391E-002 -1.454052743570985E-002
 -1.283335425470581E-002 -1.112618107370185E-002 -9.419007892697820E-003
 -7.711834711693853E-003 -6.004661530689724E-003 -4.297488349685809E-003
 -2.590315168681757E-003 -8.831419876778668E-004  8.240311933262537E-004
 -4.180427731529692E-002 -4.009710413429290E-002 -3.838993095328891E-002
 -3.668275777228507E-002 -3.497558459128085E-002 -3.326841141027696E-002
 -3.156123822927267E-002 -2.985406504826911E-002 -2.814689186726468E-002
 -2.643971868626051E-002 -2.473254550525663E-002 -2.302537232425289E-002
 -2.131819914324867E-002 -1.961102596224499E-002 -1.790385278124049E-002
 -1.619667960023671E-002 -1.448950641923277E-002 -1.278233323822851E-002
 -1.107516005722475E-002 -9.367986876220747E-003 -7.660813695216732E-003
 -5.953640514212663E-003 -4.246467333209039E-003 -2.539294152204694E-003
 -8.321209712008889E-004  8.750522098031814E-004 -4.175953308472841E-002
 -4.005235990372429E-002 -3.834518672272042E-002 -3.663801354171624E-002
 -3.493084036071248E-002 -3.322366717970838E-002 -3.151649399870462E-002
 -2.980932081770054E-002 -2.810214763669644E-002 -2.639497445569226E-002
 -2.468780127468848E-002 -2.298062809368433E-002 -2.127345491268047E-002
 -1.956628173167635E-002 -1.785910855067225E-002 -1.615193536966849E-002
 -1.444476218866443E-002 -1.273758900766024E-002 -1.103041582665621E-002
 -9.323242645652350E-003 -7.616069464648534E-003 -5.908896283644353E-003
 -4.201723102640213E-003 -2.494549921636495E-003 -7.873767406322344E-004
  9.197964403717666E-004 -4.172183122625920E-002 -4.001465804525544E-002
 -3.830748486425131E-002 -3.660031168324754E-002 -3.489313850224326E-002
 -3.318596532123948E-002 -3.147879214023523E-002 -2.977161895923102E-002
 -2.806444577822722E-002 -2.635727259722328E-002 -2.465009941621938E-002
 -2.294292623521537E-002 -2.123575305421152E-002 -1.952857987320736E-002
 -1.782140669220338E-002 -1.611423351119930E-002 -1.440706033019527E-002
 -1.269988714919121E-002 -1.099271396818735E-002 -9.285540787183341E-003
 -7.578367606179024E-003 -5.871194425175273E-003 -4.164021244171361E-003
 -2.456848063167332E-003 -7.496748821630430E-004  9.574982988405843E-004
 -4.169181682914080E-002 -3.998464364813648E-002 -3.827747046713285E-002
 -3.657029728612892E-002 -3.486312410512449E-002 -3.315595092412076E-002
 -3.144877774311681E-002 -2.974160456211283E-002 -2.803443138110860E-002
 -2.632725820010439E-002 -2.462008501910082E-002 -2.291291183809672E-002
 -2.120573865709257E-002 -1.949856547608875E-002 -1.779139229508451E-002
 -1.608421911408087E-002 -1.437704593307654E-002 -1.266987275207264E-002
 -1.096269957106872E-002 -9.255526390064462E-003 -7.548353209060501E-003
 -5.841180028056809E-003 -4.134006847052184E-003 -2.426833666048549E-003
 -7.196604850445901E-004  9.875126959591597E-004 -4.167000344802865E-002
 -3.996283026702482E-002 -3.825565708602062E-002 -3.654848390501695E-002
 -3.484131072401303E-002 -3.313413754300887E-002 -3.142696436200518E-002
 -2.971979118100062E-002 -2.801261799999706E-002 -2.630544481899269E-002
 -2.459827163798901E-002 -2.289109845698514E-002 -2.118392527598095E-002
 -1.947675209497681E-002 -1.776957891397262E-002 -1.606240573296903E-002
 -1.435523255196489E-002 -1.264805937096097E-002 -1.094088618995686E-002
 -9.233713008952786E-003 -7.526539827948466E-003 -5.819366646944686E-003
 -4.112193465940967E-003 -2.405020284937023E-003 -6.978471039327735E-004
  1.009326077071348E-003 -4.165676431592223E-002 -3.994959113491824E-002
 -3.824241795391446E-002 -3.653524477291022E-002 -3.482807159190640E-002
 -3.312089841090218E-002 -3.141372522989828E-002 -2.970655204889450E-002
 -2.799937886789029E-002 -2.629220568688644E-002 -2.458503250588210E-002
 -2.287785932487853E-002 -2.117068614387404E-002 -1.946351296287032E-002
 -1.775633978186622E-002 -1.604916660086238E-002 -1.434199341985841E-002
 -1.263482023885462E-002 -1.092764705785033E-002 -9.220473876846309E-003
 -7.513300695842154E-003 -5.806127514838441E-003 -4.098954333834377E-003
 -2.391781152830336E-003 -6.846079718262797E-004  1.022565209177563E-003
 -4.165232595804244E-002 -3.994515277703856E-002 -3.823797959603429E-002
 -3.653080641503049E-002 -3.482363323402626E-002 -3.311646005302226E-002
 -3.140928687201807E-002 -2.970211369101421E-002 -2.799494051001004E-002
 -2.628776732900621E-002 -2.458059414800241E-002 -2.287342096699842E-002
 -2.116624778599463E-002 -1.945907460499033E-002 -1.775190142398612E-002
 -1.604472824298262E-002 -1.433755506197794E-002 -1.263038188097404E-002
 -1.092320869997048E-002 -9.216035518966485E-003 -7.508862337962167E-003
 -5.801689156958344E-003 -4.094515975954428E-003 -2.387342794950190E-003
 -6.801696139462496E-004  1.027003567057829E-003
  0.115115468902114       0.115110867992625       0.115106267083137     
  0.115101666173648       0.115097065264160       0.115092464354671     
  0.115087863445183       0.115083262535694       0.115078661626205     
  0.115074060716717       0.115069459807228       0.115064858897740     
  0.115060257988251       0.115055657078763       0.115051056169274     
  0.115046455259786       0.115041854350297       0.115037253440808     
  0.115032652531320       0.115028051621831       0.115023450712343     
  0.115018849802854       0.115014248893366       0.115009647983877     
  0.115005047074388       0.115000446164900       0.116762327106878     
  0.116757726197389       0.116753125287901       0.116748524378412     
  0.116743923468924       0.116739322559435       0.116734721649947     
  0.116730120740458       0.116725519830969       0.116720918921481     
  0.116716318011992       0.116711717102504       0.116707116193015     
  0.116702515283527       0.116697914374038       0.116693313464550     
  0.116688712555061       0.116684111645572       0.116679510736084     
  0.116674909826595       0.116670308917107       0.116665708007618     
  0.116661107098130       0.116656506188641       0.116651905279152     
  0.116647304369664       0.121674723520691       0.121670122611203     
  0.121665521701714       0.121660920792225       0.121656319882737     
  0.121651718973248       0.121647118063760       0.121642517154271     
  0.121637916244783       0.121633315335294       0.121628714425806     
  0.121624113516317       0.121619512606828       0.121614911697340     
  0.121610310787851       0.121605709878363       0.121601108968874     
  0.121596508059386       0.121591907149897       0.121587306240408     
  0.121582705330920       0.121578104421431       0.121573503511943     
  0.121568902602454       0.121564301692966       0.121559700783477     
  0.129768605678940       0.129764004769451       0.129759403859962     
  0.129754802950474       0.129750202040985       0.129745601131497     
  0.129741000222008       0.129736399312520       0.129731798403031     
  0.129727197493543       0.129722596584054       0.129717995674565     
  0.129713394765077       0.129708793855588       0.129704192946100     
  0.129699592036611       0.129694991127123       0.129690390217634     
  0.129685789308145       0.129681188398657       0.129676587489168     
  0.129671986579680       0.129667385670191       0.129662784760703     
  0.129658183851214       0.129653582941726       0.140905485013848     
  0.140900884104359       0.140896283194870       0.140891682285382     
  0.140887081375893       0.140882480466405       0.140877879556916     
  0.140873278647428       0.140868677737939       0.140864076828451     
  0.140859475918962       0.140854875009473       0.140850274099985     
  0.140845673190496       0.140841072281008       0.140836471371519     
  0.140831870462030       0.140827269552542       0.140822668643053     
  0.140818067733565       0.140813466824076       0.140808865914588     
  0.140804265005099       0.140799664095611       0.140795063186122     
  0.140790462276633       0.154894806432268       0.154890205522780     
  0.154885604613291       0.154881003703803       0.154876402794314     
  0.154871801884826       0.154867200975337       0.154862600065848     
  0.154857999156360       0.154853398246871       0.154848797337383     
  0.154844196427894       0.154839595518406       0.154834994608917     
  0.154830393699429       0.154825792789940       0.154821191880452     
  0.154816590970963       0.154811990061474       0.154807389151986     
  0.154802788242497       0.154798187333009       0.154793586423520     
  0.154788985514032       0.154784384604543       0.154779783695055     
  0.171497208766161       0.171492607856672       0.171488006947183     
  0.171483406037695       0.171478805128206       0.171474204218718     
  0.171469603309229       0.171465002399741       0.171460401490252     
  0.171455800580764       0.171451199671275       0.171446598761786     
  0.171441997852298       0.171437396942809       0.171432796033321     
  0.171428195123832       0.171423594214344       0.171418993304855     
  0.171414392395366       0.171409791485878       0.171405190576389     
  0.171400589666901       0.171395988757412       0.171391387847924     
  0.171386786938435       0.171382186028947       0.190428620308535     
  0.190424019399047       0.190419418489558       0.190414817580069     
  0.190410216670581       0.190405615761092       0.190401014851604     
  0.190396413942115       0.190391813032627       0.190387212123138     
  0.190382611213650       0.190378010304161       0.190373409394672     
  0.190368808485184       0.190364207575695       0.190359606666207     
  0.190355005756718       0.190350404847230       0.190345803937741     
  0.190341203028253       0.190336602118764       0.190332001209275     
  0.190327400299787       0.190322799390298       0.190318198480810     
  0.190313597571321       0.211365119359124       0.211360518449635     
  0.211355917540147       0.211351316630658       0.211346715721169     
  0.211342114811681       0.211337513902193       0.211332912992704     
  0.211328312083215       0.211323711173727       0.211319110264238     
  0.211314509354750       0.211309908445261       0.211305307535773     
  0.211300706626284       0.211296105716796       0.211291504807307     
  0.211286903897818       0.211282302988330       0.211277702078841     
  0.211273101169352       0.211268500259864       0.211263899350376     
  0.211259298440887       0.211254697531398       0.211250096621910     
  0.233948476614476       0.233943875704988       0.233939274795499     
  0.233934673886011       0.233930072976522       0.233925472067033     
  0.233920871157545       0.233916270248056       0.233911669338568     
  0.233907068429079       0.233902467519591       0.233897866610102     
  0.233893265700613       0.233888664791125       0.233884063881637     
  0.233879462972148       0.233874862062659       0.233870261153171     
  0.233865660243682       0.233861059334194       0.233856458424705     
  0.233851857515217       0.233847256605728       0.233842655696239     
  0.233838054786751       0.233833453877262       0.257792284570664     
  0.257787683661176       0.257783082751687       0.257778481842199     
  0.257773880932710       0.257769280023222       0.257764679113733     
  0.257760078204244       0.257755477294756       0.257750876385267     
  0.257746275475778       0.257741674566290       0.257737073656801     
  0.257732472747313       0.257727871837824       0.257723270928336     
  0.257718670018847       0.257714069109359       0.257709468199870     
  0.257704867290381       0.257700266380893       0.257695665471404     
  0.257691064561916       0.257686463652427       0.257681862742939     
  0.257677261833450       0.282488569062805       0.282483968153316     
  0.282479367243828       0.282474766334339       0.282470165424850     
  0.282465564515363       0.282460963605874       0.282456362696385     
  0.282451761786896       0.282447160877408       0.282442559967919     
  0.282437959058430       0.282433358148942       0.282428757239453     
  0.282424156329965       0.282419555420476       0.282414954510988     
  0.282410353601500       0.282405752692011       0.282401151782522     
  0.282396550873034       0.282391949963545       0.282387349054056     
  0.282382748144568       0.282378147235079       0.282373546325591     
  0.307614769816134       0.307610168906645       0.307605567997156     
  0.307600967087668       0.307596366178180       0.307591765268691     
  0.307587164359202       0.307582563449714       0.307577962540225     
  0.307573361630736       0.307568760721248       0.307564159811759     
  0.307559558902272       0.307554957992783       0.307550357083294     
  0.307545756173805       0.307541155264317       0.307536554354828     
  0.307531953445340       0.307527352535851       0.307522751626363     
  0.307518150716874       0.307513549807385       0.307508948897897     
  0.307504347988408       0.307499747078920       0.332740970569463     
  0.332736369659974       0.332731768750485       0.332727167840997     
  0.332722566931509       0.332717966022020       0.332713365112531     
  0.332708764203043       0.332704163293554       0.332699562384066     
  0.332694961474577       0.332690360565088       0.332685759655600     
  0.332681158746111       0.332676557836622       0.332671956927134     
  0.332667356017645       0.332662755108157       0.332658154198669     
  0.332653553289180       0.332648952379692       0.332644351470203     
  0.332639750560714       0.332635149651226       0.332630548741737     
  0.332625947832249       0.357437255061603       0.357432654152115     
  0.357428053242626       0.357423452333137       0.357418851423649     
  0.357414250514160       0.357409649604672       0.357405048695184     
  0.357400447785694       0.357395846876206       0.357391245966718     
  0.357386645057229       0.357382044147740       0.357377443238252     
  0.357372842328763       0.357368241419275       0.357363640509786     
  0.357359039600298       0.357354438690809       0.357349837781321     
  0.357345236871832       0.357340635962344       0.357336035052855     
  0.357331434143366       0.357326833233878       0.357322232324389     
  0.381281063017791       0.381276462108303       0.381271861198814     
  0.381267260289326       0.381262659379837       0.381258058470348     
  0.381253457560860       0.381248856651371       0.381244255741883     
  0.381239654832394       0.381235053922905       0.381230453013417     
  0.381225852103928       0.381221251194440       0.381216650284951     
  0.381212049375462       0.381207448465974       0.381202847556486     
  0.381198246646997       0.381193645737509       0.381189044828020     
  0.381184443918532       0.381179843009043       0.381175242099554     
  0.381170641190066       0.381166040280577       0.403864420273144     
  0.403859819363655       0.403855218454166       0.403850617544678     
  0.403846016635190       0.403841415725701       0.403836814816212     
  0.403832213906724       0.403827612997235       0.403823012087747     
  0.403818411178258       0.403813810268769       0.403809209359281     
  0.403804608449792       0.403800007540304       0.403795406630815     
  0.403790805721327       0.403786204811838       0.403781603902349     
  0.403777002992861       0.403772402083372       0.403767801173884     
  0.403763200264395       0.403758599354906       0.403753998445418     
  0.403749397535930       0.424800919323732       0.424796318414244     
  0.424791717504755       0.424787116595267       0.424782515685778     
  0.424777914776290       0.424773313866801       0.424768712957312     
  0.424764112047823       0.424759511138335       0.424754910228846     
  0.424750309319358       0.424745708409869       0.424741107500381     
  0.424736506590892       0.424731905681403       0.424727304771915     
  0.424722703862427       0.424718102952938       0.424713502043449     
  0.424708901133961       0.424704300224472       0.424699699314984     
  0.424695098405495       0.424690497496006       0.424685896586518     
  0.443732330866107       0.443727729956618       0.443723129047129     
  0.443718528137641       0.443713927228153       0.443709326318664     
  0.443704725409176       0.443700124499687       0.443695523590198     
  0.443690922680710       0.443686321771221       0.443681720861733     
  0.443677119952244       0.443672519042756       0.443667918133267     
  0.443663317223778       0.443658716314290       0.443654115404801     
  0.443649514495313       0.443644913585824       0.443640312676336     
  0.443635711766847       0.443631110857358       0.443626509947870     
  0.443621909038381       0.443617308128893       0.460334733199999     
  0.460330132290511       0.460325531381022       0.460320930471533     
  0.460316329562045       0.460311728652556       0.460307127743068     
  0.460302526833579       0.460297925924090       0.460293325014602     
  0.460288724105113       0.460284123195625       0.460279522286136     
  0.460274921376648       0.460270320467159       0.460265719557670     
  0.460261118648182       0.460256517738694       0.460251916829205     
  0.460247315919716       0.460242715010228       0.460238114100739     
  0.460233513191250       0.460228912281762       0.460224311372274     
  0.460219710462785       0.474324054618420       0.474319453708931     
  0.474314852799443       0.474310251889954       0.474305650980466     
  0.474301050070977       0.474296449161488       0.474291848252000     
  0.474287247342511       0.474282646433023       0.474278045523534     
  0.474273444614045       0.474268843704557       0.474264242795069     
  0.474259641885580       0.474255040976091       0.474250440066603     
  0.474245839157114       0.474241238247626       0.474236637338137     
  0.474232036428649       0.474227435519160       0.474222834609672     
  0.474218233700183       0.474213632790695       0.474209031881206     
  0.485460933953328       0.485456333043840       0.485451732134351     
  0.485447131224862       0.485442530315373       0.485437929405885     
  0.485433328496397       0.485428727586908       0.485424126677419     
  0.485419525767931       0.485414924858442       0.485410323948954     
  0.485405723039465       0.485401122129976       0.485396521220488     
  0.485391920310999       0.485387319401511       0.485382718492022     
  0.485378117582534       0.485373516673045       0.485368915763556     
  0.485364314854068       0.485359713944579       0.485355113035091     
  0.485350512125602       0.485345911216114       0.493554816111577     
  0.493550215202088       0.493545614292600       0.493541013383111     