 Title = "Wing and Wake"
 VARIABLES = "X" "Y" "Z" "GAM"
 Zone I=   26 J=   25 K=1  T="Blade"
 DATAPACKING=BLOCK
 VARLOCATION=([4]=CELLCENTERED)
  2.057666160599368E-002  2.205289103989743E-002  2.352912047380126E-002
  2.500534990770511E-002  2.648157934160885E-002  2.795780877551260E-002
  2.943403820941625E-002  3.091026764332009E-002  3.238649707722378E-002
  3.386272651112759E-002  3.533895594503139E-002  3.681518537893519E-002
  3.829141481283891E-002  3.976764424674277E-002  4.124387368064653E-002
  4.272010311455014E-002  4.419633254845399E-002  4.567256198235775E-002
  4.714879141626157E-002  4.862502085016537E-002  5.010125028406900E-002
  5.157747971797271E-002  5.305370915187666E-002  5.452993858578030E-002
  5.600616801968402E-002  5.748239745358789E-002  2.140381064385369E-002
  2.288004007775752E-002  2.435626951166132E-002  2.583249894556498E-002
  2.730872837946879E-002  2.878495781337245E-002  3.026118724727641E-002
  3.173741668118008E-002  3.321364611508385E-002  3.468987554898759E-002
  3.616610498289128E-002  3.764233441679521E-002  3.911856385069890E-002
  4.059479328460263E-002  4.207102271850639E-002  4.354725215241028E-002
  4.502348158631394E-002  4.649971102021769E-002  4.797594045412160E-002
  4.945216988802522E-002  5.092839932192900E-002  5.240462875583290E-002
  5.388085818973661E-002  5.535708762364027E-002  5.683331705754401E-002
  5.830954649144784E-002  2.387110500806671E-002  2.534733444197058E-002
  2.682356387587425E-002  2.829979330977817E-002  2.977602274368176E-002
  3.125225217758543E-002  3.272848161148928E-002  3.420471104539312E-002
  3.568094047929693E-002  3.715716991320055E-002  3.863339934710440E-002
  4.010962878100811E-002  4.158585821491192E-002  4.306208764881565E-002
  4.453831708271936E-002  4.601454651662330E-002  4.749077595052697E-002
  4.896700538443068E-002  5.044323481833456E-002  5.191946425223829E-002
  5.339569368614202E-002  5.487192312004568E-002  5.634815255394957E-002
  5.782438198785335E-002  5.930061142175715E-002  6.077684085566086E-002
  2.793632860799791E-002  2.941255804190181E-002  3.088878747580545E-002
  3.236501690970917E-002  3.384124634361292E-002  3.531747577751667E-002
  3.679370521142060E-002  3.826993464532432E-002  3.974616407922806E-002
  4.122239351313188E-002  4.269862294703567E-002  4.417485238093940E-002
  4.565108181484310E-002  4.712731124874689E-002  4.860354068265069E-002
  5.007977011655432E-002  5.155599955045807E-002  5.303222898436191E-002
  5.450845841826560E-002  5.598468785216944E-002  5.746091728607327E-002
  5.893714671997704E-002  6.041337615388077E-002  6.188960558778447E-002
  6.336583502168830E-002  6.484206445559200E-002  3.352992434075969E-002
  3.500615377466338E-002  3.648238320856712E-002  3.795861264247083E-002
  3.943484207637465E-002  4.091107151027833E-002  4.238730094418225E-002
  4.386353037808605E-002  4.533975981198969E-002  4.681598924589333E-002
  4.829221867979724E-002  4.976844811370116E-002  5.124467754760477E-002
  5.272090698150856E-002  5.419713641541248E-002  5.567336584931594E-002
  5.714959528321977E-002  5.862582471712359E-002  6.010205415102726E-002
  6.157828358493109E-002  6.305451301883475E-002  6.453074245273879E-002
  6.600697188664222E-002  6.748320132054632E-002  6.895943075444978E-002
  7.043566018835369E-002  4.055618423252640E-002  4.203241366643019E-002
  4.350864310033369E-002  4.498487253423770E-002  4.646110196814139E-002
  4.793733140204520E-002  4.941356083594897E-002  5.088979026985280E-002
  5.236601970375643E-002  5.384224913766037E-002  5.531847857156397E-002
  5.679470800546754E-002  5.827093743937143E-002  5.974716687327524E-002
  6.122339630717905E-002  6.269962574108283E-002  6.417585517498670E-002
  6.565208460889030E-002  6.712831404279410E-002  6.860454347669788E-002
  7.008077291060166E-002  7.155700234450542E-002  7.303323177840913E-002
  7.450946121231310E-002  7.598569064621678E-002  7.746192008012051E-002
  4.889488702850291E-002  5.037111646240666E-002  5.184734589631030E-002
  5.332357533021418E-002  5.479980476411786E-002  5.627603419802172E-002
  5.775226363192539E-002  5.922849306582928E-002  6.070472249973317E-002
  6.218095193363687E-002  6.365718136754057E-002  6.513341080144422E-002
  6.660964023534807E-002  6.808586966925168E-002  6.956209910315547E-002
  7.103832853705941E-002  7.251455797096309E-002  7.399078740486686E-002
  7.546701683877051E-002  7.694324627267453E-002  7.841947570657808E-002
  7.989570514048197E-002  8.137193457438573E-002  8.284816400828933E-002
  8.432439344219314E-002  8.580062287609706E-002  5.840335521192479E-002
  5.987958464582865E-002  6.135581407973247E-002  6.283204351363615E-002
  6.430827294754000E-002  6.578450238144355E-002  6.726073181534740E-002
  6.873696124925115E-002  7.021319068315501E-002  7.168942011705878E-002
  7.316564955096243E-002  7.464187898486624E-002  7.611810841876998E-002
  7.759433785267403E-002  7.907056728657749E-002  8.054679672048132E-002
  8.202302615438521E-002  8.349925558828908E-002  8.497548502219261E-002
  8.645171445609627E-002  8.792794389000015E-002  8.940417332390378E-002
  9.088040275780790E-002  9.235663219171153E-002  9.383286162561515E-002
  9.530909105951889E-002  6.891889625592833E-002  7.039512568983219E-002
  7.187135512373587E-002  7.334758455763973E-002  7.482381399154349E-002
  7.630004342544724E-002  7.777627285935090E-002  7.925250229325478E-002
  8.072873172715864E-002  8.220496116106209E-002  8.368119059496595E-002
  8.515742002886971E-002  8.663364946277397E-002  8.810987889667751E-002
  8.958610833058130E-002  9.106233776448490E-002  9.253856719838871E-002
  9.401479663229222E-002  9.549102606619596E-002  9.696725550010001E-002
  9.844348493400357E-002  9.991971436790741E-002  0.101395943801811     
  0.102872173235715       0.104348402669619       0.105824632103522     
  8.026158633779198E-002  8.173781577169578E-002  8.321404520559969E-002
  8.469027463950334E-002  8.616650407340694E-002  8.764273350731068E-002
  8.911896294121446E-002  9.059519237511832E-002  9.207142180902210E-002
  9.354765124292580E-002  9.502388067682957E-002  9.650011011073339E-002
  9.797633954463679E-002  9.945256897854078E-002  0.100928798412445     
  0.102405027846348       0.103881257280252       0.105357486714156     
  0.106833716148060       0.108309945581964       0.109786175015867     
  0.111262404449771       0.112738633883675       0.114214863317579     
  0.115691092751482       0.117167322185386       9.223734888542674E-002
  9.371357831933075E-002  9.518980775323455E-002  9.666603718713840E-002
  9.814226662104182E-002  9.961849605494584E-002  0.101094725488849     
  0.102570954922753       0.104047184356657       0.105523413790561     
  0.106999643224464       0.108475872658368       0.109952102092272     
  0.111428331526176       0.112904560960080       0.114380790393983     
  0.115857019827887       0.117333249261791       0.118809478695695     
  0.120285708129598       0.121761937563502       0.123238166997406     
  0.124714396431310       0.126190625865214       0.127666855299117     
  0.129143084733021       0.104641275281335       0.106117504715239     
  0.107593734149142       0.109069963583046       0.110546193016950     
  0.112022422450854       0.113498651884757       0.114974881318661     
  0.116451110752565       0.117927340186468       0.119403569620373     
  0.120879799054276       0.122356028488180       0.123832257922083     
  0.125308487355987       0.126784716789891       0.128260946223795     
  0.129737175657698       0.131213405091603       0.132689634525506     
  0.134165863959410       0.135642093393314       0.137118322827217     
  0.138594552261121       0.140070781695025       0.141547011128929     
  0.117261130905863       0.118737360339767       0.120213589773670     
  0.121689819207575       0.123166048641478       0.124642278075382     
  0.126118507509286       0.127594736943189       0.129070966377093     
  0.130547195810997       0.132023425244901       0.133499654678804     
  0.134975884112708       0.136452113546612       0.137928342980516     
  0.139404572414419       0.140880801848323       0.142357031282227     
  0.143833260716131       0.145309490150035       0.146785719583938     
  0.148261949017842       0.149738178451746       0.151214407885650     
  0.152690637319553       0.154166866753457       0.129880986530392     
  0.131357215964296       0.132833445398199       0.134309674832103     
  0.135785904266007       0.137262133699910       0.138738363133814     
  0.140214592567718       0.141690822001622       0.143167051435525     
  0.144643280869429       0.146119510303333       0.147595739737237     
  0.149071969171141       0.150548198605044       0.152024428038948     
  0.153500657472852       0.154976886906756       0.156453116340659     
  0.157929345774563       0.159405575208467       0.160881804642371     
  0.162358034076274       0.163834263510178       0.165310492944082     
  0.166786722377985       0.142284912926299       0.143761142360203     
  0.145237371794106       0.146713601228011       0.148189830661915     
  0.149666060095818       0.151142289529722       0.152618518963626     
  0.154094748397529       0.155570977831433       0.157047207265337     
  0.158523436699240       0.159999666133145       0.161475895567048     
  0.162952125000952       0.164428354434856       0.165904583868759     
  0.167380813302663       0.168857042736567       0.170333272170471     
  0.171809501604374       0.173285731038279       0.174761960472182     
  0.176238189906086       0.177714419339990       0.179190648773894     
  0.154260675473934       0.155736904907838       0.157213134341742     
  0.158689363775645       0.160165593209549       0.161641822643453     
  0.163118052077357       0.164594281511261       0.166070510945164     
  0.167546740379068       0.169022969812972       0.170499199246876     
  0.171975428680779       0.173451658114683       0.174927887548587     
  0.176404116982490       0.177880346416395       0.179356575850298     
  0.180832805284202       0.182309034718106       0.183785264152010     
  0.185261493585913       0.186737723019817       0.188213952453721     
  0.189690181887625       0.191166411321528       0.165603365555798     
  0.167079594989702       0.168555824423605       0.170032053857509     
  0.171508283291413       0.172984512725317       0.174460742159221     
  0.175936971593124       0.177413201027028       0.178889430460931     
  0.180365659894835       0.181841889328739       0.183318118762643     
  0.184794348196547       0.186270577630450       0.187746807064354     
  0.189223036498258       0.190699265932162       0.192175495366065     
  0.193651724799969       0.195127954233873       0.196604183667777     
  0.198080413101680       0.199556642535584       0.201032871969488     
  0.202509101403392       0.176118906599801       0.177595136033705     
  0.179071365467609       0.180547594901513       0.182023824335416     
  0.183500053769320       0.184976283203224       0.186452512637128     
  0.187928742071031       0.189404971504935       0.190881200938839     
  0.192357430372743       0.193833659806646       0.195309889240550     
  0.196786118674454       0.198262348108358       0.199738577542262     
  0.201214806976166       0.202691036410069       0.204167265843973     
  0.205643495277876       0.207119724711781       0.208595954145684     
  0.210072183579588       0.211548413013491       0.213024642447396     
  0.185627374783223       0.187103604217127       0.188579833651030     
  0.190056063084934       0.191532292518838       0.193008521952742     
  0.194484751386646       0.195960980820550       0.197437210254453     
  0.198913439688357       0.200389669122261       0.201865898556165     
  0.203342127990068       0.204818357423972       0.206294586857877     
  0.207770816291780       0.209247045725684       0.210723275159588     
  0.212199504593492       0.213675734027395       0.215151963461299     
  0.216628192895202       0.218104422329106       0.219580651763010     
  0.221056881196914       0.222533110630817       0.193966077579200     
  0.195442307013104       0.196918536447007       0.198394765880912     
  0.199870995314815       0.201347224748719       0.202823454182622     
  0.204299683616526       0.205775913050430       0.207252142484334     
  0.208728371918237       0.210204601352142       0.211680830786045     
  0.213157060219949       0.214633289653853       0.216109519087756     
  0.217585748521660       0.219061977955564       0.220538207389468     
  0.222014436823371       0.223490666257275       0.224966895691179     
  0.226443125125083       0.227919354558986       0.229395583992890     
  0.230871813426794       0.200992337470967       0.202468566904870     
  0.203944796338774       0.205421025772678       0.206897255206582     
  0.208373484640485       0.209849714074389       0.211325943508293     
  0.212802172942196       0.214278402376101       0.215754631810004     
  0.217230861243908       0.218707090677812       0.220183320111716     
  0.221659549545619       0.223135778979523       0.224612008413427     
  0.226088237847331       0.227564467281234       0.229040696715138     
  0.230516926149042       0.231993155582946       0.233469385016849     
  0.234945614450753       0.236421843884657       0.237898073318560     
  0.206585933203728       0.208062162637632       0.209538392071536     
  0.211014621505439       0.212490850939344       0.213967080373247     
  0.215443309807151       0.216919539241055       0.218395768674958     
  0.219871998108862       0.221348227542765       0.222824456976670     
  0.224300686410573       0.225776915844477       0.227253145278381     
  0.228729374712284       0.230205604146189       0.231681833580092     
  0.233158063013996       0.234634292447900       0.236110521881803     
  0.237586751315707       0.239062980749611       0.240539210183515     
  0.242015439617418       0.243491669051322       0.210651156803660     
  0.212127386237563       0.213603615671467       0.215079845105371     
  0.216556074539274       0.218032303973178       0.219508533407082     
  0.220984762840986       0.222460992274889       0.223937221708794     
  0.225413451142697       0.226889680576601       0.228365910010505     
  0.229842139444409       0.231318368878312       0.232794598312216     
  0.234270827746120       0.235747057180023       0.237223286613927     
  0.238699516047831       0.240175745481735       0.241651974915639     
  0.243128204349542       0.244604433783446       0.246080663217350     
  0.247556892651254       0.213118451167873       0.214594680601776     
  0.216070910035680       0.217547139469584       0.219023368903487     
  0.220499598337391       0.221975827771295       0.223452057205199     
  0.224928286639103       0.226404516073006       0.227880745506910     
  0.229356974940814       0.230833204374718       0.232309433808621     
  0.233785663242526       0.235261892676429       0.236738122110333     
  0.238214351544236       0.239690580978140       0.241166810412044     
  0.242643039845948       0.244119269279851       0.245595498713755     
  0.247071728147659       0.248547957581562       0.250024187015466     
  0.213945600205732       0.215421829639636       0.216898059073540     
  0.218374288507444       0.219850517941348       0.221326747375252     
  0.222802976809155       0.224279206243059       0.225755435676963     
  0.227231665110866       0.228707894544770       0.230184123978674     
  0.231660353412577       0.233136582846481       0.234612812280385     
  0.236089041714289       0.237565271148193       0.239041500582097     
  0.240517730016000       0.241993959449904       0.243470188883808     
  0.244946418317711       0.246422647751615       0.247898877185519     
  0.249375106619423       0.250851336053327     
  0.121039667039993       0.120182224274099       0.119324781508206     
  0.118467338742312       0.117609895976418       0.116752453210524     
  0.115895010444630       0.115037567678737       0.114180124912843     
  0.113322682146949       0.112465239381055       0.111607796615161     
  0.110750353849268       0.109892911083374       0.109035468317480     
  0.108178025551586       0.107320582785692       0.106463140019799     
  0.105605697253905       0.104748254488011       0.103890811722117     
  0.103033368956223       0.102175926190330       0.101318483424436     
  0.100461040658542       9.960359789264811E-002  0.122463740814342     
  0.121606298048448       0.120748855282554       0.119891412516660     
  0.119033969750766       0.118176526984873       0.117319084218979     
  0.116461641453085       0.115604198687191       0.114746755921297     
  0.113889313155404       0.113031870389510       0.112174427623616     
  0.111316984857722       0.110459542091828       0.109602099325935     
  0.108744656560041       0.107887213794147       0.107029771028253     
  0.106172328262359       0.105314885496466       0.104457442730572     
  0.103599999964678       0.102742557198784       0.101885114432890     
  0.101027671666996       0.126711595840279       0.125854153074386     
  0.124996710308492       0.124139267542598       0.123281824776704     
  0.122424382010811       0.121566939244917       0.120709496479023     
  0.119852053713129       0.118994610947235       0.118137168181341     
  0.117279725415448       0.116422282649554       0.115564839883660     
  0.114707397117766       0.113849954351872       0.112992511585979     
  0.112135068820085       0.111277626054191       0.110420183288297     
  0.109562740522403       0.108705297756510       0.107847854990616     
  0.106990412224722       0.106132969458828       0.105275526692934     
  0.133710550140586       0.132853107374692       0.131995664608798     
  0.131138221842904       0.130280779077010       0.129423336311116     
  0.128565893545223       0.127708450779329       0.126851008013435     
  0.125993565247541       0.125136122481647       0.124278679715754     
  0.123421236949860       0.122563794183966       0.121706351418072     
  0.120848908652178       0.119991465886284       0.119134023120391     
  0.118276580354497       0.117419137588603       0.116561694822709     
  0.115704252056816       0.114846809290922       0.113989366525028     
  0.113131923759134       0.112274480993240       0.143340849666704     
  0.142483406900811       0.141625964134917       0.140768521369023     
  0.139911078603129       0.139053635837235       0.138196193071342     
  0.137338750305448       0.136481307539554       0.135623864773660     
  0.134766422007766       0.133908979241873       0.133051536475979     
  0.132194093710085       0.131336650944191       0.130479208178297     
  0.129621765412403       0.128764322646510       0.127906879880616     
  0.127049437114722       0.126191994348828       0.125334551582934     
  0.124477108817040       0.123619666051147       0.122762223285253     
  0.121904780519359       0.155437717323721       0.154580274557827     
  0.153722831791933       0.152865389026039       0.152007946260146     
  0.151150503494252       0.150293060728358       0.149435617962464     
  0.148578175196570       0.147720732430677       0.146863289664783     
  0.146005846898889       0.145148404132995       0.144290961367102     
  0.143433518601208       0.142576075835314       0.141718633069420     
  0.140861190303526       0.140003747537632       0.139146304771738     
  0.138288862005845       0.137431419239951       0.136573976474057     
  0.135716533708163       0.134859090942269       0.134001648176376     
  0.169794172352138       0.168936729586244       0.168079286820350     
  0.167221844054457       0.166364401288563       0.165506958522669     
  0.164649515756775       0.163792072990881       0.162934630224988     
  0.162077187459094       0.161219744693200       0.160362301927306     
  0.159504859161412       0.158647416395518       0.157789973629625     
  0.156932530863731       0.156075088097837       0.155217645331943     
  0.154360202566049       0.153502759800156       0.152645317034262     
  0.151787874268368       0.150930431502474       0.150072988736580     
  0.149215545970687       0.148358103204793       0.186164571826059     
  0.185307129060165       0.184449686294271       0.183592243528377     
  0.182734800762484       0.181877357996589       0.181019915230696     
  0.180162472464802       0.179305029698908       0.178447586933014     
  0.177590144167120       0.176732701401227       0.175875258635333     
  0.175017815869439       0.174160373103545       0.173302930337652     
  0.172445487571758       0.171588044805864       0.170730602039970     
  0.169873159274076       0.169015716508182       0.168158273742289     
  0.167300830976395       0.166443388210501       0.165585945444607     
  0.164728502678713       0.204268813671751       0.203411370905857     
  0.202553928139964       0.201696485374070       0.200839042608176     
  0.199981599842282       0.199124157076389       0.198266714310494     
  0.197409271544601       0.196551828778707       0.195694386012813     
  0.194836943246919       0.193979500481026       0.193122057715132     
  0.192264614949238       0.191407172183344       0.190549729417451     
  0.189692286651556       0.188834843885663       0.187977401119769     
  0.187119958353875       0.186262515587981       0.185405072822087     
  0.184547630056193       0.183690187290300       0.182832744524406     
  0.223797129291792       0.222939686525899       0.222082243760005     
  0.221224800994111       0.220367358228217       0.219509915462323     
  0.218652472696429       0.217795029930536       0.216937587164642     
  0.216080144398748       0.215222701632854       0.214365258866961     
  0.213507816101066       0.212650373335173       0.211792930569279     
  0.210935487803385       0.210078045037491       0.209220602271597     
  0.208363159505704       0.207505716739810       0.206648273973916     
  0.205790831208022       0.204933388442128       0.204075945676235     
  0.203218502910341       0.202361060144447       0.244415383791651     
  0.243557941025757       0.242700498259863       0.241843055493969     
  0.240985612728075       0.240128169962182       0.239270727196288     
  0.238413284430394       0.237555841664500       0.236698398898606     
  0.235840956132712       0.234983513366819       0.234126070600925     
  0.233268627835031       0.232411185069138       0.231553742303243     
  0.230696299537349       0.229838856771456       0.228981414005562     
  0.228123971239668       0.227266528473774       0.226409085707881     
  0.225551642941987       0.224694200176093       0.223836757410199     
  0.222979314644305       0.265770793120374       0.264913350354480     
  0.264055907588586       0.263198464822693       0.262341022056798     
  0.261483579290905       0.260626136525011       0.259768693759117     
  0.258911250993224       0.258053808227329       0.257196365461436     
  0.256338922695542       0.255481479929648       0.254624037163755     
  0.253766594397861       0.252909151631966       0.252051708866073     
  0.251194266100179       0.250336823334286       0.249479380568392     
  0.248621937802498       0.247764495036604       0.246907052270710     
  0.246049609504816       0.245192166738923       0.244334723973028     
  0.287497960303509       0.286640517537615       0.285783074771721     
  0.284925632005828       0.284068189239934       0.283210746474040     
  0.282353303708146       0.281495860942253       0.280638418176359     
  0.279780975410465       0.278923532644571       0.278066089878677     
  0.277208647112784       0.276351204346890       0.275493761580996     
  0.274636318815102       0.273778876049208       0.272921433283315     
  0.272063990517421       0.271206547751527       0.270349104985633     
  0.269491662219739       0.268634219453845       0.267776776687951     
  0.266919333922057       0.266061891156164       0.309225127486645     
  0.308367684720751       0.307510241954857       0.306652799188963     
  0.305795356423070       0.304937913657175       0.304080470891282     
  0.303223028125388       0.302365585359494       0.301508142593600     
  0.300650699827706       0.299793257061813       0.298935814295919     
  0.298078371530025       0.297220928764131       0.296363485998238     
  0.295506043232343       0.294648600466450       0.293791157700556     
  0.292933714934662       0.292076272168768       0.291218829402875     
  0.290361386636981       0.289503943871087       0.288646501105193     
  0.287789058339300       0.330580536815368       0.329723094049474     
  0.328865651283580       0.328008208517686       0.327150765751793     
  0.326293322985899       0.325435880220005       0.324578437454112     
  0.323720994688217       0.322863551922323       0.322006109156430     
  0.321148666390536       0.320291223624642       0.319433780858748     
  0.318576338092854       0.317718895326961       0.316861452561067     
  0.316004009795173       0.315146567029279       0.314289124263386     
  0.313431681497492       0.312574238731598       0.311716795965704     
  0.310859353199810       0.310001910433916       0.309144467668023     
  0.351198791315226       0.350341348549333       0.349483905783438     
  0.348626463017545       0.347769020251651       0.346911577485757     
  0.346054134719863       0.345196691953969       0.344339249188076     
  0.343481806422182       0.342624363656288       0.341766920890394     
  0.340909478124500       0.340052035358607       0.339194592592713     
  0.338337149826819       0.337479707060926       0.336622264295032     
  0.335764821529138       0.334907378763244       0.334049935997350     
  0.333192493231456       0.332335050465562       0.331477607699669     
  0.330620164933775       0.329762722167881       0.370727106935267     
  0.369869664169373       0.369012221403479       0.368154778637586     
  0.367297335871692       0.366439893105798       0.365582450339905     
  0.364725007574010       0.363867564808117       0.363010122042223     
  0.362152679276330       0.361295236510435       0.360437793744542     
  0.359580350978648       0.358722908212754       0.357865465446860     
  0.357008022680966       0.356150579915072       0.355293137149179     
  0.354435694383285       0.353578251617391       0.352720808851497     
  0.351863366085604       0.351005923319709       0.350148480553816     
  0.349291037787922       0.388831348780960       0.387973906015066     
  0.387116463249172       0.386259020483278       0.385401577717385     
  0.384544134951491       0.383686692185597       0.382829249419703     
  0.381971806653809       0.381114363887916       0.380256921122022     
  0.379399478356128       0.378542035590234       0.377684592824340     
  0.376827150058446       0.375969707292552       0.375112264526659     
  0.374254821760766       0.373397378994871       0.372539936228977     
  0.371682493463083       0.370825050697190       0.369967607931296     
  0.369110165165402       0.368252722399508       0.367395279633615     
  0.405201748254880       0.404344305488986       0.403486862723092     
  0.402629419957199       0.401771977191305       0.400914534425412     
  0.400057091659518       0.399199648893624       0.398342206127730     
  0.397484763361836       0.396627320595942       0.395769877830048     
  0.394912435064155       0.394054992298261       0.393197549532367     
  0.392340106766473       0.391482664000580       0.390625221234685     
  0.389767778468792       0.388910335702898       0.388052892937004     
  0.387195450171110       0.386338007405217       0.385480564639323     
  0.384623121873429       0.383765679107535       0.419558203283298     
  0.418700760517403       0.417843317751510       0.416985874985616     
  0.416128432219723       0.415270989453828       0.414413546687935     
  0.413556103922041       0.412698661156147       0.411841218390254     
  0.410983775624360       0.410126332858466       0.409268890092572     
  0.408411447326678       0.407554004560784       0.406696561794890     
  0.405839119028997       0.404981676263103       0.404124233497209     
  0.403266790731315       0.402409347965421       0.401551905199528     
  0.400694462433633       0.399837019667740       0.398979576901846     
  0.398122134135952       0.431655070940314       0.430797628174420     
  0.429940185408527       0.429082742642633       0.428225299876739     
  0.427367857110845       0.426510414344951       0.425652971579057     
  0.424795528813164       0.423938086047270       0.423080643281376     
  0.422223200515482       0.421365757749588       0.420508314983695     
  0.419650872217801       0.418793429451907       0.417935986686013     
  0.417078543920119       0.416221101154225       0.415363658388332     
  0.414506215622438       0.413648772856544       0.412791330090650     
  0.411933887324756       0.411076444558863       0.410219001792968     
  0.441285370466433       0.440427927700539       0.439570484934645     
  0.438713042168751       0.437855599402857       0.436998156636964     
  0.436140713871070       0.435283271105176       0.434425828339283     
  0.433568385573388       0.432710942807495       0.431853500041601     
  0.430996057275707       0.430138614509813       0.429281171743920     
  0.428423728978025       0.427566286212132       0.426708843446238     
  0.425851400680344       0.424993957914451       0.424136515148556     
  0.423279072382663       0.422421629616769       0.421564186850875     
  0.420706744084981       0.419849301319088       0.448284324766739     
  0.447426882000845       0.446569439234952       0.445711996469058     