 Title = "Wing and Wake"
 VARIABLES = "X" "Y" "Z" "GAM"
 Zone I=    9 J=   15 K=1  T="Blade"
 DATAPACKING=BLOCK
 VARLOCATION=([4]=CELLCENTERED)
 -0.852037325543316      -0.852017833446844      -0.851969806393094     
 -0.850984635615819      -0.848552997862516      -0.845281132756425     
 -0.842501565734842      -0.840762101926141      -0.839850728904131     
 -0.847308668183371      -0.847259785246586      -0.847134491424227     
 -0.845961187321982      -0.843210495975698      -0.839571299084902     
 -0.836499720003634      -0.834582851244153      -0.833579654630223     
 -0.842002056968288      -0.841890924335921      -0.841601294971029     
 -0.840251346856534      -0.837397259655306      -0.833761474401307     
 -0.830738792590651      -0.828864630561721      -0.827886601576272     
 -0.836436144949176      -0.836252533051654      -0.835771096689688     
 -0.834260006791598      -0.831401505281734      -0.827927598267557     
 -0.825096815629215      -0.823357166767220      -0.822452781961532     
 -0.830585673330713      -0.830433995098198      -0.830036806940251     
 -0.828655102852311      -0.825949563968448      -0.822610421207111     
 -0.819871025928668      -0.818182498173981      -0.817303521946142     
 -0.824624808433283      -0.824499930424733      -0.824173280793217     
 -0.822925910671125      -0.820415035151445      -0.817279319563607     
 -0.814693938053708      -0.813096838350321      -0.812264655209720     
 -0.818599619472675      -0.818497368125698      -0.818230394514134     
 -0.817117559846671      -0.814825302450896      -0.811935198833127     
 -0.809542748973146      -0.808062190394453      -0.807290179901294     
 -0.812569019675764      -0.812484918132395      -0.812265764343894     
 -0.811277645796018      -0.809204165637936      -0.806570370596227     
 -0.804383394966232      -0.803028204718591      -0.802321048064352     
 -0.806590110775691      -0.806518160451828      -0.806330935405210     
 -0.805445496691494      -0.803567714203937      -0.801172618318907     
 -0.799180514531825      -0.797945073223177      -0.797300225330573     
 -0.800658610353653      -0.800594173634571      -0.800426206672684     
 -0.799624710852905      -0.797921650739235      -0.795747921872234     
 -0.793939292755873      -0.792817553377703      -0.792232061483578     
 -0.794759676227452      -0.794699249068686      -0.794541939908236     
 -0.793811470197300      -0.792268945647606      -0.790304677064097     
 -0.788671795129981      -0.787659530667842      -0.787131263975927     
 -0.788886668804683      -0.788827846153947      -0.788674410679822     
 -0.788005194965345      -0.786611653478901      -0.784847091028992     
 -0.783383634501697      -0.782477288660829      -0.782004539764844     
 -0.783004240850166      -0.782947161820981      -0.782798090355805     
 -0.782191920027724      -0.780951326310870      -0.779391245846172     
 -0.778101204099986      -0.777303260488102      -0.776887236085509     
 -0.777174437161198      -0.777115236880140      -0.776960351994337     
 -0.776400143956348      -0.775289921554253      -0.773912523187118     
 -0.772780037895994      -0.772081315398048      -0.771717375505443     
 -0.771379128744643      -0.771315827662647      -0.771150102418701     
 -0.770625744060629      -0.769631261275297      -0.768421220944806     
 -0.767434684042731      -0.766828279505817      -0.766512952288145     
  0.404789425692836       0.403844502653822       0.401352840557926     
  0.397494856185500       0.392895213094281       0.388810525977113     
  0.386020565612829       0.384454622804764       0.383674556583603     
  0.411246093915290       0.410088058478523       0.407035055963410     
  0.402115842756338       0.395985611455388       0.390306816028418     
  0.386313125147629       0.384033689122506       0.382888751628855     
  0.417115602390579       0.415807285290703       0.412358783981981     
  0.406617157820369       0.399216524518032       0.392152990909553     
  0.387087829193485       0.384165609147972       0.382690071691633     
  0.422477065910908       0.421046731130434       0.417276985532678     
  0.410857811636994       0.402400775058002       0.394179009051204     
  0.388215013298962       0.384752823162472       0.382999471439009     
  0.426870561890801       0.425346473412240       0.421329836510804     
  0.414449280182834       0.405332816332424       0.396428775514340     
  0.389951399480452       0.386185396152159       0.384276838726821     
  0.430497778958075       0.428931934630786       0.424805688626440     
  0.417704732323346       0.408255698894744       0.398994566785418     
  0.392242921792316       0.388313243415471       0.386320484927252     
  0.433554873452313       0.431985582297888       0.427850079100664     
  0.420706579102639       0.411167928168513       0.401792656840613     
  0.394946174860896       0.390957604980422       0.388934218971083     
  0.436239235576853       0.434690428423691       0.430609286614433     
  0.423537776063154       0.414067963190964       0.404738780865903     
  0.397916623637687       0.393939182084821       0.391920720114247     
  0.438690001302378       0.437175957862897       0.433186403174670     
  0.426256212535948       0.416954013943320       0.407773143665864     
  0.401051929232331       0.397131114125264       0.395140817656426     
  0.440943098747057       0.439475735195068       0.435609182995192     
  0.428878908330331       0.419828131157048       0.410882137528685     
  0.404326863201535       0.400501082042633       0.398558548749816     
  0.443001320102232       0.441592651092324       0.437881009151996     
  0.431409148041525       0.422692417658063       0.414065895664778     
  0.407740081544079       0.404046757027957       0.402171190662346     
  0.444853716637027       0.443516840112314       0.439994084299013     
  0.433842975073699       0.425547643927751       0.417329718671191     
  0.411299937761047       0.407778265236276       0.405989657395255     
  0.446478228657775       0.445227916734552       0.441933340877624     
  0.436173200330256       0.428396173504719       0.420684734875533     
  0.415023370545791       0.411716090668850       0.410036008642210     
  0.447835741931865       0.446688933303482       0.443667247674915     
  0.438379420925891       0.431234049793135       0.424144418779201     
  0.418937543227475       0.415894979674544       0.414349323906191     
  0.448932200035448       0.447905931876033       0.445201551305487     
  0.440466103225128       0.434063474099695       0.427707721823304     
  0.423038649785498       0.420309944463452       0.418923729070312     
  7.075349112173680E-002  7.092370501221899E-002  7.137376817665558E-002
  7.173912007787581E-002  7.171716830999550E-002  7.129277078127569E-002
  7.080460836132269E-002  7.046533391476234E-002  7.027999542616714E-002
  8.546544457113971E-002  8.566495017427717E-002  8.619222227745611E-002
  8.668823167961559E-002  8.683735845228642E-002  8.657838675760762E-002
  8.620981255040673E-002  8.593985017099164E-002  8.578955626083405E-002
  0.100077108526366       0.100282156433435       0.100823827971111     
  0.101409864453308       0.101759740577299       0.101761847394570     
  0.101612124612032       0.101478320296262       0.101399221506362     
  0.114689833974950       0.114891397381479       0.115423536205078     
  0.116078059135813       0.116624555530755       0.116902915704493     
  0.116991698651614       0.117008174869419       0.117008010341848     
  0.129380620778121       0.129611399337126       0.130220529486776     
  0.131008720301870       0.131734627618326       0.132190062234151     
  0.132408439806424       0.132500531081414       0.132538737822746     
  0.144175014781981       0.144423383028092       0.145078754510421     
  0.145957195458951       0.146816358883358       0.147412840706884     
  0.147738739426430       0.147894820309308       0.147965858102955     
  0.159052868336585       0.159310118787870       0.159988947614950     
  0.160924338501753       0.161879888536245       0.162587183260386     
  0.163001098878477       0.163210647855160       0.163309333749105     
  0.173998801281833       0.174258814036744       0.174944847308322     
  0.175912122816380       0.176934384255417       0.177726319381584     
  0.178210457127786       0.178463548289691       0.178584915087927     
  0.189007380963243       0.189265293224023       0.189945761901891     
  0.190923892085056       0.191985929962319       0.192836914721308     
  0.193373038783409       0.193659089424167       0.193797849690587     
  0.204070198979409       0.204322086802716       0.204986484263085     
  0.205957654277249       0.207036108364728       0.207923591110507     
  0.208495356950034       0.208804959229832       0.208956360875174     
  0.219181545400818       0.219423878949891       0.220063087667634     
  0.221011619511165       0.222085822138988       0.222989595496194     
  0.223582271419114       0.223906864714340       0.224066528737835     
  0.234340950009508       0.234570396176243       0.235175571593077     
  0.236086211140732       0.237135566445016       0.238035356469380     
  0.238634149562522       0.238965084745007       0.239128638413215     
  0.249539686816702       0.249753524346314       0.250317471703099     
  0.251177695260039       0.252185462690837       0.253064639272618     
  0.253657419298453       0.253987580331640       0.254151415890090     
  0.264807569744233       0.265001213506305       0.265511838940709     
  0.266300164905320       0.267236857684770       0.268065847108384     
  0.268630691241068       0.268947293574031       0.269104862163314     
  0.280137101225139       0.280306633811950       0.280753773525204     
  0.281451497575629       0.282290945603698       0.283043140977087     
  0.283560190777996       0.283851500721263       0.283996844966479     
  1.128839160092918E-002  5.744395750038667E-002  0.222601896518269     
  0.480573082397939       0.727671198863345       0.884038895703677     
  0.953545238681574       0.973301638745050       2.687606197635284E-002
  9.414789975312995E-002  0.298641891659870       0.605719254643787     
  0.892586656019484        1.06400236352883        1.13566426911661     
   1.15590448771326       3.592426947049539E-002  0.110644670958109     
  0.318201221945516       0.621079113049758       0.900064757911936     
   1.06385129401735        1.13083780271428        1.14976882234876     
  3.084932701426219E-002  9.867983911281415E-002  0.299188976726937     
  0.597638358820682       0.875412186014734        1.03836388739785     
   1.10449419270743        1.12315697109987       1.280335209349572E-002
  6.433268689412230E-002  0.260912536443876       0.565772402451043     
  0.853750864877143        1.02456460123940        1.09499927379870     
   1.11520907637043      -2.883713310401714E-003  3.369300520517914E-002
  0.223525514156291       0.529917572380001       0.823713602713950     
  0.999265977905502        1.07207872673781        1.09309142813603     
 -1.630276254298723E-002  6.848899307089633E-003  0.187640778157028     
  0.490118576311198       0.783764743946849       0.960037810675543     
   1.03329965905557        1.05449825231201      -2.720256009203481E-002
 -1.550993193864811E-002  0.154972634293424       0.449363349406870     
  0.737946028485410       0.911666761913364       0.983918022631873     
   1.00484907719846      -3.475098872449081E-002 -3.171524313939918E-002
  0.128083143054602       0.411169233502259       0.690759020874197     
  0.859485563036997       0.929750050411868       0.950128320312290     
 -3.882547849138428E-002 -4.152359129010587E-002  0.107520804880940     
  0.376458413337591       0.643531448583353       0.805068617393227     
  0.872425775699263       0.891992546873051      -3.959228467316039E-002
 -4.526421079993496E-002  9.286547011513926E-002  0.344905925916155     
  0.596101139384341       0.748367190818150       0.811980063807040     
  0.830495445908265      -3.784131336701116E-002 -4.451249529301211E-002
  8.180048414310202E-002  0.313745134611733       0.545754029870197     
  0.686979235352381       0.746226702277367       0.763518529725666     
 -3.416592904967174E-002 -4.065064884326618E-002  7.186384272195750E-002
  0.278984643883431       0.487611728112713       0.616618419419135     
  0.671790218586317       0.688109731683499      -3.108439334294516E-002
 -4.008573111093159E-002  4.938276066679186E-002  0.213899083714261     
  0.381221437586165       0.491428279579545       0.543263043783644     
  0.559550953431956     
 Zone I=  201 J=   15 K=1  T="NearWake"
 DATAPACKING=BLOCK
 VARLOCATION=([4]=CELLCENTERED)
 -0.839813810457093      -0.837780512809910      -0.834916388892308     
 -0.832433604592330      -0.830238250191005      -0.828291598901471     
 -0.826569854354748      -0.825054366236420      -0.823728536282686     
 -0.822576526001015      -0.821582623222492      -0.820730893582015     
 -0.820004964327284      -0.819387887817986      -0.818862092480561     
 -0.818409431221740      -0.818011294328849      -0.817648741959980     
 -0.817302639814817      -0.816953800308068      -0.816583130329643     
 -0.816171780574827      -0.815701288011443      -0.815153705330348     
 -0.814511718462550      -0.813758759370649      -0.812879121781807     
 -0.811858085312373      -0.810682052303982      -0.809338701192996     
 -0.807817157312580      -0.806108174882879      -0.804204314405788     
 -0.802100092169834      -0.799792077097060      -0.797278916891934     
 -0.794561290370789      -0.791641800007122      -0.788524828256975     
 -0.785216379135573      -0.781723916136958      -0.778056199448669     
 -0.774223131685356      -0.770235622201259      -0.766105462557858     
 -0.761845207265019      -0.757468079221725      -0.752987909499378     
 -0.748419086827230      -0.743776493587515      -0.739075428412827     
 -0.734331524669422      -0.729560662055796      -0.724778859424885     
 -0.720002148713913      -0.715246435631577      -0.710527349217183     
 -0.705860095891721      -0.701259348099723      -0.696739179815964     
 -0.692313028476546      -0.687993653111409      -0.683793073073765     
 -0.679722486648833      -0.675792173667479      -0.672011387409418     
 -0.668388243528490      -0.664929615457674      -0.661641042020248     
 -0.658526649180168      -0.655589093058001      -0.652829536344584     
 -0.650247661216512      -0.647841704684328      -0.645608489407705     
 -0.643543426591218      -0.641640497087196      -0.639892248422655     
 -0.638289836900408      -0.636823107486091      -0.635480690632951     
 -0.634250115066587      -0.633117947099813      -0.632069943706316     
 -0.631091207631812      -0.630166395305686      -0.629280089066830     
 -0.628417403414383      -0.627564678303543      -0.626709756201357     
 -0.625841230177243      -0.624946742220599      -0.624011411541382     
 -0.623017435251509      -0.621944886295211      -0.620773062676725     
 -0.619481854283733      -0.618052927405493      -0.616470671839936     
 -0.614722821478725      -0.612800629854527      -0.610698553924613     
 -0.608413517603153      -0.605943980883366      -0.603289170551966     
 -0.600448764289281      -0.597423133903122      -0.594214136225857     
 -0.590826311852528      -0.587268152104513      -0.583553055584700     
 -0.579699800675755      -0.575732535711846      -0.571680265066949     
 -0.567575774551324      -0.563454040826488      -0.559350301378336     
 -0.555298010821657      -0.551326782925954      -0.547460042733539     
 -0.543711699003929      -0.540081386476269      -0.536549022167459     
 -0.533070455176089      -0.529576068798839      -0.525974070480350     
 -0.522160193700877      -0.518035213403545      -0.513529472859647     
 -0.508627168165988      -0.503376491692919      -0.497877819247229     
 -0.492259184403539      -0.486654160583546      -0.481187851138829     
 -0.475967319333722      -0.471073050627370      -0.466554371231055     
 -0.462432700331216      -0.458710771610882      -0.455383021706713     
 -0.452444366859077      -0.449896505254234      -0.447749775283464     
 -0.446018348029748      -0.444709949789843      -0.443814582740005     
 -0.443297406108667      -0.443100628876839      -0.443155969264127     
 -0.443397268162218      -0.443754384281552      -0.444138696903212     
 -0.444458150108209      -0.444670306823927      -0.444842758548506     
 -0.445169608870882      -0.445930332774116      -0.447437745023890     
 -0.450007645255730      -0.453937445620741      -0.459470479411505     
 -0.466735495881568      -0.475699437213075      -0.486182131776853     
 -0.497814667889272      -0.509711799456145      -0.520529620547940     
 -0.529268250762256      -0.535745039979368      -0.540303727218627     
 -0.543394760585367      -0.545393042697126      -0.546573364493442     
 -0.547128772220002      -0.547189703814378      -0.546838086339390     
 -0.546118243578564      -0.545045864530157      -0.543615107219901     
 -0.541803984120514      -0.539579022733385      -0.536899907948530     
 -0.533723121593304      -0.530002748803213      -0.525688033854102     
 -0.520720102222786      -0.515033401012321      -0.508570151148363     
 -0.501315200860631      -0.493343857344031      -0.484844662735036     
 -0.476107851380303      -0.467822362822581      -0.461690860353699     
 -0.458725027856587      -0.457807520334583      -0.457506748536622     
 -0.457645678770621      -0.458345019513772      -0.458525075806220     
 -0.833542736183186      -0.831554622290774      -0.828112595442879     
 -0.825245656558653      -0.822782918695739      -0.820649210141748     
 -0.818801565512523      -0.817210034435187      -0.815850317815876     
 -0.814700588497236      -0.813739998193738      -0.812947939680974     
 -0.812303664817227      -0.811786059819704      -0.811373485714738     
 -0.811043705387239      -0.810773953863694      -0.810541102121193     
 -0.810321836286421      -0.810092842807780      -0.809831008250576     
 -0.809513621790762      -0.809118557258616      -0.808624425348719     
 -0.808010709743094      -0.807257905027245      -0.806347662429615     
 -0.805262942875668      -0.803988180135478      -0.802509460952427     
 -0.800814726322989      -0.798893987440113      -0.796739535548231     
 -0.794346114394201      -0.791711022230371      -0.788834117322644     
 -0.785717719521690      -0.782366431180901      -0.778786931887610     
 -0.774987799490945      -0.770979341065650      -0.766773397284635     
 -0.762383161165995      -0.757823020794286      -0.753108361875953     
 -0.748255318469037      -0.743280563852223      -0.738201202866173     
 -0.733034728966038      -0.727798986038647      -0.722512102442997     
 -0.717192398151325      -0.711858273277422      -0.706528074654788     
 -0.701219941951266      -0.695951624315776      -0.690740291546153     
 -0.685602369271178      -0.680553435172834      -0.675608175513178     
 -0.670780370739580      -0.666082890669608      -0.661527683258159     
 -0.657125716480915      -0.652886845394041      -0.648819620334724     
 -0.644931089525562      -0.641226660766228      -0.637710044172710     
 -0.634383255133889      -0.631246673263848      -0.628299152340349     
 -0.625538137309141      -0.622959752459904      -0.620558832515520     
 -0.618328850309655      -0.616261757629243      -0.614347883071181     
 -0.612576034858689      -0.610933800497744      -0.609407943732851     
 -0.607984856307210      -0.606650999427586      -0.605393151957050     
 -0.604198382398722      -0.603054016004610      -0.601948028277543     
 -0.600869822125748      -0.599810490368728      -0.598761466921846     
 -0.597711868437788      -0.596646334400298      -0.595544542233320     
 -0.594382111031209      -0.593132192414357      -0.591767352180208     
 -0.590261584696617      -0.588592244122289      -0.586741528700516     
 -0.584697120916141      -0.582451818386545      -0.580002477189360     
 -0.577348857484083      -0.574492847530713      -0.571438263300483     
 -0.568191046076143      -0.564759613215666      -0.561155397387674     
 -0.557393595837843      -0.553493814936180      -0.549480291990135     
 -0.545381682558262      -0.541230544329014      -0.537062537517828     
 -0.532915275685307      -0.528826881734441      -0.524834398291097     
 -0.520972056904047      -0.517268945911931      -0.513744928296248     
 -0.510403595681988      -0.507222522305875      -0.504142752838339     
 -0.501059710236274      -0.497819445736721      -0.494230977283632     
 -0.490111356778029      -0.485366935178602      -0.480073640940007     
 -0.474488896507171      -0.468967347682153      -0.463829768358122     
 -0.459265837674259      -0.455316088774108      -0.451912977721629     
 -0.448936109968824      -0.446253102532467      -0.443738534962256     
 -0.441282992973571      -0.438797062548856      -0.436220453272801     
 -0.433529181569319      -0.430739703856014      -0.427904664986099     
 -0.425099849787489      -0.422404050566140      -0.419873239090265     
 -0.417514200590335      -0.415269270759282      -0.413025506683117     
 -0.410656558185318      -0.408089977259599      -0.405368996655581     
 -0.402669387704374      -0.400250605017046      -0.398373293755527     
 -0.397253453747937      -0.397072575972725      -0.398005967547079     
 -0.400238819858438      -0.403962212288241      -0.409346406427222     
 -0.416500494615490      -0.425450516145017      -0.436187050111622     
 -0.448728905553440      -0.462743481752183      -0.477064952007920     
 -0.490660334056818      -0.502965787147616      -0.513578033194244     
 -0.522340796848350      -0.529337117983578      -0.534746695412442     
 -0.538748477872006      -0.541484965652279      -0.543053295874845     
 -0.543508868463610      -0.542878669751023      -0.541181164332895     
 -0.538447293834516      -0.534736389735983      -0.530141675215187     
 -0.524780934472667      -0.518771014942482      -0.512194450916790     
 -0.505080653040899      -0.497428245972775      -0.489262390337664     
 -0.480579186855403      -0.470588016486661      -0.456792174277589     
 -0.439582760675226      -0.422224468566098      -0.408032541909592     
 -0.399577155067683      -0.397831471488668      -0.400004517124336     
 -0.400296751248106      -0.393812521209538      -0.384742979112680     
 -0.827849683129234      -0.825889116500247      -0.822406814872806     
 -0.819484039020054      -0.816986711482463      -0.814853096487266     
 -0.813044604569530      -0.811531738261097      -0.810288762588684     
 -0.809291358535978      -0.808515517656463      -0.807937015472845     
 -0.807531178230312      -0.807272798449472      -0.807136091155212     
 -0.807094630365315      -0.807121358073100      -0.807188766763798     
 -0.807269147148617      -0.807334829058172      -0.807358436679682     
 -0.807313141137859      -0.807172862176849      -0.806912418519817     
 -0.806507674403214      -0.805935702030664      -0.805174946961701     
 -0.804205389273836      -0.803008710640136      -0.801568485931394     
 -0.799870413217254      -0.797902580917322      -0.795655747582769     
 -0.793123587425362      -0.790302845867533      -0.787193355492822     
 -0.783797893502948      -0.780121922522092      -0.776173317525955     
 -0.771962166654500      -0.767500591571900      -0.762802533687412     
 -0.757883567233537      -0.752760695755147      -0.747452053405651     
 -0.741976563149441      -0.736353681520801      -0.730603273999233     
 -0.724745581136459      -0.718801201262594      -0.712791038193767     
 -0.706736206715150      -0.700657896293895      -0.694577177865939     
 -0.688514750318740      -0.682490685567246      -0.676524255258196     
 -0.670633867263126      -0.664837087791107      -0.659150708300637     
 -0.653590812268740      -0.648172864438495      -0.642911832135885     
 -0.637822190698876      -0.632917677770169      -0.628210880890993     
 -0.623712902159211      -0.619433240174489      -0.615379800859466     
 -0.611558955963239      -0.607975634599757      -0.604633272823002     
 -0.601533439809700      -0.598675247678339      -0.596054765180557     
 -0.593664535521384      -0.591493301969209      -0.589526210762843     
 -0.587745666705024      -0.586132561185054      -0.584667563087663     
 -0.583332421976520      -0.582111111535313      -0.580990388646080     
 -0.579959354513312      -0.579008372483052      -0.578128116305900     
 -0.577308528083296      -0.576537118030707      -0.575797366974480     
 -0.575068472740897      -0.574325710154575      -0.573539774011902     
 -0.572676106671863      -0.571696643770612      -0.570563910070899     
 -0.569245336564338      -0.567716112466053      -0.565959982912068     
 -0.563968213661401      -0.561737536767331      -0.559268244196787     
 -0.556563118075734      -0.553627112238039      -0.550467470535385     
 -0.547093792361610      -0.543517962497986      -0.539754241033282     
 -0.535819372128679      -0.531732504032641      -0.527515052517960     
 -0.523190699539002      -0.518785546914884      -0.514328266847618     
 -0.509850030902109      -0.505383912128377      -0.500963224369137     
 -0.496617552768553      -0.492364327151570      -0.488195062920125     
 -0.484058744364225      -0.479847080070116      -0.475389676151352     
 -0.470476922380162      -0.464933762471037      -0.458729557342072     
 -0.452039571764706      -0.445203259669728      -0.438623165968083     
 -0.432647861723288      -0.427484382029145      -0.423195944639306     
 -0.419768006654876      -0.417162110324863      -0.415306636390657     
 -0.414051966380396      -0.413149605673701      -0.412283396448498     
 -0.411136270622592      -0.409459315525226      -0.407117663214998     
 -0.404101037700571      -0.400501368897652      -0.396472646348637     
 -0.392191349343159      -0.387825695666268      -0.383508975417932     
 -0.379312778168574      -0.375225523533773      -0.371156328111978     
 -0.367000051102781      -0.362795729936682      -0.358862191478038     
 -0.355622808195223      -0.353280390646542      -0.351768355083549     
 -0.350924704773472      -0.350647351921958      -0.350953095405704     
 -0.351976770572384      -0.353952332534171      -0.357189860314607     
 -0.362038526006145      -0.368809788684191      -0.377636380119962     
 -0.388287951646505      -0.400070576504040      -0.411978977498360     
 -0.423066134216315      -0.432707522581453      -0.440595835612616     
 -0.446657551981088      -0.451014327661426      -0.453909674946895     
 -0.455609645429076      -0.456336009849969      -0.456243496501624     
 -0.455423862054103      -0.453917577461939      -0.451723814756480     
 -0.448806963443611      -0.445101931803931      -0.440528701574628     
 -0.435025249848935      -0.428587064192497      -0.421279895999902     
 -0.413205729547498      -0.404444786552373      -0.395027226154813     
 -0.384971520593879      -0.374353256319835      -0.363339603536791     
 -0.352198193817384      -0.341384359295386      -0.331861705079578     
 -0.325529182623590      -0.324104350891141      -0.326519170468305     
 -0.330125980575113      -0.332197864065402      -0.330949905043516     
 -0.822415863514493      -0.820467582325715      -0.817091025250020     
 -0.814264598826356      -0.811878523938394      -0.809881143113675     
 -0.808238677887124      -0.806923906414566      -0.805911731766835     
 -0.805177180846131      -0.804694553579172      -0.804437167150663     
 -0.804377344406857      -0.804486502121829      -0.804735277686915     
 -0.805093600404445      -0.805530688600734      -0.806015190009707     
 -0.806515498946782      -0.807000067481346      -0.807437715047030     
 -0.807797916730816      -0.808050989728473      -0.808168220954383     
 -0.808122029493407      -0.807886152184910      -0.807435808795748     
 -0.806747841630700      -0.805800853280379      -0.804575375374991     
 -0.803054099766615      -0.801222192284682      -0.799067673119560     
 -0.796581802631547      -0.793759381602067      -0.790598865815294     
 -0.787102238839291      -0.783274694631529      -0.779124272355080     
 -0.774661571580276      -0.769899536428565      -0.764853262780888     
 -0.759539811559619      -0.753977918896150      -0.748187600986311     
 -0.742189808403458      -0.736006207197245      -0.729659099191800     
 -0.723171456115567      -0.716566925056814      -0.709869760126348     
 -0.703104699068770      -0.696296730775966      -0.689470696725760     
 -0.682650853558812      -0.675860620093255      -0.669122513779784     
 -0.662458148905228      -0.655888315121579      -0.649433155948024     
 -0.643112379792217      -0.636945517734807      -0.630952156967100     
 -0.625151906275032      -0.619564013785902      -0.614206943553720     
 -0.609098181612473      -0.604254136523841      -0.599689979920398     
 -0.595419380496592      -0.591453891148566      -0.587801786021882     
 -0.584466676544700      -0.581446602863362      -0.578733946777609     
 -0.576315979622191      -0.574175798082184      -0.572293605825483     
 -0.570648207186326      -0.569218344491772      -0.567983799036719     
 -0.566926356556240      -0.566030682421559      -0.565284539558966     
 -0.564677383712175      -0.564197740049436      -0.563831160775110     
 -0.563559174474774      -0.563358751823760      -0.563203109424571     
 -0.563063507521048      -0.562908327999019      -0.562698986600857     
 -0.562389582660957      -0.561932615607256      -0.561285451037323     
 -0.560414153217423      -0.559295186760702      -0.557915588944405     
 -0.556270868491983      -0.554361059620302      -0.552187512886987     