 Title = "Wing and Wake"
 VARIABLES = "X" "Y" "Z" "GAM"
 Zone I=    9 J=   15 K=1  T="Blade"
 DATAPACKING=BLOCK
 VARLOCATION=([4]=CELLCENTERED)
  -1.49321339538136       -1.49294251176118       -1.49223159185269     
  -1.49022002577149       -1.48656467853343       -1.48220610511794     
  -1.47868428464492       -1.47652821045389       -1.47540930514847     
  -1.49303793035691       -1.49268095852724       -1.49174343035090     
  -1.48926139691040       -1.48487979159147       -1.47972978273371     
  -1.47559570438608       -1.47307240433867       -1.47176460346683     
  -1.49212828352455       -1.49166908039793       -1.49046199642276     
  -1.48758452057350       -1.48276153600662       -1.47724653688731     
  -1.47287629694859       -1.47022469451498       -1.46885410698866     
  -1.49082419071586       -1.49026004619819       -1.48877568996797     
  -1.48555681452552       -1.48044836542856       -1.47478710325565     
  -1.47036963268864       -1.46770888737981       -1.46633803309126     
  -1.48897801592257       -1.48842086241951       -1.48695507033391     
  -1.48374283246935       -1.47861190903719       -1.47290389569489     
  -1.46844123051664       -1.46575077850369       -1.46436404117847     
  -1.48681758360372       -1.48627612141311       -1.48485170696119     
  -1.48171516687383       -1.47669042851763       -1.47109084019511     
  -1.46670922105289       -1.46406665225410       -1.46270430679123     
  -1.48444113191443       -1.48392137937618       -1.48255417811950     
  -1.47954085497314       -1.47471089250149       -1.46932655004420     
  -1.46511263169860       -1.46257093626721       -1.46126061516999     
  -1.48196012337793       -1.48146397029799       -1.48015905140956     
  -1.47728959677506       -1.47269672552495       -1.46758095336682     
  -1.46357898071617       -1.46116561424556       -1.45992145700040     
  -1.47946865871437       -1.47899390554679       -1.47774528164485     
  -1.47501610422195       -1.47066352349003       -1.46582590808469     
  -1.46204566254655       -1.45976711016617       -1.45859275495788     
  -1.47697199661633       -1.47651717597820       -1.47532053428951     
  -1.47272848629448       -1.46861751720795       -1.46406375644794     
  -1.46051113302372       -1.45837156582764       -1.45726927374539     
  -1.47445607247823       -1.47402087675718       -1.47287610588366     
  -1.47042383348765       -1.46656227125727       -1.46230296443400     
  -1.45898713480487       -1.45699228187858       -1.45596503117740     
  -1.47191131649385       -1.47149682527258       -1.47040618018986     
  -1.46810049604697       -1.46450002780531       -1.46054913200693     
  -1.45748148577526       -1.45563821852870       -1.45468962045569     
  -1.46929651256908       -1.46890679500056       -1.46788121993621     
  -1.46574259622392       -1.46243296773615       -1.45882130187570     
  -1.45602508560911       -1.45434725856413       -1.45348425767437     
  -1.46666328201218       -1.46629897966822       -1.46534019211209     
  -1.46337318715134       -1.46036197846536       -1.45709842316320     
  -1.45458067756553       -1.45307249794149       -1.45229734492074     
  -1.46399511181505       -1.46365877779209       -1.46277356712527     
  -1.46098936911974       -1.45829150243424       -1.45539054952877     
  -1.45316183195652       -1.45182947053176       -1.45114534841178     
  0.456271136246380       0.455942967918858       0.455077622754230     
  0.453737758842753       0.452140319561335       0.450721722612864     
  0.449752779546822       0.449208933316921       0.448938019161392     
  0.472872643443168       0.472470461956631       0.471410165310307     
  0.469701740492381       0.467572733504208       0.465600508549734     
  0.464213514262505       0.463421874438764       0.463024241820134     
  0.489270144261242       0.488815770500834       0.487618118564951     
  0.485624072725333       0.483053859752269       0.480600720274267     
  0.478841608071099       0.477826731699809       0.477314282919065     
  0.505491290856637       0.504994540800471       0.503685321893835     
  0.501455966195610       0.498518868214801       0.495663478846233     
  0.493592204858252       0.492389798842377       0.491780866179198     
  0.521376265853158       0.520846955479348       0.519451992122779     
  0.517062399987406       0.513896285318625       0.510803944394762     
  0.508554375306065       0.507246456075972       0.506583621038208     
  0.536995114976157       0.536451302948268       0.535018272749748     
  0.532552136506299       0.529270521635118       0.526054164207283     
  0.523709342508672       0.522344579530759       0.521652501770738     
  0.552415874668922       0.551870865570534       0.550434620382665     
  0.547953708869025       0.544640970164799       0.541384972602355     
  0.539007214363938       0.537621998581456       0.536919283994981     
  0.567707273706702       0.567169378627292       0.565752012951336     
  0.563296103110173       0.560007271613967       0.556767280594229     
  0.554397970253354       0.553016619298491       0.552315614812730     
  0.582917545566483       0.582391723798132       0.581006165995507     
  0.578599336044910       0.575368716377096       0.572180233590944     
  0.569845980314762       0.568484295518139       0.567793072808477     
  0.598059080014236       0.597549470000680       0.596206630513956     
  0.593869230652453       0.590725928727234       0.587619017745263     
  0.585342394863230       0.584013715010440       0.583339080277727     
  0.613133022644889       0.612643797031875       0.611354757313694     
  0.609107103537803       0.606079814845198       0.603083855197722     
  0.600886923009084       0.599604244865570       0.598952867502606     
  0.628135483065584       0.627671190721021       0.626447750466331     
  0.624311492651119       0.621430554377843       0.618576498887834     
  0.616482377954278       0.615259313921747       0.614638136937439     
  0.643058800025117       0.642624571251151       0.641480377063671     
  0.639479901245357       0.636778968173515       0.634100813643217     
  0.632134642445281       0.630986036197951       0.630402549833436     
  0.657889301354532       0.657491018897628       0.656441598491861     
  0.654605155534289       0.652123594182376       0.649661391170573     
  0.647853062268783       0.646796391035979       0.646259590421029     
  0.672629227113211       0.672272807921851       0.671333586406265     
  0.669688982547083       0.667465372787267       0.665258043186270     
  0.663636491484750       0.662688822071622       0.662207394517879     
  1.700998737553590E-002  1.787089380084066E-002  2.014224011520220E-002
  2.332758993738788E-002  2.666775234682854E-002  2.922906135972444E-002
  3.078022353711478E-002  3.158557670871057E-002  3.197042848257760E-002
  1.921214769672239E-002  2.025812057625108E-002  2.301698822627882E-002
  2.710870193348219E-002  3.173872801908672E-002  3.563067808865800E-002
  3.818129662399347E-002  3.957749051461435E-002  4.026408992491991E-002
  2.174325129626507E-002  2.290461502669017E-002  2.596697238946962E-002
  3.074985683051982E-002  3.650923400785263E-002  4.167443848641679E-002
  4.522710123212258E-002  4.722929687318107E-002  4.822874381014251E-002
  2.464672469842098E-002  2.589379288616328E-002  2.918143140131631E-002
  3.452805655245372E-002  4.125623313789650E-002  4.754430221858182E-002
  5.199247442144049E-002  5.453964232806290E-002  5.582109217151691E-002
  2.833579639364721E-002  2.968060910261653E-002  3.322570441383502E-002
  3.904324544575186E-002  4.643284204214618E-002  5.339669508875768E-002
  5.834971779837846E-002  6.119457334894284E-002  6.262784223981588E-002
  3.268858770368151E-002  3.408151158331620E-002  3.775296712156094E-002
  4.382185989117822E-002  5.158780469454486E-002  5.895372122100472E-002
  6.421474227534225E-002  6.724322589058411E-002  6.877087269330842E-002
  3.754161799582160E-002  3.894594354271662E-002  4.264762298103086E-002
  4.880456304953134E-002  5.673240047722771E-002  6.429256009167870E-002
  6.971091924425250E-002  7.283591776265741E-002  7.441359988593503E-002
  4.273512910481316E-002  4.412724415207885E-002  4.779639251855592E-002
  5.393259644302122E-002  6.187682801816633E-002  6.948793922731662E-002
  7.495874030413438E-002  7.811914674445533E-002  7.971591054047250E-002
  4.816203449479201E-002  4.952663847316836E-002  5.312327653906920E-002
  5.916703719310223E-002  6.702852736444312E-002  7.459027935207015E-002
  8.003928249797251E-002  8.319125725429824E-002  8.478482691402230E-002
  5.378771177630005E-002  5.511217060209127E-002  5.860282864632609E-002
  6.449350033034520E-002  7.218762994885868E-002  7.961419657824866E-002
  8.497754739827608E-002  8.808360862468910E-002  8.965490711728138E-002
  5.960431464559909E-002  6.087631635705822E-002  6.422855383404190E-002
  6.990769967558129E-002  7.735340596595464E-002  8.456274506367949E-002
  8.977928177677659E-002  9.280351468987040E-002  9.433412601150790E-002
  6.561942358105263E-002  6.682606111414480E-002  7.000619876788614E-002
  7.541299837025608E-002  8.252583510087320E-002  8.943252663157217E-002
  9.443879471398826E-002  9.734390030243804E-002  9.881483883958256E-002
  7.184043715123585E-002  7.296819155652037E-002  7.594031276009426E-002
  8.101091738652290E-002  8.770331113049365E-002  9.421917226117586E-002
  9.895013277156736E-002  0.101697753668947       0.103089647032929     
  7.832580757877716E-002  7.935771236930290E-002  8.207704223788519E-002
  8.673051098152088E-002  9.289012065065748E-002  9.890128366278984E-002
  0.103272099207784       0.105812666716705       0.107100034090150     
  8.506359741430558E-002  8.598328184117728E-002  8.840719150740091E-002
  9.256629654135065E-002  9.808575337180822E-002  0.103483692863211     
  0.107413606006325       0.109699466106429       0.110858066018153     
  1.574411995774960E-002  6.940998325974590E-002  0.251311230632045     
  0.533940463709210       0.805444216713898       0.978213929328215     
   1.05530902309343        1.07725703679808       3.338928577290429E-002
  0.110544589827358       0.334952353386415       0.670575792825266     
  0.985305219294614        1.17446573564168        1.25385881702915     
   1.27632798210999       4.373732173752513E-002  0.129264001643016     
  0.356469207080841       0.686196160884717       0.990605555190048     
   1.17004863511482        1.24362860881460        1.26445373209662     
  3.908666608514092E-002  0.118074889893183       0.337987960900961     
  0.661626273084289       0.961876735456316        1.13786415571376     
   1.20921515309420        1.22933772346106       2.060532622512972E-002
  8.271573596201519E-002  0.297890615115335       0.626651888865461     
  0.935643298070124        1.11855637203297        1.19386377867096     
   1.21544849524297       4.751097009725172E-003  5.159184915495946E-002
  0.259338621640478       0.588565452692212       0.902333282768010     
   1.08941404526351        1.16691440475660        1.18926304535286     
 -8.525796941581419E-003  2.488764764537920E-002  0.223113024914614     
  0.547488178699328       0.860138535545157        1.04736498134243     
   1.12509140197643        1.14756781630086      -1.899175652751929E-002
  3.253589921051705E-003  0.190890204088872       0.506342436862641     
  0.812960495760989       0.996994480796502        1.07342637544814     
   1.09555120464512      -2.586226637010803E-002 -1.171655048546386E-002
  0.165205161714552       0.468732214800285       0.765538066065480     
  0.944015014632373        1.01820513901850        1.03970064732556     
 -2.900393456803834E-002 -1.975434447588001E-002  0.146675749695967     
  0.435738114820193       0.719496129437950       0.890429633245023     
  0.961560662149132       0.982202070510768      -2.861897391974663E-002
 -2.127048883342822E-002  0.134748861315131       0.406887592630947     
  0.674603007192158       0.836257840490092       0.903702928321389     
  0.923325904041444      -2.589581454856045E-002 -1.867187965458433E-002
  0.125821915434076       0.377711641477183       0.626199346785498     
  0.777134377514576       0.840551077767522       0.859094062795049     
 -2.233801205606340E-002 -1.531932381680695E-002  0.114146283794367     
  0.339367985604101       0.563024437895034       0.701283763143104     
  0.760644380728177       0.778257569060797      -2.164169692799113E-002
 -2.015830858860030E-002  8.188644538888994E-002  0.259099509629055     
  0.436789080809243       0.553886899483751       0.609226531094205     
  0.626661299081110     
 Zone I=  361 J=   15 K=1  T="NearWake"
 DATAPACKING=BLOCK
 VARLOCATION=([4]=CELLCENTERED)
  -1.47520952192749       -1.47116643412199       -1.46621510467376     
  -1.46149561409415       -1.45698366125153       -1.45267016586354     
  -1.44855410001811       -1.44463750923398       -1.44092356703497     
  -1.43741557233142       -1.43411636648328       -1.43102797707345     
  -1.42815137446244       -1.42548628853371       -1.42303106587772     
  -1.42078256453992       -1.41873609119581       -1.41688538517292     
  -1.41522264348154       -1.41373856957111       -1.41242243436933     
  -1.41126214726391       -1.41024433596343       -1.40935443438077     
  -1.40857677789233       -1.40789470626346       -1.40729067645949     
  -1.40674638916747       -1.40624293403916       -1.40576095832462     
  -1.40528086104852       -1.40478300866953       -1.40424796426065     
  -1.40365672931152       -1.40299098903207       -1.40223333186998     
  -1.40136742210704       -1.40037813108255       -1.39925161748922     
  -1.39797535650041       -1.39653815790091       -1.39493017877551     
  -1.39314293868131       -1.39116934213774       -1.38900370188447     
  -1.38664176915681       -1.38408076399390       -1.38131939408084     
  -1.37835785918480       -1.37519784551651       -1.37184249776301     
  -1.36829638831208       -1.36456514294649       -1.36065575125581     
  -1.35657656463290       -1.35233713506692       -1.34794809077836     
  -1.34342108291485       -1.33876872169399       -1.33400447884045     
  -1.32914258666004       -1.32419792872576       -1.31918591389095     
  -1.31412234468677       -1.30902330582279       -1.30390505895669     
  -1.29878391636264       -1.29367614552192       -1.28859784883131     
  -1.28356483543932       -1.27859256848036       -1.27369605819487     
  -1.26888986319572       -1.26418816927923       -1.25960470254580     
  -1.25515236417563       -1.25084323912161       -1.24668847141224     
  -1.24269816833173       -1.23888133816504       -1.23524578183684     
  -1.23179797290032       -1.22854293856199       -1.22548416556168     
  -1.22262351544273       -1.21996114413984       -1.21749545826043     
  -1.21522311067145       -1.21313899995682       -1.21123631783774     
  -1.20950663285352       -1.20793996086385       -1.20652484533705     
  -1.20524849738425       -1.20409688462149       -1.20305479102197     
  -1.20210599920030       -1.20123345243047       -1.20041923049095     
  -1.19964545467615       -1.19889321447223       -1.19814302153332     
  -1.19737499523048       -1.19656891637448       -1.19570408709587     
  -1.19475925251777       -1.19371874729114       -1.19256301827710     
  -1.19127437606643       -1.18983788197325       -1.18823702846029     
  -1.18645832610129       -1.18448952414071       -1.18231944720314     
  -1.17994022696079       -1.17734570449152       -1.17453133379995     
  -1.17149446996724       -1.16823451315161       -1.16475291084444     
  -1.16105313709878       -1.15714064110978       -1.15302277386196     
  -1.14870876799570       -1.14420955396378       -1.13953781406457     
  -1.13470787383567       -1.12973566988781       -1.12463878286803     
  -1.11943634308094       -1.11414849821181       -1.10879527856698     
  -1.10339588547144       -1.09796863312575       -1.09253117799695     
  -1.08710048759404       -1.08169253526768       -1.07632268905991     
  -1.07100599270574       -1.06575644662430       -1.06058770256078     
  -1.05557732065518       -1.05039697101176       -1.04553682124830     
  -1.04079299375660       -1.03617747520124       -1.03170068295499     
  -1.02737170726677       -1.02319885571510       -1.01918984861779     
  -1.01535176520428       -1.01169085052630       -1.00821236579224     
  -1.00492066415099       -1.00181935769701      -0.998911086249165     
 -0.996196884741749      -0.993675724216681      -0.991344433667162     
 -0.989197796790494      -0.987228666391166      -0.985428065798340     
 -0.983785293163486      -0.982288053020087      -0.980922636464237     
 -0.979674165551149      -0.978526909434534      -0.977464663685814     
 -0.976471160232602      -0.975530449734451      -0.974627179060302     
 -0.973746685553728      -0.972874859327774      -0.971997785181803     
 -0.971101245718459      -0.970170212588210      -0.969188452021068     
 -0.968138329107011      -0.967000836134684      -0.965755818956258     
 -0.964382346415410      -0.962859161320606      -0.961165161468867     
 -0.959279879864170      -0.957183951613801      -0.954859562418077     
 -0.952290874531179      -0.949464424370309      -0.946369482287853     
 -0.942998360250627      -0.939346658233766      -0.935413462027054     
 -0.931201525918556      -0.926717481797391      -0.921972107883551     
 -0.916980658054324      -0.911763194433926      -0.906344793859719     
 -0.900755442725055      -0.895029431113145      -0.889204135783515     
 -0.883318240246625      -0.877409628172027      -0.871513322758916     
 -0.865659859891674      -0.859874364214382      -0.854176398821433     
 -0.848580463220744      -0.843096882789966      -0.837732805969624     
 -0.832493119341517      -0.827381258424665      -0.822399979192192     
 -0.817552062551031      -0.812840792485017      -0.808270091599701     
 -0.803844375412842      -0.799568293926907      -0.795446501935313     
 -0.791483515913946      -0.787683647782589      -0.784050974981536     
 -0.780589300233620      -0.777302056621185      -0.774192122006591     
 -0.771261530582236      -0.768511111114836      -0.765940115789458     
 -0.763545903818558      -0.761323715909606      -0.759266538094632     
 -0.757365034209321      -0.755607544353104      -0.753980179185444     
 -0.752467062761247      -0.751050792423084      -0.749713185838923     
 -0.748436353735952      -0.747204066968636      -0.746003288167208     
 -0.744825627547121      -0.743668360028954      -0.742534525368407     
 -0.741431679326461      -0.740369272606411      -0.739355285961376     
 -0.738393149957019      -0.737479783550330      -0.736604994783786     
 -0.735751952955940      -0.734898217987653      -0.734016866792948     
 -0.733077438381993      -0.732046608744881      -0.730888654784587     
 -0.729565865484878      -0.728039099089457      -0.726268651541139     
 -0.724215492941428      -0.721842781941713      -0.719117451485974     
 -0.716011630680684      -0.712503741805923      -0.708579270846844     
 -0.704231402383297      -0.699461858452464      -0.694282302532549     
 -0.688716479864472      -0.682802803061587      -0.676596414855861     
 -0.670169180939792      -0.663606121740242      -0.656997901516842     
 -0.650430880340102      -0.643977713132105      -0.637691326713242     
 -0.631603400847798      -0.625726570802407      -0.620058607256783     
 -0.614586863569625      -0.609291748552793      -0.604148757122379     
 -0.599130135616713      -0.594208384206405      -0.589361477722893     
 -0.584576483364281      -0.579849917097169      -0.575186427232496     
 -0.570597521134152      -0.566100701169064      -0.561718581445926     
 -0.557477538540641      -0.553405888641296      -0.549531886454504     
 -0.545881652065261      -0.542476870778642      -0.539332375111568     
 -0.536454270943708      -0.533839398169201      -0.531476209561819     
 -0.529346305252227      -0.527425988848322      -0.525687861089012     
 -0.524102566931785      -0.522640413390727      -0.521272408832889     
 -0.519970615011654      -0.518708265039071      -0.517460390298639     
 -0.516205446017723      -0.514927927246184      -0.513621652869952     
 -0.512293191401750      -0.510964168699875      -0.509670097519498     
 -0.508453978638047      -0.507356242904800      -0.506405526178249     
 -0.505613981233166      -0.504977579601494      -0.504479468878681     
 -0.504094055711062      -0.503790177554418      -0.503532594298392     
 -0.503281774845930      -0.502992510123652      -0.502612192051938     
 -0.502079634163358      -0.501325132200888      -0.500272139052081     
 -0.498840491910845      -0.496950683539247      -0.494528433181093     
 -0.491508944898918      -0.487840654940999      -0.483488746010515     
 -0.478439095248682      -0.472703382734398      -0.466325341112294     
 -0.459386323082031      -0.452006410765455      -0.444337515796510     
 -0.436547647911885      -0.428798304759703      -0.421220099181364     
 -0.413893745608819      -0.406843133332621      -0.400048153920362     
 -0.393482403825466      -0.387167357442972      -0.381216487568237     
 -0.375836907085170      -0.371278238248546      -0.367757543955960     
 -0.365404394485215      -0.364246864743294      -0.364230007650870     
 -0.365249638940957      -0.367193654810927      -0.369999183118422     
 -0.373678261277014       -1.47156482024585       -1.46711360149147     
  -1.46121369703796       -1.45573408924612       -1.45057441894671     
  -1.44568652282027       -1.44105307094959       -1.43666890858916     
  -1.43253386139262       -1.42864957747058       -1.42501799691210     
  -1.42164054494651       -1.41851766141545       -1.41564849378883     
  -1.41303067457681       -1.41066015051081       -1.40853106234412     
  -1.40663568787644       -1.40496444687704       -1.40350594636271     
  -1.40224704738399       -1.40117294660444       -1.40026727092071     
  -1.39951218404691       -1.39888850397138       -1.39837583111602     
  -1.39795268870726       -1.39759667831397       -1.39728465584730     
  -1.39699293677421       -1.39669754087128       -1.39637447981088     
  -1.39600007741017       -1.39555130444250       -1.39500610049367     
  -1.39434364829707       -1.39354458235348       -1.39259113389409     
  -1.39146721329283       -1.39015844641983       -1.38865219199595     
  -1.38693754950707       -1.38500537957950       -1.38284833963071     
  -1.38046091437070       -1.37783943065732       -1.37498205630038     
  -1.37188878593785       -1.36856139296365       -1.36500332253473     
  -1.36121966188834       -1.35721733939898       -1.35300487453661     
  -1.34859234144555       -1.34399122799793       -1.33921428476988     
  -1.33427539332919       -1.32918946853242       -1.32397236898933     
  -1.31864078558404       -1.31321211638201       -1.30770432186493     
  -1.30213574602469       -1.29652490156743       -1.29089026675683     
  -1.28525013655375       -1.27962252961892       -1.27402517898214     
  -1.26847551785765       -1.26299062096876       -1.25758712885521     
  -1.25228106756143       -1.24708772673111       -1.24202168067598     
  -1.23709678080035       -1.23232589819167       -1.22772092801351     
  -1.22329268229226       -1.21905079319412       -1.21500363735122     
  -1.21115822282979       -1.20752007548497       -1.20409313948053     
  -1.20087971192454       -1.19788039518178       -1.19509405698843     
  -1.19251782441426       -1.19014711466455       -1.18797566947353     
  -1.18599561981054       -1.18419755944347       -1.18257057853687     
  -1.18110227965625       -1.17977883534671       -1.17858501794003     
  -1.17750421138034       -1.17651852201921       -1.17560891482321     
  -1.17475525455136       -1.17393714610127       -1.17313323482335     
  -1.17232166990265       -1.17148042987599       -1.17058745207737     
  -1.16962042415689       -1.16855673610062       -1.16737822813212     
  -1.16606451224019       -1.16459706770269       -1.16296032562378     
  -1.16113859155068       -1.15911955840659       -1.15689323088149     
  -1.15445170614497       -1.15179069433210       -1.14890827517610     
  -1.14580466233120       -1.14248230273519       -1.13894588786035     
  -1.13520227213010       -1.13126037462081       -1.12713105386582     
  -1.12282695749679       -1.11836242866959       -1.11375328642534     
  -1.10901668762102       -1.10417092669513       -1.09923539185765     
  -1.09423046285394       -1.08917700645411       -1.08409530609389     
  -1.07900402201057       -1.07392015703601       -1.06885945015596     
  -1.06383653461747       -1.05886479000235       -1.05395627261402     
  -1.04912190188600       -1.04437014741571       -1.03970378834727     
  -1.03512008265864       -1.03067196486782       -1.02612114114227     
  -1.02184724521539       -1.01767894484903       -1.01362427736944     
  -1.00968893084316       -1.00587626730847       -1.00218826236161     
 -0.998626111591965      -0.995190549363494      -0.991882079883991     
 -0.988701301118805      -0.985649318953632      -0.982727899867097     
 -0.979938847571993      -0.977282981376928      -0.974759722271809     
 -0.972367245867547      -0.970102692122393      -0.967962292713166     
 -0.965941431710925      -0.964034656781978      -0.962235662634962     
 -0.960537269190995      -0.958931416056328      -0.957409188861697     
 -0.955960875666317      -0.954576033301044      -0.953243528325220     
 -0.951951498013403      -0.950687164055917      -0.949436456577546     
 -0.948183495592492      -0.946910100288057      -0.945595553420309     
 -0.944216778194514      -0.942748937686240      -0.941166340398415     
 -0.939443484101532      -0.937556082071191      -0.935481958276010     
 -0.933201747742685      -0.930699384474135      -0.927962395728758     
 -0.924982041344366      -0.921753343278302      -0.918275051299711     
 -0.914549589554618      -0.910583027067730      -0.906385113298828     
 -0.901969405513259      -0.897353471868870      -0.892559089721486     
 -0.887612294357412      -0.882543099585623      -0.877384743116119     
 -0.872172422673579      -0.866941656245589      -0.861726549010436     
 -0.856558301749330      -0.851464219346139      -0.846467313260598     
 -0.841586419084414      -0.836836633884465      -0.832229845015047     
 -0.827775165602808      -0.823479182647041      -0.819346023321670     
 -0.815377301918275      -0.811572058341613      -0.807926722893029     
 -0.804435140346484      -0.801088708094126      -0.797876650061737     
 -0.794786444622429      -0.791804366627939      -0.788916113518689     
 -0.786107536376562      -0.783365513435220      -0.780678941647876     
 -0.778039696929448      -0.775443309475249      -0.772889122575799     
 -0.770379854615915      -0.767920668610183      -0.765517985881049     
 -0.763178304556510      -0.760907210289430      -0.758708661551998     
 -0.756584544871633      -0.754534456486354      -0.752555662819664     
 -0.750643194257318      -0.748790059630109      -0.746987643584790     
 -0.745226394257129      -0.743496862789292      -0.741791033261437     
 -0.740103718774959      -0.738433635652825      -0.736783665292440     
 -0.735159881562613      -0.733569243812307      -0.732016340000863     
 -0.730499973173350      -0.729010496202528      -0.727528553223708     
 -0.726025425316983      -0.724464733426327      -0.722804987619797     
 -0.721002426397534      -0.719013702274400      -0.716798156161800     
 -0.714319611022217      -0.711547745354720      -0.708459141551719     
 -0.705038041396740      -0.701276747548256      -0.697175602531585     
 -0.692742611692017      -0.687992979586673      -0.682948955252638     
 -0.677640315388062      -0.672105495372292      -0.666392821057371     
 -0.660560707839802      -0.654675555473825      -0.648806850075581     
 -0.643020523649251      -0.637372867559068      -0.631907178082961     
 -0.626653902253701      -0.621633461403818      -0.616860116470215     
 -0.612345309031766      -0.608099441415906      -0.604131676905526     
 -0.600447914815119      -0.597047583998421      -0.593920229636269     
 -0.591042862681208      -0.588378981099828      -0.585879629000609     
 -0.583487181570797      -0.581141330726723      -0.578785269796839     
 -0.576370476423111      -0.573860585675569      -0.571234967241216     
 -0.568490874409930      -0.565642507942835      -0.562717112304269     
 -0.559750100823494      -0.556780960629236      -0.553849827084052     
 -0.550993589507983      -0.548241553650660      -0.545612375276442     
 -0.543113603615275      -0.540743251279874      -0.538492074675662     
 -0.536345999581397      -0.534288549514207      -0.532302868734073     
 -0.530372838135250      -0.528483234476979      -0.526619678093297     
 -0.524769392356910      -0.522923144022200      -0.521077915828350     
 -0.519239444928431      -0.517423582449310      -0.515655222899590     
 -0.513963799631194      -0.512375829284703      -0.510906871054071     
 -0.509555737192927      -0.508302449039914      -0.507109562415134     
 -0.505925420348277      -0.504687777487518      -0.503326709833683     
 -0.501766603486714      -0.499927876354480      -0.497729340612511     
 -0.495091819151647      -0.491943362342113      -0.488226342836248     
 -0.483905951762785      -0.478977363732572      -0.473467109801780     
 -0.467426657674068      -0.460921737107969      -0.454023691339381     
 -0.446806532660682      -0.439348755825941      -0.431736080070980     
 -0.424060762117611      -0.416414367972580      -0.408874463217562     
 -0.401490752239484      -0.394277278603508      -0.387214656044921     