 Title = "Wing and Wake"
 VARIABLES = "X" "Y" "Z" "GAM"
 Zone I=    9 J=   15 K=1  T="Blade"
 DATAPACKING=BLOCK
 VARLOCATION=([4]=CELLCENTERED)
  -1.27911750797282       -1.27946337906413       -1.28037877608691     
  -1.28088533046666       -1.28023218703841       -1.27853970379161     
  -1.27683890061683       -1.27570492300396       -1.27509516976418     
  -1.27657844862879       -1.27697733074935       -1.27803250844181     
  -1.27876126339045       -1.27838088238429       -1.27693744399904     
  -1.27541006224496       -1.27437455839893       -1.27381406240212     
  -1.27368843744975       -1.27408317766259       -1.27512694306027     
  -1.27599704753300       -1.27600448329540       -1.27509987830656     
  -1.27403568788074       -1.27329142912136       -1.27288393027063     
  -1.27073559442221       -1.27110503462886       -1.27208120508975     
  -1.27305214784476       -1.27346363734599       -1.27316875181131     
  -1.27264400300856       -1.27224304182034       -1.27201660659208     
  -1.26787246535163       -1.26831008995333       -1.26946597141259     
  -1.27074469774063       -1.27156412349010       -1.27166781004202     
  -1.27143295180897       -1.27120058389422       -1.27105956895657     
  -1.26519523179460       -1.26567580190339       -1.26694460325730     
  -1.26844288322959       -1.26958556343080       -1.27003074978978     
  -1.27005595394204       -1.26997830054218       -1.26991663580751     
  -1.26267408861437       -1.26317861813216       -1.26451067488483     
  -1.26615994022286       -1.26755588998111       -1.26829082128927     
  -1.26854562668497       -1.26860728535158       -1.26861763567721     
  -1.26029168369719       -1.26080644269101       -1.26216529993588     
  -1.26391144601150       -1.26549955613738       -1.26647297528456     
  -1.26692384952126       -1.26710657364865       -1.26717987388831     
  -1.25805129187398       -1.25856476037753       -1.25992013336119     
  -1.26171431662641       -1.26343331481931       -1.26458808690527     
  -1.26519480252449       -1.26547538045456       -1.26560009900543     
  -1.25593471008954       -1.25643764298985       -1.25776471401431     
  -1.25956554082264       -1.26136204698417       -1.26264736887056     
  -1.26337339689146       -1.26373093100148       -1.26389653747934     
  -1.25392607393301       -1.25441032160886       -1.25568815295749     
  -1.25746008789605       -1.25928796735653       -1.26065922287907     
  -1.26147227518200       -1.26188806862832       -1.26208500692978     
  -1.25202294854062       -1.25248104149950       -1.25368971197539     
  -1.25539887924260       -1.25721280387362       -1.25862577784178     
  -1.25949379158671       -1.25994913283238       -1.26016796561609     
  -1.25019851626073       -1.25062488184146       -1.25174968844656     
  -1.25337072946332       -1.25513719472924       -1.25655881296769     
  -1.25745778983290       -1.25793863641753       -1.25817223118989     
  -1.24852991706968       -1.24891414089720       -1.24992761856387     
  -1.25141199739457       -1.25306459848943       -1.25442847118940     
  -1.25530927224167       -1.25578698493775       -1.25602068707041     
  -1.24699678123373       -1.24733029617883       -1.24821024456697     
  -1.24951689078262       -1.25099804346273       -1.25224551323266     
  -1.25306431599669       -1.25351299048086       -1.25373365620027     
  0.313061980838608       0.312733812511088       0.311868467346460     
  0.310528603434980       0.308931164153564       0.307512567205092     
  0.306543624139051       0.305999777909148       0.305728863753620     
  0.298975758179865       0.298573576693329       0.297513280047005     
  0.295804855229080       0.293675848240906       0.291703623286433     
  0.290316628999205       0.289524989175463       0.289127356556832     
  0.284685717080936       0.284231343320528       0.283033691384644     
  0.281039645545027       0.278469432571963       0.276016293093959     
  0.274257180890793       0.273242304519502       0.272729855738758     
  0.270219133820800       0.269722383764636       0.268413164857999     
  0.266183809159773       0.263246711178964       0.260391321810394     
  0.258320047822416       0.257117641806539       0.256508709143362     
  0.255416378961792       0.254887068587981       0.253492105231413     
  0.251102513096039       0.247936398427260       0.244844057503394     
  0.242594488414698       0.241286569184608       0.240623734146842     
  0.240347498229260       0.239803686201373       0.238370656002853     
  0.235904519759403       0.232622904888222       0.229406547460387     
  0.227061725761775       0.225696962783862       0.225004885023845     
  0.225080716005021       0.224535706906630       0.223099461718764     
  0.220618550205122       0.217305811500899       0.214049813938452     
  0.211672055700039       0.210286839917555       0.209584125331077     
  0.209684385187269       0.209146490107862       0.207729124431906     
  0.205273214590741       0.201984383094536       0.198744392074798     
  0.196375081733923       0.194993730779060       0.194292726293299     
  0.194206927191521       0.193681105423174       0.192295547620547     
  0.189888717669949       0.186658098002140       0.183469615215985     
  0.181135361939802       0.179773677143179       0.179082454433519     
  0.178660919722271       0.178151309708717       0.176808470221990     
  0.174471070360489       0.171327768435268       0.168220857453298     
  0.165944234571265       0.164615554718473       0.163940919985764     
  0.163047132497394       0.162557906884381       0.161268867166201     
  0.159021213390306       0.155993924697703       0.152997965050227     
  0.150801032861590       0.149518354718075       0.148866977355112     
  0.147361863062562       0.146897570717997       0.145674130463306     
  0.143537872648094       0.140656934374819       0.137802878884810     
  0.135708757951256       0.134485693918723       0.133864516934415     
  0.131597450166563       0.131163221392598       0.130019027205114     
  0.128018551386804       0.125317618314961       0.122639463784664     
  0.120673292586728       0.119524686339396       0.118941199974883     
  0.115740409578972       0.115342127122070       0.114292706716303     
  0.112456263758730       0.109974702406816       0.107512499395015     
  0.105704170493223       0.104647499260419       0.104110698645469     
  9.979260548212232E-002  9.943618629076317E-002  9.849696477517617E-002
  9.685236091599497E-002  9.462875115617647E-002  9.242142155518185E-002
  9.079986985365940E-002  8.985220044053449E-002  8.937077288678702E-002
  3.594251361910481E-002  3.510890040123657E-002  3.291197767006296E-002
  2.917884838632793E-002  2.427052361973835E-002  1.950681009591116E-002
  1.605476836594523E-002  1.405193426853829E-002  1.303790223900916E-002
  4.463859596208283E-002  4.360787718094711E-002  4.089183045286340E-002
  3.616197556224277E-002  2.979872819832123E-002  2.350695959109086E-002
  1.889573809624636E-002  1.620424551882310E-002  1.483764165955775E-002
  5.261070588643128E-002  5.142587957417395E-002  4.830407911048419E-002
  4.279057123926162E-002  3.527847763544236E-002  2.777672834573537E-002
  2.224609470714811E-002  1.900790667213956E-002  1.736128921997668E-002
  6.004408328518591E-002  5.872614852374528E-002  5.525354551508207E-002
  4.908873977708116E-002  4.065100970724018E-002  3.219508015009998E-002
  2.594808720543309E-002  2.228654926782680E-002  2.042373358474776E-002
  6.652721389387214E-002  6.513889622267173E-002  6.148100266818479E-002
  5.495972098936203E-002  4.600086757135932E-002  3.699720638995455E-002
  3.033442498384857E-002  2.642574997948267E-002  2.443642473959148E-002
  7.229990493617328E-002  7.088481815124970E-002  6.715672407726972E-002
  6.049155338977903E-002  5.131265497030680E-002  4.207068955367573E-002
  3.522406311488021E-002  3.120549958874107E-002  2.915955546081777E-002
  7.755047183246112E-002  7.614060555924526E-002  7.242613456756979E-002
  6.577271805901876E-002  5.659500221955215E-002  4.734259533995643E-002
  4.048323691952057E-002  3.645557883885096E-002  3.440474604929741E-002
  8.247307172387813E-002  8.108772867544936E-002  7.743821226519861E-002
  7.089315746140354E-002  6.185528227596039E-002  5.273647787100089E-002
  4.597318267255492E-002  4.200088881600911E-002  3.997796792140758E-002
  8.721016015437229E-002  8.585964740589946E-002  8.230186282828177E-002
  7.591779213164067E-002  6.709775630661244E-002  5.819555897326392E-002
  5.159148539932354E-002  4.771230741425918E-002  4.573670125443964E-002
  9.179157535666410E-002  9.048462796220910E-002  8.704144231386900E-002
  8.086278966916968E-002  7.232626443764502E-002  6.371008334573969E-002
  5.731793593459019E-002  5.356326770837478E-002  5.165104353691390E-002
  9.621441595145634E-002  9.496026769147770E-002  9.165646026678953E-002
  8.572969184148216E-002  7.754378555692280E-002  6.928328175070138E-002
  6.315580858786951E-002  5.955684502593222E-002  5.772402470565227E-002
  0.100466659323787       9.927589152534619E-002  9.613871160160663E-002
  9.051479761225473E-002  8.275171218514739E-002  7.492129265135246E-002
  6.911442381743842E-002  6.570415447729762E-002  6.396760309684718E-002
  0.104516144646710       0.103401729027014       0.100465725150577     
  9.520673582920294E-002  8.795267660586327E-002  8.063970332914666E-002
  7.521820414938027E-002  7.203491799343255E-002  7.041393953745144E-002
  0.108351212178466       0.107326558214979       0.104627133918738     
  9.979800362949026E-002  9.314390123713351E-002  8.644131030325335E-002
  8.147469566858734E-002  7.855906887049464E-002  7.707462949046530E-002
  0.111970520736333       0.111049810249031       0.108623985270005     
  0.104291065599217       9.832876108718155E-002  9.232900295158193E-002
  8.788592278542399E-002  8.527842694253503E-002  8.395114269612451E-002
 -2.397793268405644E-003  2.589460890945759E-002  0.162757566370152     
  0.387295870206333       0.607238763018716       0.747546791226777     
  0.809886111258675       0.827585518464323       1.048632825311027E-002
  5.683690407438531E-002  0.229432990828852       0.499968013701638     
  0.758673517268428       0.915643825774055       0.981837224010511     
   1.00060259196441       2.016827960286470E-002  7.517582076529591E-002
  0.253399217723569       0.523484029208275       0.777889755792599     
  0.929794119835493       0.992680030053457        1.01056447440927     
  1.776541917998246E-002  6.940530265605929E-002  0.245508733753821     
  0.516056977405914       0.772018422935208       0.923796046241943     
  0.985852314582420        1.00343342924141       3.110924475728652E-003
  4.212051831079772E-002  0.218081590164093       0.498336559633750     
  0.766462807525301       0.926784952575343       0.993255286809895     
   1.01238413355742      -9.539140697713206E-003  1.788178051124316E-002
  0.190786625586621       0.475946991722179       0.752082005197923     
  0.918105926545770       0.987259700432108        1.00726689233164     
 -2.021508733192545E-002 -3.139505982764916E-003  0.164254735942521     
  0.448872886228494       0.727178925586949       0.895028130799529     
  0.965020406161583       0.985316404830522      -2.865097328697233E-002
 -2.025045182730026E-002  0.140118106810414       0.419865978961590     
  0.695381135605782       0.861777991496318       0.931146808684273     
  0.951275512394510      -3.406976253915130E-002 -3.188325529102187E-002
  0.120819615014019       0.392333354853691       0.661102286259400     
  0.823624185094503       0.891408733682587       0.911090827552062     
 -3.630129468467907E-002 -3.769707948865553E-002  0.107044264471694     
  0.367372769766683       0.625888017645708       0.782398889677241     
  0.847719612606652       0.866710933625139      -3.545968994909154E-002
 -3.792152505657214E-002  9.849829893934289E-002  0.344797749834316     
  0.589743962533283       0.738267568233130       0.800361174522428     
  0.818449431302570      -3.242562610611550E-002 -3.432239278782277E-002
  9.256807901341822E-002  0.321451388475799       0.549539813702308     
  0.688473177099103       0.746868274823193       0.763942625508465     
 -2.809337945922464E-002 -2.895846039673584E-002  8.560027112503077E-002
  0.291489502570632       0.497854057415689       0.625646123715118     
  0.680476940207085       0.696738629020982      -2.564545457589050E-002
 -2.960767591485054E-002  6.185077951477876E-002  0.225537493616770     
  0.391102780415868       0.500372442396899       0.551965317020562     
  0.568215509264153     
 Zone I=  361 J=   15 K=1  T="NearWake"
 DATAPACKING=BLOCK
 VARLOCATION=([4]=CELLCENTERED)
  -1.27529495298517       -1.27549304736928       -1.27473124847196     
  -1.27409075732042       -1.27350044142267       -1.27291747351161     
  -1.27231051893236       -1.27165270901985       -1.27092113930039     
  -1.27009598704863       -1.26915882870026       -1.26809367510390     
  -1.26688629564543       -1.26552410970806       -1.26399635664069     
  -1.26229370609409       -1.26040837084662       -1.25833421762303     
  -1.25606681774579       -1.25360343901774       -1.25094300491066     
  -1.24808602094451       -1.24503447335539       -1.24179171585639     
  -1.23836230891827       -1.23475190147723       -1.23096709221920     
  -1.22701535660514       -1.22290506105820       -1.21864555227250     
  -1.21424726425279       -1.20972169981783       -1.20508138760619     
  -1.20033990097917       -1.19551188118617       -1.19061292635844     
  -1.18565940502222       -1.18066841226209       -1.17565754454593     
  -1.17064437739276       -1.16564596496729       -1.16069877030989     
  -1.15571935387264       -1.15086705636324       -1.14609574995557     
  -1.14142235756236       -1.13686217753722       -1.13242917037763     
  -1.12813630433162       -1.12399552504167       -1.12001763222200     
  -1.11621214642812       -1.11258720661057       -1.10914956019523     
  -1.10590462336495       -1.10285642185321       -1.10000736045026     
  -1.09735803520842       -1.09490719805929       -1.09265180142853     
  -1.09058705573718       -1.08870648549619       -1.08700198771462     
  -1.08546389654219       -1.08408105605614       -1.08284090248709     
  -1.08172955729031       -1.08073193164213       -1.07983184172974     
  -1.07901213456798       -1.07825482518241       -1.07754124574340     
  -1.07685220587242       -1.07616816257157       -1.07546939902493     
  -1.07473621235835       -1.07394910961883       -1.07308900917084     
  -1.07213744299838       -1.07107675534174       -1.06989029364497     
  -1.06856258720468       -1.06707950799840       -1.06542840933636     
  -1.06359823967892       -1.06157962944439       -1.05936494977615     
  -1.05694834435792       -1.05432573703838       -1.05149481778098     
  -1.04845500982181       -1.04520742406005       -1.04175480764490     
  -1.03810149162522       -1.03425334006615       -1.03021770079514     
  -1.02600335563399       -1.02162046566152       -1.01708050552641     
  -1.01239618000396       -1.00758131624891       -1.00265072708965     
 -0.997620043828874      -0.992505521209021      -0.987323821764509     
 -0.982091790528586      -0.976826233926384      -0.971543718562023     
 -0.966260403874696      -0.960991917540735      -0.955753277046140     
 -0.950558857173599      -0.945422397300284      -0.940357037902457     
 -0.935375374577707      -0.930489517885705      -0.925711148326680     
 -0.921051556452029      -0.916521657703874      -0.912131972453896     
 -0.907892566442307      -0.903812954376050      -0.899901974675013     
 -0.896167642082467      -0.892616979542118      -0.889255830899168     
 -0.886088667838341      -0.883118414784162      -0.880346309872374     
 -0.877771807627724      -0.875392522672944      -0.873204214307660     
 -0.871200810724467      -0.869374463472026      -0.867715616792086     
 -0.866213083829663      -0.864854137350434      -0.863624633021331     
 -0.862509181722527      -0.861491374618736      -0.860554045532647     
 -0.859679538319053      -0.858849943770972      -0.858047282889138     
 -0.857253626320501      -0.856451143713437      -0.855622082218537     
 -0.854748690716310      -0.853813128048934      -0.852797403683255     
 -0.851683391062783      -0.850452933598705      -0.849088040293525     
 -0.847571149491008      -0.845885430789548      -0.844015098204169     
 -0.841945717101268      -0.839664495303630      -0.837160550572626     
 -0.834425145225290      -0.831451881098028      -0.828236855179265     
 -0.824778782209069      -0.821079094115595      -0.817142026745012     
 -0.812974700980260      -0.808587199105458      -0.803992628067661     
 -0.799207145202223      -0.794249899033916      -0.789142821982213     
 -0.783910215964493      -0.778578099564098      -0.773173334927552     
 -0.767722613928875      -0.762251433539153      -0.756783206763014     
 -0.751338630236188      -0.745935372115995      -0.740588074040808     
 -0.735308603797204      -0.730106468023566      -0.724989300848271     
 -0.719963378219668      -0.715034133447202      -0.710206643371415     
 -0.705486030978496      -0.700877736750475      -0.696387651276663     
 -0.692022118657972      -0.687787795458586      -0.683691362661318     
 -0.679739193568516      -0.675937154012843      -0.672290615608339     
 -0.668804559959706      -0.665483558440351      -0.662331550611340     
 -0.659351539554117      -0.656545323529822      -0.653913264410579     
 -0.651454078927322      -0.649164707834062      -0.647040317629842     
 -0.645074411470685      -0.643258972668778      -0.641584577348646     
 -0.640040482700188      -0.638614770740192      -0.637294638761173     
 -0.636066887844173      -0.634918571715326      -0.633837646355723     
 -0.632813396270865      -0.631836458764096      -0.630898386273080     
 -0.629990812555079      -0.629104407873206      -0.628227915687128     
 -0.627347549141356      -0.626446842089082      -0.625506831357367     
 -0.624506340587508      -0.623422186171101      -0.622229282508673     
 -0.620900765697831      -0.619408276201628      -0.617722448726273     
 -0.615813558227398      -0.613652248632437      -0.611210312482253     
 -0.608461538687380      -0.605382675066823      -0.601954564073725     
 -0.598163503059419      -0.594002863562499      -0.589474991644321     
 -0.584593315587229      -0.579384253324477      -0.573888014685429     
 -0.568157170426766      -0.562252509785691      -0.556237249009775     
 -0.550171835958634      -0.544111238209551      -0.538105113907353     
 -0.532200065851516      -0.526443325527512      -0.520887930018259     
 -0.515598555734554      -0.510655361914274      -0.506152980287207     
 -0.502193011605093      -0.498870421511445      -0.496257026957371     
 -0.494387463133259      -0.493252857728861      -0.492804599389851     
 -0.492966903521166      -0.493655468729787      -0.494800114509278     
 -0.496366131207938      -0.498360398244912      -0.500793857024565     
 -0.503571772041285      -0.506349875709590      -0.508497921792007     
 -0.509268165613961      -0.508088867865130      -0.504765681080855     
 -0.499443307188750      -0.492394863705939      -0.484001862525357     
 -0.474852052490782      -0.465592082214358      -0.456717171329836     
 -0.448513997562027      -0.441090366651071      -0.434429796603330     
 -0.428456278570959      -0.423083258274864      -0.418235341067805     
 -0.413850444396744      -0.409874947508170      -0.406260387460138     
 -0.402964694749748      -0.399956276681054      -0.397217117218133     
 -0.394742077991944      -0.392533905753698      -0.390595567258149     
 -0.388923287190224      -0.387503454422303      -0.386313475713753     
 -0.385323914040672      -0.384499645872639      -0.383799930454375     
 -0.383178601745116      -0.382585513448960      -0.381969679172162     
 -0.381283818429064      -0.380489351549973      -0.379560350302161     
 -0.378485191000564      -0.377265860743479      -0.375915849113904     
 -0.374457607575690      -0.372920097496696      -0.371336141361347     
 -0.369738477336177      -0.368153794528378      -0.366595926322932     
 -0.365061122190360      -0.363527844384940      -0.361959788666004     
 -0.360305059938661      -0.358483251706503      -0.356362909787755     
 -0.353745039305214      -0.350367951471268      -0.345947620488387     
 -0.340294186334777      -0.333544806030842      -0.326236018511745     
 -0.319185253627568      -0.313156512718970      -0.307966972036025     
 -0.302802959156177      -0.297481623417637      -0.292708839583939     
 -0.289520622677812      -0.288801872451916      -0.291119143780828     
 -0.296474666946086      -0.303963967291605      -0.311956751438383     
 -0.318954993585474      -0.324208190982895      -0.327399900645506     
 -0.328184060919508      -0.326334724247199      -0.321810423949899     
 -0.314764268728561      -0.305702737322799      -0.295501744874816     
 -0.285055074605651      -0.274419107087431      -0.262854884814004     
 -0.249789670866696      -0.236178188100803      -0.224503965733608     
 -0.216364040532249      -0.212339649474876      -0.212392992746702     
 -0.214991264621762      -0.217819769016665      -0.219702481832918     
 -0.221660525682928      -0.225309756486198      -0.231739623463193     
 -0.242213462022586       -1.27401384562310       -1.27470958600992     
  -1.27367509447551       -1.27296811781576       -1.27241447326709     
  -1.27191589675093       -1.27141098106842       -1.27085562867234     
  -1.27021535562752       -1.26946179363042       -1.26857045493234     
  -1.26752017717994       -1.26629274993448       -1.26487264035365     
  -1.26324672462368       -1.26140404546881       -1.25933572367048     
  -1.25703494902095       -1.25449700667140       -1.25171928860410     
  -1.24870126367546       -1.24544439552047       -1.24195203103687     
  -1.23822925577030       -1.23428269358116       -1.23012036779427     
  -1.22575157687194       -1.22118681035161       -1.21643778952625     
  -1.21151754997580       -1.20644035841199       -1.20122161425578     
  -1.19587794106275       -1.19042712476067       -1.18488785956109     
  -1.17927948469536       -1.17362173175471       -1.16793472925242     
  -1.16223903083557       -1.15655512850524       -1.15090610959465     
  -1.14536315101083       -1.13978692660234       -1.13438609855868     
  -1.12908379181916       -1.12390423624350       -1.11886519579833     
  -1.11398165705078       -1.10926717459162       -1.10473404098073     
  -1.10039321194959       -1.09625418655432       -1.09232488170079     
  -1.08861152517625       -1.08511866810419       -1.08184934846720     
  -1.07880505405967       -1.07598541976082       -1.07338807995618     
  -1.07100872839370       -1.06884121332761       -1.06687761060654     
  -1.06510828262235       -1.06352193329921       -1.06210566357488     
  -1.06084503285827       -1.05972413415081       -1.05872568789957     
  -1.05783115669843       -1.05702088322667       -1.05627425422024     
  -1.05556989157147       -1.05488586719044       -1.05419993473386     
  -1.05348977308599       -1.05273323832413       -1.05190861909490     
  -1.05099488883546       -1.04997195041938       -1.04882087231144     
  -1.04752411557679       -1.04606574768689       -1.04443163477373     
  -1.04260960240019       -1.04058955737462       -1.03836356657653     
  -1.03592589195061       -1.03327298404585       -1.03040343888850     
  -1.02731792409856       -1.02401908219220       -1.02051142120846     
  -1.01680120138383       -1.01289632336997       -1.00880622010914     
  -1.00454175093039       -1.00011509329068      -0.995539625389280     
 -0.990829791998618      -0.986000946613921      -0.981069166203450     
 -0.976051039537597      -0.970963435216128      -0.965823260837479     
 -0.960647228220146      -0.955451640080006      -0.950252211703701     
 -0.945063937622610      -0.939901008346049      -0.934776773851771     
 -0.929703747708845      -0.924693647261053      -0.919757436514317     
 -0.914905382206745      -0.910147097307074      -0.905491573158872     
 -0.900947198852020      -0.896521767320118      -0.892222467732972     
 -0.888055869871852      -0.884027915033626      -0.880143924163967     
 -0.876408614912922      -0.872826104826345      -0.869399878222273     
 -0.866132707624333      -0.863026546404527      -0.860082426116826     
 -0.857300384571309      -0.854679428767883      -0.852217518082644     
 -0.849911557849894      -0.847757404322625      -0.845749867389089     
 -0.843882682685717      -0.842148444506450      -0.840538520761783     
 -0.839042980678411      -0.837650563976276      -0.836348713229123     
 -0.835123667484307      -0.833960578400746      -0.832843599206608     
 -0.831755930411064      -0.830679835720910      -0.829596637162285     
 -0.828486697876505      -0.827329433592014      -0.826103430594749     
 -0.824786740829094      -0.823357367992710      -0.821793891671317     
 -0.820076135181418      -0.818185779174219      -0.816106851642981     
 -0.813826069778608      -0.811333051335416      -0.808620432218486     
 -0.805683918901436      -0.802522291821635      -0.799137378201543     
 -0.795534020841877      -0.791720063589734      -0.787706354331159     
 -0.783506744913211      -0.779138049495107      -0.774619911445854     
 -0.769974529356868      -0.765226204663278      -0.760400695624187     
 -0.755524403171947      -0.750623468562489      -0.745722900064690     
 -0.740845841982544      -0.736013062358908      -0.731242682730872     
 -0.726550117055580      -0.721948149642638      -0.717447082010938     
 -0.713054904849790      -0.708777481905870      -0.704618712353134     
 -0.700580705673435      -0.696663824721188      -0.692866687542955     
 -0.689186118943544      -0.685617152098454      -0.682153191728587     
 -0.678786417129159      -0.675508377762155      -0.672310572975647     
 -0.669184781211394      -0.666123153443658      -0.663118429013101     
 -0.660164609246519      -0.657257880613838      -0.654397135869585     
 -0.651583724010259      -0.648820725891491      -0.646112223276814     
 -0.643462670507913      -0.640876333443019      -0.638356903361930     
 -0.635907373077818      -0.633530096186792      -0.631226850077659     
 -0.628998771547839      -0.626846283750849      -0.624769244295492     
 -0.622767309273612      -0.620840279302250      -0.618988154376832     
 -0.617210698086591      -0.615506416490185      -0.613871045920813     
 -0.612295968512252      -0.610767108760443      -0.609264670119873     
 -0.607763761362527      -0.606235672458376      -0.604649389717256     
 -0.602972886271961      -0.601173828264350      -0.599219735444816     
 -0.597078076358348      -0.594716799657128      -0.592105419203400     
 -0.589216380761859      -0.586026321972018      -0.582516983921869     
 -0.578675775017648      -0.574496203922370      -0.569978541284112     
 -0.565131052402324      -0.559971774080053      -0.554530031131771     
 -0.548846289826750      -0.542969435413706      -0.536952077355153     
 -0.530845785364333      -0.524698013480254      -0.518551146618135     
 -0.512442927055825      -0.506407578936991      -0.500478393525770     
 -0.494692923842488      -0.489099944107642      -0.483765234643760     
 -0.478773759575132      -0.474227832549461      -0.470241989238102     
 -0.466935235918266      -0.464420428880614      -0.462790025926607     
 -0.462098764837736      -0.462347307504829      -0.463474494672216     
 -0.465365808833075      -0.467877017544700      -0.470857102519089     
 -0.474150851374046      -0.477589600444189      -0.481033709469817     
 -0.484472549881917      -0.488045380993957      -0.491903987132426     
 -0.495826206312438      -0.498911634314625      -0.499803189320453     
 -0.497634492177922      -0.492750404894278      -0.485790386227034     
 -0.477331923632216      -0.468261884055078      -0.459457161338622     
 -0.451470567846381      -0.444520383018385      -0.438602264102810     
 -0.433613574510538      -0.429430713495802      -0.425922537984140     
 -0.422940263180161      -0.420324056029015      -0.417929125003456     
 -0.415653434420229      -0.413453670671567      -0.411344636586791     
 -0.409383376816871      -0.407643036984913      -0.406184159296873     
 -0.405032961027146      -0.404174154045499      -0.403558486618288     
 -0.403118407131144      -0.402784517690915      -0.402498677847165     
 -0.402222746824923      -0.401943445100266      -0.401673869691420     
 -0.401451698388333      -0.401333923174804      -0.401388155140973     
 -0.401680810170960      -0.402263262974126      -0.403158625833159     
 -0.404353026538222      -0.405794758808966      -0.407401986984748     
 -0.409076101115197      -0.410715933239200      -0.412230263144551     
 -0.413551432753140      -0.414639256521320      -0.415453513793788     
 -0.415922739094119      -0.415973759814810      -0.415510310841515     
 -0.414347370723974      -0.412143651517806      -0.408166885088737     
 -0.401516078571420      -0.391353981811385      -0.377093655732591     
 -0.360415605647392      -0.346612358200934      -0.341641160508541     
 -0.344918666892499      -0.352073536462292      -0.360223269351702     
 -0.367979474715837      -0.373907136503277      -0.376609626667579     
 -0.375051729171824      -0.368627355028754      -0.358043239709080     
 -0.345779723343320      -0.334411304562240      -0.326039761749584     
 -0.321360195172770      -0.319906111562742      -0.320024215414106     
 -0.319267128636089      -0.315518474059979      -0.308606410935416     