 Title = "Wing and Wake"
 VARIABLES = "X" "Y" "Z" "GAM"
 Zone I=    9 J=   15 K=1  T="Blade"
 DATAPACKING=BLOCK
 VARLOCATION=([4]=CELLCENTERED)
 -0.683805160561892      -0.684094045821166      -0.684859177233051     
 -0.685133066686249      -0.684202530837847      -0.682263710816105     
 -0.680394652443643      -0.679166236924023      -0.678509439934829     
 -0.686984354322966      -0.687313398361296      -0.688184457473331     
 -0.688616547565659      -0.687866468375764      -0.686080556721215     
 -0.684312325936729      -0.683139355277938      -0.682509811101519     
 -0.689777153548310      -0.690092992585677      -0.690928787907205     
 -0.691452629953707      -0.691013752917115      -0.689683164728355     
 -0.688313507674149      -0.687393017482331      -0.686896532834678     
 -0.692476514700584      -0.692759695165215      -0.693508522148810     
 -0.694092341349449      -0.693993809138675      -0.693203090443614     
 -0.692318668687402      -0.691708911885715      -0.691376736610169     
 -0.695207214224286      -0.695552925044147      -0.696466573658633     
 -0.697330351666992      -0.697599987373944      -0.697166694559717     
 -0.696541202753869      -0.696081717048283      -0.695825602014231     
 -0.698077596988570      -0.698463735129721      -0.699483693401119     
 -0.700553733308849      -0.701126567067879      -0.701013238820788     
 -0.700631268958133      -0.700316626954212      -0.700134784177711     
 -0.701069654896260      -0.701479544577303      -0.702562199970416     
 -0.703780659545145      -0.704601358264321      -0.704770891529279     
 -0.704612803539949      -0.704433922010252      -0.704322247228524     
 -0.704178005189822      -0.704599359683330      -0.705712093961479     
 -0.707031775768661      -0.708048786298571      -0.708459586909523     
 -0.708499034723200      -0.708441889774559      -0.708393461862727     
 -0.707414280990729      -0.707836441502432      -0.708951214898615     
 -0.710327456528961      -0.711485463503811      -0.712086561364433     
 -0.712287938156026      -0.712332062002601      -0.712336750989585     
 -0.710762413339263      -0.711176853389397      -0.712270742784086     
 -0.713665684365986      -0.714916361876349      -0.715662174332544     
 -0.715992870938741      -0.716119682213626      -0.716168139599554     
 -0.714206771484653      -0.714606066024335      -0.715660057974958     
 -0.717041691931312      -0.718343888227046      -0.719194900816442     
 -0.719626459848357      -0.719819518572521      -0.719903346381931     
 -0.717744227638688      -0.718121697078026      -0.719117919383205     
 -0.720456129373780      -0.721769784323672      -0.722687156757038     
 -0.723191530218038      -0.723434488623289      -0.723545455155661     
 -0.721346633787413      -0.721697596332857      -0.722623715702405     
 -0.723897377738852      -0.725194830898845      -0.726151392483592     
 -0.726708947303308      -0.726990340506229      -0.727122613934699     
 -0.725088738395142      -0.725403801199824      -0.726235048925423     
 -0.727400532783159      -0.728622215271485      -0.729558530905416     
 -0.730125318939260      -0.730419542601376      -0.730560030285473     
 -0.728950595439988      -0.729222218842019      -0.729939073125554     
 -0.730960136878070      -0.732055163775546      -0.732919334782753     
 -0.733456558048821      -0.733740671466366      -0.733877738168392     
  0.315736537422212       0.316353292133706       0.317979609064974     
  0.320497729525921       0.323499933335723       0.326166023504419     
  0.327987040802661       0.329009137380824       0.329518289446457     
  0.300864509808720       0.301620363758951       0.303613069627740     
  0.306823858016886       0.310825082329662       0.314531652802159     
  0.317138349395720       0.318626145597101       0.319373450472122     
  0.286375788772569       0.287229732112037       0.289480581484877     
  0.293228161806872       0.298058582136144       0.302668976266621     
  0.305975025779521       0.307882369453744       0.308845458129338     
  0.272218605259811       0.273152189984119       0.275612716675238     
  0.279802534872697       0.285322473470881       0.290688850109109     
  0.294581571873371       0.296841355993985       0.297985775054271     
  0.258693217688613       0.259687995793364       0.262309669338232     
  0.266800633530828       0.272750982712458       0.278562682606677     
  0.282790489551869       0.285248573650071       0.286494296037644     
  0.245667983156513       0.246690015455914       0.249383231261740     
  0.254018051321384       0.260185469878805       0.266230244560297     
  0.270637067854786       0.273201983253718       0.274502663981919     
  0.233014934976104       0.234039217032139       0.236738475041496     
  0.241401063525879       0.247626975755781       0.253746249521236     
  0.258214973262538       0.260818327360529       0.262138998783391     
  0.220605105301517       0.221616017375271       0.224279793508573     
  0.228895394218688       0.235076375594673       0.241165566899995     
  0.245618413787337       0.248214504385339       0.249531961870153     
  0.208347744847948       0.209335966519080       0.211939963404681     
  0.216463324092806       0.222534903017623       0.228527290508926     
  0.232914251666276       0.235473381976720       0.236772455735897     
  0.196219468472088       0.197177222010521       0.199700934723672     
  0.204093809527031       0.210001284775094       0.215840367421487     
  0.220119018866604       0.222616120172714       0.223884018732821     
  0.184218323159740       0.185137766556636       0.187560368778783     
  0.191784576113360       0.197474017804218       0.203104580150028     
  0.207233462082088       0.209644108454696       0.210868297457344     
  0.172351520457817       0.173224104637966       0.175523420196576     
  0.179538271606678       0.184952664479350       0.190316534245902     
  0.194252194222491       0.196550802714730       0.197718233571442     
  0.160633458808774       0.161449541958033       0.163599923627478     
  0.167359588356535       0.172435682110229       0.177468966209119     
  0.181164159340924       0.183322832970534       0.184419428632660     
  0.149089733485163       0.149838259656643       0.151810524879444     
  0.155261908670895       0.159925718451737       0.164553146453870     
  0.167951693103804       0.169937585423931       0.170946440577334     
  0.137716334552435       0.138386183520489       0.140151342575449     
  0.143242186796627       0.147421206162243       0.151569628837638     
  0.154617149173923       0.156398185082843       0.157302972922237     
 -3.632352437532619E-002 -3.700057030642925E-002 -3.878464166476069E-002
 -4.187852931650043E-002 -4.602472467239563E-002 -5.011163346947799E-002
 -5.310139784310906E-002 -5.484476592417079E-002 -5.572954631446430E-002
 -4.333821331733289E-002 -4.417705354452795E-002 -4.638723863040480E-002
 -5.030201352715712E-002 -5.564952347924971E-002 -6.100035451232919E-002
 -6.494984873461947E-002 -6.726365434805717E-002 -6.844054989299966E-002
 -5.097949665807494E-002 -5.194754377234777E-002 -5.449795114790573E-002
 -5.906011082184481E-002 -6.534597008842909E-002 -7.167734015529430E-002
 -7.636871112997888E-002 -7.912270728378303E-002 -8.052483826824526E-002
 -5.907542261349670E-002 -6.015636068155965E-002 -6.300434261986811E-002
 -6.810553513370346E-002 -7.514199206640239E-002 -8.223563121157702E-002
 -8.749443083821989E-002 -9.058230754252944E-002 -9.215460483336564E-002
 -6.796120975590222E-002 -6.909699638698195E-002 -7.208936067018487E-002
 -7.747058121046102E-002 -8.491889890120324E-002 -9.244722139938730E-002
 -9.803674588497734E-002 -0.101321419887450      -0.102994510211502     
 -7.743046928821422E-002 -7.858610637438243E-002 -8.163050969816532E-002
 -8.711910047819078E-002 -9.473235866520209E-002 -0.102439817813223     
 -0.108167742840244      -0.111535185528054      -0.113250943199732     
 -8.732729788990674E-002 -8.847714334867933E-002 -9.150638973659250E-002
 -9.697617713831541E-002 -0.104573403737404      -0.112272392260287     
 -0.117997335428700      -0.121364114751555      -0.123079686314027     
 -9.749042395575225E-002 -9.861914024868837E-002 -0.101592439365474     
 -0.106965793221548      -0.114434585162804      -0.122007607843692     
 -0.127640518235122      -0.130953777221650      -0.132642252768724     
 -0.107800356156390      -0.108900002259036      -0.111796744902928     
 -0.117032530395098      -0.124311255516019      -0.131692245417519     
 -0.137182659715339      -0.140412185445276      -0.142058013088628     
 -0.118233119638202      -0.119296934925019      -0.122099459310937     
 -0.127162951461133      -0.134199824798674      -0.141333715913541     
 -0.146639699189603      -0.149760461636119      -0.151350821322802     
 -0.128792257756353      -0.129812999192999      -0.132501812926092     
 -0.137356238215986      -0.144097841875628      -0.150928989970395     
 -0.156008318985439      -0.158995323927728      -0.160517375725193     
 -0.139487889331530      -0.140457145830563      -0.143010629202469     
 -0.147615346450675      -0.154003952225253      -0.160472717733136     
 -0.165280493098159      -0.168107245379969      -0.169547436670559     
 -0.150348520050271      -0.151255767533152      -0.153645882716373     
 -0.157950456133333      -0.163915915186191      -0.169951155808109     
 -0.174434605627352      -0.177069898120829      -0.178412498472359     
 -0.161379239029006      -0.162213874643940      -0.164412626291947     
 -0.168365599843777      -0.173835763095075      -0.179363650644467     
 -0.183467521601614      -0.185879016422158      -0.187107351209611     
 -0.172582551589236      -0.173333216459511      -0.175310944068882     
 -0.178859232370826      -0.183760665014004      -0.188707318454116     
 -0.192376765307843      -0.194532133336071      -0.195629731169925     
  9.503075334946378E-003  5.130998804119706E-002  0.203553912499464     
  0.445167793263283       0.681167044545670       0.832900549382754     
  0.900767048676242       0.920094663663164       2.393971728843234E-002
  8.569281437390527E-002  0.276521477228712       0.567469768652753     
  0.844471714182901        1.01300757271512        1.08424991348187     
   1.10447324719055       3.414582161598382E-002  0.104989778507512     
  0.301938159918626       0.592535011497360       0.864739285523381     
   1.02753167837198        1.09506982346612        1.11430530487520     
  3.223349805627677E-002  0.100488910393864       0.296543394949746     
  0.588176116056832       0.861081472211970        1.02244266581154     
   1.08839478591509        1.10708724415603       1.757106465796617E-002
  7.316680649938412E-002  0.269081289569629       0.570212620278782     
  0.854800006584571        1.02427654254892        1.09443428373371     
   1.11461355538962       4.894034509213698E-003  4.881811045352782E-002
  0.241512128450143       0.547167184655057       0.839239307621115     
   1.01401582382718        1.08666575057460        1.10766612913104     
 -5.668607774490470E-003  2.795326983112915E-002  0.214997793695780     
  0.519694722587852       0.813393243291745       0.989601738615662     
   1.06290976590998        1.08414587867222      -1.374913617229407E-002
  1.147315445606604E-002  0.191497511475806       0.490976641377440     
  0.781370963627725       0.955748215894819        1.02825430137433     
   1.04926895901226      -1.858436473362852E-002  9.441290049661840E-004
  0.173537002401247       0.464637763166810       0.747939914413601     
  0.918181278467588       0.988987302334331        1.00952272554074     
 -2.001035184097174E-002 -3.313824092818550E-003  0.161764360070810     
  0.441721905475319       0.714588698989091       0.878689401019402     
  0.946993871065918       0.966834349352381      -1.828382780182581E-002
 -1.838969728286098E-003  0.155380832934417       0.421332591153964     
  0.680450831883816       0.836473812582402       0.901552145268362     
  0.920500988215956      -1.476312249903063E-002  2.635081451330794E-003
  0.150352664384324       0.398539137013222       0.640421782419113     
  0.786731431014818       0.848131849981276       0.866088496030635     
 -1.089910304442516E-002  6.846867657581749E-003  0.141074202694606     
  0.364809151173674       0.583942202032643       0.718845825179718     
  0.776743176391047       0.793936727121409      -1.139124468766263E-002
 -2.240479676956524E-004  0.106608614012079       0.283695335732525     
  0.459146489638340       0.574884457035515       0.629857256914274     
  0.647241068640637     
 Zone I=  101 J=   15 K=1  T="NearWake"
 DATAPACKING=BLOCK
 VARLOCATION=([4]=CELLCENTERED)
 -0.678672304708777      -0.678047907835266      -0.676585139392040     
 -0.674937954245390      -0.673148012914413      -0.671201623468804     
 -0.669086565883150      -0.666794620090227      -0.664321252434554     
 -0.661665098155121      -0.658827512300533      -0.655812190625408     
 -0.652624833258314      -0.649272845890240      -0.645765100554176     
 -0.642111759520042      -0.638324119822207      -0.634414437382135     
 -0.630395723361032      -0.626281520595574      -0.622085667289170     
 -0.617822054493862      -0.613504386671145      -0.609145958604476     
 -0.604759465425923      -0.600356865580971      -0.595949318856480     
 -0.591547222668272      -0.587160368002248      -0.582798229686065     
 -0.578470387651605      -0.574187046074946      -0.569959585158477     
 -0.565801051650098      -0.561726454586936      -0.557752667558950     
 -0.553897752855690      -0.550179806967589      -0.546615765892716     
 -0.543220554353700      -0.540006666959054      -0.536984094776186     
 -0.534160458257264      -0.531541195435768      -0.529129699906599     
 -0.526927374444645      -0.524933600075408      -0.523145628928717     
 -0.521558434931643      -0.520164619451713      -0.518954550287908     
 -0.517916965493695      -0.517040285907942      -0.516314811392717     
 -0.515735685404573      -0.515305949996623      -0.515038474712205     
 -0.514955558769489      -0.515085723537303      -0.515458071195816     
 -0.516095032073028      -0.517004451066685      -0.518172145030242     
 -0.519556609509839      -0.521088354754059      -0.522676049022170     
 -0.524218937705381      -0.525621540234870      -0.526805658409503     
 -0.527716719453137      -0.528324142707954      -0.528617251259315     
 -0.528598975298426      -0.528279333586952      -0.527669933403194     
 -0.526780019786677      -0.525614228652390      -0.524172089032022     
 -0.522449051163374      -0.520438247863258      -0.518131967356589     
 -0.515522393063439      -0.512601851099135      -0.509362840279706     
 -0.505797786578021      -0.501898419885643      -0.497655182427472     
 -0.493057775314776      -0.488097889284913      -0.482773914574022     
 -0.477096423531685      -0.471095065426415      -0.464832671497342     
 -0.458440578315496      -0.452197488632204      -0.446643661865395     
 -0.442590345698981      -0.440780098076867      -0.441258113818554     
 -0.442991805617556      -0.444127646064513      -0.682672675875467     
 -0.682333360434564      -0.680097138990232      -0.677987390792176     
 -0.675831720770322      -0.673544560178380      -0.671080877592792     
 -0.668415978943331      -0.665536520536079      -0.662436353013575     
 -0.659114440510988      -0.655573705848481      -0.651820303730575     
 -0.647863078201607      -0.643713082365709      -0.639383157649722     
 -0.634887623291257      -0.630242032667898      -0.625462911595114     
 -0.620567458109776      -0.615573213945212      -0.610497719270431     
 -0.605358166737419      -0.600171080281464      -0.594952051357799     
 -0.589715576320707      -0.584475041264795      -0.579242895300857     
 -0.574031039457100      -0.568851432911700      -0.563716872856720     
 -0.558641841745489      -0.553643251480057      -0.548740882230971     
 -0.543957239602506      -0.539316409707387      -0.534841881710339     
 -0.530554367760539      -0.526470635437317      -0.522603340202443     
 -0.518961522351099      -0.515551460572616      -0.512377472158161     
 -0.509442263335340      -0.506746672563597      -0.504289000272244     
 -0.502064339909975      -0.500064269041839      -0.498277051389038     
 -0.496688371880411      -0.495282672515314      -0.494045224206376     
 -0.492964919812932      -0.492037426342976      -0.491268011298376     
 -0.490673279699409      -0.490281294495032      -0.490129933373601     
 -0.490263551559002      -0.490727587904027      -0.491559807246675     
 -0.492777102401276      -0.494359496106290      -0.496237171522204     
 -0.498289168723326      -0.500359289851039      -0.502285063687335     
 -0.503927756455698      -0.505192142295018      -0.506031488396791     
 -0.506440065673550      -0.506439180522469      -0.506062924475440     
 -0.505347375169596      -0.504323855830983      -0.503015246614268     
 -0.501434644331851      -0.499586378762891      -0.497468986911180     
 -0.495078532297099      -0.492410418011795      -0.489459505888163     
 -0.486220129499734      -0.482687012593481      -0.478856083209803     
 -0.474723262417809      -0.470280963640980      -0.465515005896586     
 -0.460405062301400      -0.454927980400577      -0.449060124901221     
 -0.442779276426367      -0.436078778642377      -0.429023913097996     
 -0.421917671157111      -0.415605998606092      -0.411396165449471     
 -0.409851263509348      -0.410096058769902      -0.410927142155468     
 -0.412759924877331      -0.687059397608625      -0.687017179521137     
 -0.684883614289314      -0.682789346707094      -0.680583858883291     
 -0.678196505964662      -0.675587836877513      -0.672734316656841     
 -0.669622118217413      -0.666244209525853      -0.662598822902119     
 -0.658688537290730      -0.654519649259552      -0.650101687563534     
 -0.645446980953643      -0.640570198778589      -0.635487883832552     
 -0.630218104662938      -0.624780177929242      -0.619194343237734     
 -0.613481392012250      -0.607662271596539      -0.601757679102383     
 -0.595787671604987      -0.589771335904783      -0.583726573799429     
 -0.577670064779126      -0.571617464616752      -0.565583889570295     
 -0.559584712971544      -0.553636643385133      -0.547758930369586     
 -0.541974397129120      -0.536309849384110      -0.530794978918062     
 -0.525459195518377      -0.520328214400465      -0.515422423447322     
 -0.510756837733913      -0.506342147239991      -0.502186389878467     
 -0.498296476841293      -0.494679027610246      -0.491340393476052     
 -0.488285818585009      -0.485517837008213      -0.483034496845316     
 -0.480828319814741      -0.478886667509163      -0.477193504086265     
 -0.475731956944154      -0.474487023643539      -0.473447979925423     
 -0.472610130312438      -0.471975686328133      -0.471554022206410     
 -0.471362252679735      -0.471427273108978      -0.471788975004572     
 -0.472501272783058      -0.473624786189959      -0.475205741955511     
 -0.477242349519664      -0.479651559741843      -0.482259281025573     
 -0.484831227902473      -0.487133957384310      -0.488992658375894     
 -0.490317426314955      -0.491094011208343      -0.491355478043830     
 -0.491154143545705      -0.490542984492748      -0.489566433861534     
 -0.488257212859886      -0.486636169800938      -0.484714147222795     
 -0.482495468812713      -0.479981489681735      -0.477172967971540     
 -0.474070819284207      -0.470675310293475      -0.466985528474963     
 -0.463000923293284      -0.458723765370182      -0.454160173131152     
 -0.449320536465499      -0.444217749611429      -0.438854768147432     
 -0.433205657181720      -0.427206789522669      -0.420759746662851     
 -0.413746609707813      -0.406082093487257      -0.397855148833028     
 -0.389643658524996      -0.382980349830103      -0.380082897298513     
 -0.382054975364278      -0.387705158662886      -0.394677850930112     
 -0.691539601384117      -0.691804882293773      -0.689994761970822     
 -0.688125853524154      -0.686073286645291      -0.683778421141490     
 -0.681208087631218      -0.678342351413760      -0.675169540132507     
 -0.671683864922270      -0.667884179529468      -0.663773357319254     
 -0.659357956937103      -0.654647936183170      -0.649656348350659     
 -0.644399004234463      -0.638894030993007      -0.633161396947847     
 -0.627222601572548      -0.621100391544039      -0.614818401398475     
 -0.608400763767980      -0.601871714568506      -0.595255215915553     
 -0.588574628614059      -0.581852470442892      -0.575110304073936     
 -0.568368821608256      -0.561648216078727      -0.554968893202659     
 -0.548352468841356      -0.541822872858676      -0.535407291177723     
 -0.529136148091377      -0.523040589412496      -0.517148810917893     
 -0.511484414084332      -0.506066474165168      -0.500910596814562     
 -0.496030605516699      -0.491439585536100      -0.487149484968289     
 -0.483170592601768      -0.479512336685585      -0.476183904101116     
 -0.473192845230693      -0.470542393286758      -0.468229400750739     
 -0.466244274131137      -0.464573102217775      -0.463200715268887     
 -0.462112984349782      -0.461297654473187      -0.460744029129505     
 -0.460442295019940      -0.460383747502901      -0.460563669414649     
 -0.460988233050954      -0.461684726740570      -0.462710620201816     
 -0.464152289609945      -0.466101588746926      -0.468604746706455     
 -0.471598761487892      -0.474877497952989      -0.478130554981010     
 -0.481044850496755      -0.483402228869612      -0.485114814008792     
 -0.486197129793920      -0.486714341715786      -0.486740907311588     
 -0.486339224069569      -0.485553672792307      -0.484411968332387     
 -0.482928326342534      -0.481107648291207      -0.478950232666139     
 -0.476454927929223      -0.473620483883915      -0.470446423180170     
 -0.466933543249702      -0.463085223542972      -0.458910288712025     
 -0.454423914976009      -0.449645410743939      -0.444592356259160     
 -0.439263432642698      -0.433621062728932      -0.427594092288945     
 -0.421087868960752      -0.414000104585519      -0.406255121771073     
 -0.397837361136701      -0.388793359355126      -0.379327803482539     
 -0.370598667901576      -0.366244440281582      -0.369354785226621     
 -0.377492067442370      -0.386573691535267      -0.695988466788179     
 -0.696581059863027      -0.695117572929854      -0.693539208802092     
 -0.691725333723560      -0.689619683331321      -0.687190449415817     
 -0.684418507923166      -0.681292810142148      -0.677808243113709     
 -0.673964429350722      -0.669764937679096      -0.665216847574602     
 -0.660330615411198      -0.655119954831103      -0.649601607402965     
 -0.643795020272443      -0.637721871876358      -0.631405649774027     
 -0.624871412172484      -0.618145480253224      -0.611255080242223     
 -0.604227991619575      -0.597092213218388      -0.589875650101016     
 -0.582605826428061      -0.575309669518913      -0.568013476127842     
 -0.560743145844371      -0.553524592064924      -0.546384151902118     
 -0.539349041998818      -0.532448032265252      -0.525710969810044     
 -0.519165798128670      -0.512836911828925      -0.506745850369779     
 -0.500912399517013      -0.495356343395094      -0.490098677265248     
 -0.485160222589937      -0.480558575549372      -0.476306805882931     
 -0.472415656990910      -0.468895791537078      -0.465756893989525     
 -0.463004996921648      -0.460640414198491      -0.458657456463553     
 -0.457046003322637      -0.455793605649499      -0.454886432157556     
 -0.454308862327945      -0.454042634362019      -0.454066426137271     
 -0.454356873844468      -0.454892528024141      -0.455662412314566     
 -0.456680152104158      -0.458001616565708      -0.459735920305265     
 -0.462028148979569      -0.464992148580421      -0.468604223688537     
 -0.472626741805820      -0.476651307664412      -0.480260920869278     
 -0.483189782243486      -0.485368319906007      -0.486857899107608     
 -0.487761572114946      -0.488170568532732      -0.488147366722921     
 -0.487728345069281      -0.486932015463240      -0.485765396064484     
 -0.484228291684309      -0.482317392750625      -0.480028780889371     
 -0.477358459235318      -0.474303498444644      -0.470864562219993     
 -0.467048653574070      -0.462868980059904      -0.458339830298745     
 -0.453471666167440      -0.448263305321744      -0.442688288144437     
 -0.436698256617939      -0.430239287176140      -0.423264347968600     
 -0.415739031584872      -0.407630670111830      -0.398891135127730     
 -0.389456937967738      -0.379255182537334      -0.368640848922805     
 -0.361237591679692      -0.363746368531687      -0.373389400664100     
 -0.383799410087013      -0.700297648951659      -0.701233239028463     
 -0.700117134990865      -0.698849599605231      -0.697304617202759     
 -0.695424679974152      -0.693177419942569      -0.690543296329040     
 -0.687510953930338      -0.684075165476890      -0.680235737951791     
 -0.675996771480302      -0.671366123864766      -0.666355051016045     
 -0.660978118723163      -0.655253140315043      -0.649200951253096     
 -0.642845033183989      -0.636211012543338      -0.629326376801701     
 -0.622220237000336      -0.614922997594821      -0.607466024859588     
 -0.599881321553196      -0.592201185458045      -0.584457861483632     
 -0.576683293298249      -0.568909107330735      -0.561166752112405     
 -0.553487422897252      -0.545901523617638      -0.538438254791572     
 -0.531126190369217      -0.523992658151816      -0.517061617716741     
 -0.510354817439452      -0.503894002375704      -0.497702288041453     
 -0.491805157576984      -0.486229906640101      -0.481003398785931     
 -0.476148387232106      -0.471680826499482      -0.467612112986957     
 -0.463952681015310      -0.460712069990149      -0.457897114375284     
 -0.455510531653301      -0.453550199751343      -0.452009061942832     
 -0.450875649646179      -0.450134553039045      -0.449766381009110     
 -0.449747474626186      -0.450049907846872      -0.450642550389712     
 -0.451494355972596      -0.452581733591182      -0.453903219528343     
 -0.455504359619684      -0.457506118621088      -0.460105577737646     
 -0.463499158891164      -0.467719956971988      -0.472494252549910     
 -0.477287655128439      -0.481561393646433      -0.485018499391322     
 -0.487638772599910      -0.489545391554137      -0.490873741956329     
 -0.491717683963653      -0.492128662866902      -0.492130735226155     
 -0.491732553585783      -0.490934142102746      -0.489730719785049     
 -0.488116029209326      -0.486084176064977      -0.483629349533556     
 -0.480746854822107      -0.477437175174649      -0.473708258758354     
 -0.469570613852294      -0.465030371321283      -0.460087035458005     
 -0.454729333380456      -0.448932333502115      -0.442670275269805     
 -0.435926670632679      -0.428692413380690      -0.420949304777478     
 -0.412646130126305      -0.403695167303388      -0.393992185290116     
 -0.383395046676912      -0.371739779214970      -0.361216813597929     
 -0.361446234240319      -0.372030670486948      -0.383644101697111     
 -0.704485112002471      -0.705775366270929      -0.705025913839800     
 -0.704087351687479      -0.702830825045876      -0.701197887199001     
 -0.699155448816555      -0.696683332973339      -0.693769641575483     
 -0.690408775237004      -0.686600415204123      -0.682348843754748     
 -0.677662478500089      -0.672553487238031      -0.667037484030123     
 -0.661133464087507      -0.654863728630682      -0.648253600637453     
 -0.641330949746687      -0.634125796080842      -0.626670113160538     
 -0.618997523998787      -0.611142955205294      -0.603142268393963     
 -0.595031840778895      -0.586848165466303      -0.578627675141913     
 -0.570406868553746      -0.562222414783905      -0.554110587179977     
 -0.546105690702243      -0.538238638912561      -0.530537407972924     
 -0.523026579976848      -0.515726992972395      -0.508659570472172     
 -0.501848798792742      -0.495323414877254      -0.489114140111914     
 -0.483252241444574      -0.477768994944803      -0.472691890713332     
 -0.468039943560274      -0.463825047340210      -0.460056754135715     
 -0.456743512124382      -0.453891983074646      -0.451506354315495     
 -0.449586725398561      -0.448127131512420      -0.447115393023160     
 -0.446534286419882      -0.446362161205338      -0.446572867872277     
 -0.447135734029986      -0.448016247925693      -0.449178124762678     
 -0.450588314391182      -0.452229422641665      -0.454128052277747     
 -0.456401700695151      -0.459290070579454      -0.463083968801776     
 -0.467897479003702      -0.473423932692661      -0.478977892284734     
 -0.483888135793359      -0.487851429715175      -0.490919894343784     
 -0.493275331970479      -0.495070981428324      -0.496392229483147     
 -0.497274939379136      -0.497730580306054      -0.497759792590481     
 -0.497357451010848      -0.496514786756026      -0.495222552264343     
 -0.493473048262582      -0.491259226897921      -0.488575215744330     
 -0.485420821858365      -0.481802425429420      -0.477725403968013     
 -0.473189029182402      -0.468188189936264      -0.462713964642942     
 -0.456755254527843      -0.450307504531894      -0.443373495081500     
 -0.435953540143831      -0.428027456450160      -0.419541795091957     
 -0.410405168241066      -0.400501242255407      -0.389691535607373     
 -0.377648117176498      -0.364950986901434      -0.361489257726110     