 Title = "Wing and Wake"
 VARIABLES = "X" "Y" "Z" "GAM"
 Zone I=    9 J=   15 K=1  T="Blade"
 DATAPACKING=BLOCK
 VARLOCATION=([4]=CELLCENTERED)
 -0.729709746402143      -0.730366242085411      -0.732099145715673     
 -0.734297669857625      -0.736249961043943      -0.737391753076763     
 -0.737881754791926      -0.738061349310909      -0.738126939499254     
 -0.736654105254139      -0.737445363715791      -0.739533313296510     
 -0.742380682309009      -0.745243401453570      -0.747314761644292     
 -0.748498904228302      -0.749087642152733      -0.749361877208874     
 -0.743705235834994      -0.744569431265137      -0.746849057887440     
 -0.750182843888055      -0.753887117025755      -0.756937553568997     
 -0.758903890528614      -0.759968988737015      -0.760489931855557     
 -0.750977027338750      -0.751888769757070      -0.754293052009266     
 -0.758019266806221      -0.762466734086122      -0.766420711773805     
 -0.769123496643916      -0.770641244720099      -0.771397436913419     
 -0.758780538412160      -0.759775437838347      -0.762398787967348     
 -0.766519462199020      -0.771513701458615      -0.776020892329589     
 -0.779134614890882      -0.780893976170074      -0.781773222401625     
 -0.767066101878641      -0.768104730056230      -0.770842968157662     
 -0.775190664430935      -0.780523188580826      -0.785390633349407     
 -0.788779866695264      -0.790703387372642      -0.791666955496762     
 -0.775719710012676      -0.776772810139084      -0.779549334331630     
 -0.783998640087462      -0.789510734906637      -0.794589419351811     
 -0.798148239460876      -0.800175332292355      -0.801192532590263     
 -0.784633575993134      -0.785681877109419      -0.788445480852027     
 -0.792910341048248      -0.798490263232446      -0.803672799904845     
 -0.807323783689391      -0.809409729943255      -0.810457963171422     
 -0.793739803762098      -0.794770036366012      -0.797485992611439     
 -0.801905752906099      -0.807471512036319      -0.812676388568124     
 -0.816359822422982      -0.818469522374827      -0.819531031964076     
 -0.803010673043418      -0.804011959826190      -0.806651355669491     
 -0.810974692932672      -0.816455982481924      -0.821612884787091     
 -0.825276833391683      -0.827379963897529      -0.828439347910293     
 -0.812436487612122      -0.813398484923583      -0.815934225752837     
 -0.820112983196018      -0.825443942734052      -0.830486833554432     
 -0.834082356709101      -0.836150258038918      -0.837192829903206     
 -0.822021355695992      -0.822933540130632      -0.825338038164627     
 -0.829323021684890      -0.834435856394501      -0.839296646767787     
 -0.842773397689636      -0.844776515968288      -0.845787258380952     
 -0.831762037767470      -0.832614058116065      -0.834859843138269     
 -0.838602451321109      -0.843430881269799      -0.848043027849542     
 -0.851352045613380      -0.853261538675515      -0.854225872871093     
 -0.841719065693255      -0.842496911235898      -0.844547014253065     
 -0.847980749106362      -0.852432765348697      -0.856703282361566     
 -0.859775384588325      -0.861550851981193      -0.862448030172844     
 -0.851878770323740      -0.852569363999128      -0.854389765042194     
 -0.857452741011965      -0.861442160454590      -0.865283801393282     
 -0.868054013262946      -0.869657100630533      -0.870467622103975     
  0.315736537422211       0.316353292133704       0.317979609064972     
  0.320497729525920       0.323499933335722       0.326166023504419     
  0.327987040802661       0.329009137380823       0.329518289446456     
  0.300864509808720       0.301620363758950       0.303613069627739     
  0.306823858016885       0.310825082329662       0.314531652802158     
  0.317138349395720       0.318626145597100       0.319373450472122     
  0.286375788772567       0.287229732112036       0.289480581484876     
  0.293228161806870       0.298058582136143       0.302668976266620     
  0.305975025779520       0.307882369453743       0.308845458129336     
  0.272218605259809       0.273152189984118       0.275612716675237     
  0.279802534872696       0.285322473470879       0.290688850109108     
  0.294581571873370       0.296841355993983       0.297985775054270     
  0.258693217688611       0.259687995793362       0.262309669338230     
  0.266800633530827       0.272750982712456       0.278562682606676     
  0.282790489551867       0.285248573650070       0.286494296037643     
  0.245667983156511       0.246690015455912       0.249383231261738     
  0.254018051321383       0.260185469878803       0.266230244560295     
  0.270637067854784       0.273201983253716       0.274502663981917     
  0.233014934976102       0.234039217032137       0.236738475041494     
  0.241401063525877       0.247626975755779       0.253746249521235     
  0.258214973262537       0.260818327360528       0.262138998783389     
  0.220605105301515       0.221616017375269       0.224279793508572     
  0.228895394218687       0.235076375594671       0.241165566899993     
  0.245618413787335       0.248214504385338       0.249531961870151     
  0.208347744847946       0.209335966519078       0.211939963404680     
  0.216463324092804       0.222534903017621       0.228527290508924     
  0.232914251666273       0.235473381976718       0.236772455735895     
  0.196219468472086       0.197177222010519       0.199700934723670     
  0.204093809527029       0.210001284775091       0.215840367421484     
  0.220119018866602       0.222616120172712       0.223884018732819     
  0.184218323159738       0.185137766556634       0.187560368778781     
  0.191784576113358       0.197474017804215       0.203104580150026     
  0.207233462082086       0.209644108454694       0.210868297457342     
  0.172351520457815       0.173224104637964       0.175523420196574     
  0.179538271606675       0.184952664479348       0.190316534245900     
  0.194252194222488       0.196550802714728       0.197718233571440     
  0.160633458808772       0.161449541958031       0.163599923627476     
  0.167359588356532       0.172435682110227       0.177468966209117     
  0.181164159340922       0.183322832970532       0.184419428632657     
  0.149089733485162       0.149838259656641       0.151810524879442     
  0.155261908670893       0.159925718451735       0.164553146453868     
  0.167951693103802       0.169937585423929       0.170946440577332     
  0.137716334552433       0.138386183520487       0.140151342575447     
  0.143242186796625       0.147421206162241       0.151569628837636     
  0.154617149173921       0.156398185082840       0.157302972922235     
 -1.535525849257717E-002 -1.568821390055252E-002 -1.656307485938820E-002
 -1.875707755569830E-002 -2.253138438189030E-002 -2.690838764281688E-002
 -3.040008759107168E-002 -3.252519529743830E-002 -3.362515736553696E-002
 -1.868527561839820E-002 -1.911635908222575E-002 -2.024955308100542E-002
 -2.297070247910752E-002 -2.754927437197996E-002 -3.279621063447787E-002
 -3.695829557592841E-002 -3.948474451455606E-002 -4.079096200324347E-002
 -2.274366152147802E-002 -2.328221121416959E-002 -2.469869773499347E-002
 -2.785679562491164E-002 -3.295414790760351E-002 -3.865954436598649E-002
 -4.313374161571623E-002 -4.583510475584797E-002 -4.722833358493068E-002
 -2.721038470878155E-002 -2.785640641520647E-002 -2.955675044629708E-002
 -3.308921887633304E-002 -3.854279289311326E-002 -4.448509992169866E-002
 -4.908206949979480E-002 -5.183946440721451E-002 -5.325743216115562E-002
 -3.226203275234644E-002 -3.290987715811262E-002 -3.461487918004938E-002
 -3.818190747083220E-002 -4.371433135685245E-002 -4.975987622494589E-002
 -5.444375877956837E-002 -5.725531676499948E-002 -5.870160588111824E-002
 -3.767085992158541E-002 -3.830792447694770E-002 -3.998445618649307E-002
 -4.350115225952685E-002 -4.896503594500278E-002 -5.494213818896786E-002
 -5.957550882150771E-002 -6.235736756163378E-002 -6.378860047540677E-002
 -4.332901272588540E-002 -4.394637344171094E-002 -4.557099333175661E-002
 -4.897788285834929E-002 -5.427016110972521E-002 -6.005895460317211E-002
 -6.454613250528826E-002 -6.724021792766015E-002 -6.862620515587400E-002
 -4.911640991807697E-002 -4.971021531442645E-002 -5.127264277370262E-002
 -5.454059552167452E-002 -5.960830031753886E-002 -6.514551471707554E-002
 -6.943521785515754E-002 -7.201005355534375E-002 -7.333462972720962E-002
 -5.493403820295811E-002 -5.550505644306599E-002 -5.700752752189045E-002
 -6.013374083560945E-002 -6.496521523211705E-002 -7.023300327386146E-002
 -7.430946213061325E-002 -7.675506010807119E-002 -7.801282320585655E-002
 -6.077386070534641E-002 -6.132239356513339E-002 -6.276611324839745E-002
 -6.574832210775067E-002 -7.033495981753141E-002 -7.532043845789906E-002
 -7.917248978078015E-002 -8.148161979496267E-002 -8.266875818823465E-002
 -6.664863904570387E-002 -6.717391076838375E-002 -6.855616862063119E-002
 -7.138677695022332E-002 -7.571410932712586E-002 -8.040005201709421E-002
 -8.401364298527887E-002 -8.617772576705349E-002 -8.728980161140548E-002
 -7.256813519389226E-002 -7.306799607029135E-002 -7.438371846367441E-002
 -7.705095172269583E-002 -8.110050655039534E-002 -8.546619278791338E-002
 -8.882495737866718E-002 -9.083420460365893E-002 -9.186612722674449E-002
 -7.857227896729241E-002 -7.904167648441017E-002 -8.027731288309566E-002
 -8.275611325319916E-002 -8.649193319590195E-002 -9.050032980263122E-002
 -9.357646229283081E-002 -9.541433739916445E-002 -9.635780521687226E-002
 -8.461692146855997E-002 -8.505377097628562E-002 -8.620379671944679E-002
 -8.848279155958000E-002 -9.188789735472269E-002 -9.552065280587471E-002
 -9.830007602240044E-002 -9.995826490480328E-002 -0.100808920200371     
 -9.071680294104081E-002 -9.111724943623385E-002 -9.217149162998844E-002
 -9.423331103745924E-002 -9.728415655511589E-002 -0.100518034518866     
 -0.102983673431421      -0.104452156547778      -0.105204860491418     
  2.633916514994933E-002  7.854077079589930E-002  0.212437274514996     
  0.412475999142095       0.606515737242101       0.732829437974920     
  0.789863315056695       0.806160659541906       4.541715005195876E-002
  0.122500468926020       0.299116582758457       0.552040172718644     
  0.790211376623417       0.936702904601977       0.999354519405885     
   1.01722851218118       6.074390521141163E-002  0.153407767842177     
  0.346136064685660       0.610821526998087       0.854271741056710     
   1.00092134357729        1.06255379052832        1.08023305001356     
  6.628024442495485E-002  0.165398919578235       0.368732374590843     
  0.645308618200279       0.895623098451225        1.04261642762692     
   1.10287981852945        1.12001244647987       6.016011198984516E-002
  0.155611397245293       0.366827295671326       0.658934677296410     
  0.923804222767362        1.07931852130481        1.14340754217097     
   1.16181119861934       5.487431250321454E-002  0.146615819095754     
  0.362343556209752       0.665278705223173       0.941158211375250     
   1.10311352709983        1.16981431703936        1.18900601748262     
  5.153132600188619E-002  0.140907437192754       0.359352503673306     
  0.668939222537392       0.951577231129616        1.11736147829220     
   1.18548488052086        1.20508638914951       5.151189531802742E-002
  0.141404428197924       0.362636689861830       0.676509588576188     
  0.963047365655836        1.13104485371761        1.20003003837763     
   1.21989700923923       5.611607384205682E-002  0.150668001979982     
  0.375904444051212       0.692594081788055       0.980891684174656     
   1.15014981154444        1.21993598679821        1.24013098039445     
  6.446431306893205E-002  0.166686561384877       0.395752798089231     
  0.711975452611583       0.997988932407168        1.16602994624757     
   1.23567283576265        1.25595194285086       7.260715988808186E-002
  0.181430123809465       0.410295833725474       0.719582849441769     
  0.996980442255904        1.15986834616586        1.22763458182999     
   1.24744945657043       7.555585542605148E-002  0.184923323400283     
  0.405236235485571       0.698425425770141       0.960228096421525     
   1.11450165364972        1.17911775829344        1.19809286005826     
  7.076279080526675E-002  0.171507834065562       0.371059951128454     
  0.634875391576105       0.871886218785556        1.01460821143532     
   1.07601064498145        1.09434635874523       5.213609261100498E-002
  0.126730405472741       0.280306929796814       0.482738784136143     
  0.668310655688547       0.789967391806897       0.848812884069708     
  0.867653302997433     
 Zone I=  101 J=   15 K=1  T="NearWake"
 DATAPACKING=BLOCK
 VARLOCATION=([4]=CELLCENTERED)
 -0.738593253279910      -0.739911690459334      -0.740467706254651     
 -0.740325424081904      -0.739671663044375      -0.738523048017790     
 -0.736878112765745      -0.734734774795100      -0.732094170449372     
 -0.728961685302551      -0.725347191954222      -0.721265008736072     
 -0.716733736651819      -0.711776029236224      -0.706418325070272     
 -0.700690544320853      -0.694625731608770      -0.688259639642778     
 -0.681630260069378      -0.674777330651050      -0.667741862538725     
 -0.660565758044366      -0.653291603424365      -0.645962647202911     
 -0.638622890545115      -0.631317050233372      -0.624089987614902     
 -0.616985070079177      -0.610041060542071      -0.603287856339193     
 -0.596742670996811      -0.590408785271392      -0.584277357829054     
 -0.578329802160573      -0.572537193407693      -0.566856492253500     
 -0.561229346419586      -0.555592262085688      -0.549902567198166     
 -0.544170019966937      -0.538466309484301      -0.532899961509636     
 -0.527582224453145      -0.522608425506915      -0.518054296213163     
 -0.513978616006245      -0.510426897608504      -0.507433219137385     
 -0.505019761157096      -0.503195872758208      -0.501958852777952     
 -0.501298236801250      -0.501204122562766      -0.501677173648161     
 -0.502735069592040      -0.504410344741669      -0.506738665763434     
 -0.509742196058068      -0.513415839006102      -0.517722138739955     
 -0.522595021374632      -0.527948573206078      -0.533687194557958     
 -0.539715290556647      -0.545944898045284      -0.552298886602908     
 -0.558706531631660      -0.565089072322406      -0.571337239220853     
 -0.577289747831007      -0.582730454616845      -0.587423014521886     
 -0.591180735493784      -0.593929469142534      -0.595715296779998     
 -0.596659271900339      -0.596901043909848      -0.596563436105890     
 -0.595741669276352      -0.594506036193459      -0.592907013663436     
 -0.590976451548419      -0.588722513609156      -0.586120019533959     
 -0.583102640669364      -0.579565683597968      -0.575385563833452     
 -0.570458710300737      -0.564753750332653      -0.558345686487705     
 -0.551395027149410      -0.544077820367070      -0.536511012555691     
 -0.528714343651827      -0.520637517625584      -0.512307917105079     
 -0.504150055696696      -0.497123257257143      -0.491787426868829     
 -0.487001102468311      -0.480521648750940      -0.749828190989531     
 -0.751868479696134      -0.751926764126647      -0.751653815002903     
 -0.750947415823393      -0.749728681418596      -0.747952254524634     
 -0.745594843503063      -0.742647445654538      -0.739111262728657     
 -0.734995561170592      -0.730316434710911      -0.725095961513740     
 -0.719361501701560      -0.713145028483034      -0.706482490128102     
 -0.699413222960782      -0.691979407322896      -0.684225560770761     
 -0.676198082143821      -0.667944887598854      -0.659515157364044     
 -0.650959257878334      -0.642328797256595      -0.633676744046027     
 -0.625057399565477      -0.616525787788177      -0.608135691713801     
 -0.599935409310904      -0.591961376493340      -0.584232419874391     
 -0.576749302162571      -0.569501431221138      -0.562476555709725     
 -0.555666557470219      -0.549065784702308      -0.542665221066488     
 -0.536450403330746      -0.530410078121904      -0.524554782781324     
 -0.518925718296351      -0.513580317100996      -0.508575921513703     
 -0.503965653828589      -0.499796946548838      -0.496107341001203     
 -0.492921092212967      -0.490248410508774      -0.488088003080228     
 -0.486433456205895      -0.485279660862263      -0.484623324184958     
 -0.484461502763525      -0.484804366716800      -0.485703630941612     
 -0.487263714034390      -0.489607221067796      -0.492814319445214     
 -0.496880349217092      -0.501712717654810      -0.507155595795293     
 -0.513022112403499      -0.519122695241950      -0.525286121832576     
 -0.531371520192766      -0.537270294968842      -0.542899559259186     
 -0.548191164302528      -0.553081163958343      -0.557503699034356     
 -0.561391831727684      -0.564685860345396      -0.567346058852628     
 -0.569362769886006      -0.570756931085403      -0.571570459699456     
 -0.571853186239723      -0.571653810079923      -0.571016612537929     
 -0.569980263970597      -0.568574324118311      -0.566812196667861     
 -0.564682769990628      -0.562144318771805      -0.559122735695340     
 -0.555513152851554      -0.551185413750210      -0.546003658667554     
 -0.539878549554526      -0.532853977662822      -0.525169670744127     
 -0.517179150399265      -0.509064433551865      -0.500468228576410     
 -0.490417661644200      -0.478715513758449      -0.467774455128507     
 -0.460132241862596      -0.454673781891784      -0.448289309478957     
 -0.441908617487048      -0.760956245636213      -0.763748811249528     
 -0.764279422833607      -0.764360044028009      -0.763883506821030     
 -0.762784769336100      -0.761024443454254      -0.758580244288642     
 -0.755442700771237      -0.751612778648225      -0.747100411536582     
 -0.741923459769481      -0.736106836003059      -0.729681665159651     
 -0.722684430327952      -0.715156083996757      -0.707141162305308     
 -0.698687006800809      -0.689843140060261      -0.680660757393346     
 -0.671192380713985      -0.661491684521252      -0.651613579663396     
 -0.641614490583767      -0.631552812137258      -0.621489372829402     
 -0.611487369159704      -0.601610496369744      -0.591917672941983     
 -0.582454233162424      -0.573243405966659      -0.564284458141263     
 -0.555560058798917      -0.547049914928086      -0.538746226631789     
 -0.530664821869948      -0.522843641520029      -0.515325925982292     
 -0.508142584294710      -0.501313769347796      -0.494864197831725     
 -0.488834828185851      -0.483283556062572      -0.478271692044098     
 -0.473841551483399      -0.470003636003513      -0.466745988632263     
 -0.464058799902834      -0.461958090607343      -0.460496571169784     
 -0.459740448190213      -0.459688337596783      -0.460197690110644     
 -0.461075878456509      -0.462326681029893      -0.464259870445912     
 -0.467281187772696      -0.471604887158856      -0.477169560286213     
 -0.483719157007890      -0.490913187116939      -0.498409280643445     
 -0.505912989099515      -0.513201058738840      -0.520123293529102     
 -0.526588358966287      -0.532541933846055      -0.537946194531657     
 -0.542766375531493      -0.546965591776060      -0.550505977025145     
 -0.553353363138115      -0.555483233906359      -0.556885971091286     
 -0.557569610666109      -0.557559251269007      -0.556893571677908     
 -0.555619722692385      -0.553788000711295      -0.551447339432543     
 -0.548641752529310      -0.545407663432481      -0.541773020182206     
 -0.537758973065304      -0.533383104422580      -0.528661656970332     
 -0.523609539638869      -0.518236289412596      -0.512530482126854     
 -0.506422486741777      -0.499726095620667      -0.492092359304617     
 -0.483040167085191      -0.472087360795958      -0.458903297926339     
 -0.443559584377376      -0.427459171094492      -0.414200364843505     
 -0.407410820353041      -0.407076407575451      -0.410611571888246     
 -0.771863750694075      -0.775434931100590      -0.776649031760095     
 -0.777271743242406      -0.777208085080716      -0.776402625141923     
 -0.774821869433374      -0.772447012582885      -0.769270619371253     
 -0.765294923376909      -0.760530850988125      -0.754997400825957     
 -0.748721124324761      -0.741735496016645      -0.734080112492618     
 -0.725799767089626      -0.716943426063580      -0.707563169758995     
 -0.697713257613136      -0.687449385072887      -0.676828197616611     
 -0.665907129771363      -0.654744656548133      -0.643400794226661     
 -0.631937897650539      -0.620421558866973      -0.608920927740453     
 -0.597506801774738      -0.586245619251741      -0.575189153014172     
 -0.564364318834177      -0.553769930427528      -0.543384076382682     
 -0.533183110459694      -0.523170170040012      -0.513398968296698     
 -0.503965135139571      -0.494950584706985      -0.486365574869216     
 -0.478164721909206      -0.470332880080281      -0.462948472385478     
 -0.456167962561245      -0.450158780605967      -0.445032903314049     
 -0.440820376210465      -0.437491734698239      -0.435007064357684     
 -0.433359520110735      -0.432595218063231      -0.432759554880486     
 -0.433713126887798      -0.435036497131978      -0.436433746939631     
 -0.438234617082380      -0.441107229901808      -0.445516353236749     
 -0.451596090067826      -0.459216528646061      -0.468044540779233     
 -0.477608262392736      -0.487399761739630      -0.496990926691262     
 -0.506103531262729      -0.514604826054189      -0.522454639995555     
 -0.529648808793040      -0.536183645139598      -0.542042877489858     
 -0.547198633162775      -0.551617768037985      -0.555268369068225     
 -0.558124862888286      -0.560171884920043      -0.561407058566244     
 -0.561842223328489      -0.561503117519572      -0.560427851288570     
 -0.558664516349323      -0.556268125615520      -0.553297050704827     
 -0.549808947254494      -0.545856572977632      -0.541483538541496     
 -0.536719405637374      -0.531574087886593      -0.526031497371103     
 -0.520040755825031      -0.513504443127287      -0.506268972035831     
 -0.498125880550482      -0.488819659589836      -0.478026021249179     
 -0.465295224445564      -0.449997286328663      -0.431377976459152     
 -0.409871762323292      -0.391608947680054      -0.384235717503476     
 -0.387732132987485      -0.395608803604824      -0.782239536182281     
 -0.786639500084607      -0.788589658451336      -0.789840310923602     
 -0.790295295475222      -0.789899968155148      -0.788621594008967     
 -0.786441719211434      -0.783352964090359      -0.779357565245513     
 -0.774466599857282      -0.768699460556560      -0.762083386108926     
 -0.754653025641067      -0.746449972075403      -0.737522101595734     
 -0.727922673094686      -0.717709210393296      -0.706942218493243     
 -0.695684001282528      -0.683997794841340      -0.671947313501471     
 -0.659596752886312      -0.647011009646299      -0.634256210182762     
 -0.621400467568847      -0.608514192757475      -0.595668636385444     
 -0.582931022520727      -0.570355973996053      -0.557976564215758     
 -0.545800671389158      -0.533816707427775      -0.522013628933449     
 -0.510416925299320      -0.499123434354811      -0.488285815991921     
 -0.478010633214863      -0.468264928520927      -0.458930240863324     
 -0.449945768106864      -0.441390364602074      -0.433459341097143     
 -0.426392141310966      -0.420397937189912      -0.415599394395911     
 -0.412017802478631      -0.409607587785599      -0.408316724265456     
 -0.408128462818311      -0.409011222606639      -0.410759620965395     
 -0.413002331352016      -0.415574802101953      -0.418728215103463     
 -0.422881706363733      -0.428394468724891      -0.435526075775879     
 -0.444402567863952      -0.454904089795868      -0.466569614285486     
 -0.478680888043205      -0.490536967738403      -0.501698608567241     
 -0.512014433043904      -0.521495437325872      -0.530191834687084     
 -0.538134335126087      -0.545323993230790      -0.551741246910866     
 -0.557357201916167      -0.562141736745635      -0.566068628209073     
 -0.569119251773649      -0.571285577544742      -0.572572064603922     
 -0.572995954488358      -0.572586530010730      -0.571383713799694     
 -0.569436044912132      -0.566797887519400      -0.563525338571265     
 -0.559670172742783      -0.555272415098407      -0.550353388705307     
 -0.544909773567937      -0.538907610682700      -0.532276916415738     
 -0.524911497192457      -0.516678350648498      -0.507422083575364     
 -0.496945200316419      -0.484973133564216      -0.471115544768505     
 -0.454780156227768      -0.434896767929980      -0.409877984839478     
 -0.384396205864136      -0.373994058429340      -0.379240801787546     
 -0.389192736222324      -0.792133269277418      -0.797401732076408     
 -0.800114130755785      -0.802035359478453      -0.803061417833984     
 -0.803134868343665      -0.802221295285606      -0.800300976051702     
 -0.797365597474821      -0.793416777985746      -0.788465283750203     
 -0.782530534795352      -0.775640173083483      -0.767829596004567     
 -0.759141620589531      -0.749626317630757      -0.739340660156743     
 -0.728347783589280      -0.716715775603608      -0.704516044585964     
 -0.691821647628792      -0.678705926111649      -0.665241621662009     
 -0.651500439081020      -0.637553098694623      -0.623469949883252     
 -0.609321414636063      -0.595177260263840      -0.581103453470440     
 -0.567156508102374      -0.553377890212186      -0.539792480383235     
 -0.526413227421780      -0.513256809955954      -0.500373962796962     
 -0.487880012608321      -0.475932436867708      -0.464620668251148     
 -0.453892699465475      -0.443635700237631      -0.433804145431460     
 -0.424475638309203      -0.415824719486556      -0.408074316214668     
 -0.401451439130935      -0.396142827654413      -0.392259097974852     
 -0.389829004499238      -0.388833823094025      -0.389241701083016     
 -0.390965347895927      -0.393749455956031      -0.397200444472417     
 -0.401052753756227      -0.405333624945334      -0.410271130276665     
 -0.416191705068829      -0.423505059787487      -0.432656373287545     
 -0.443919152176998      -0.457068703342367      -0.471250074540399     
 -0.485354295843777      -0.498611879241138      -0.510780974317611     
 -0.521921259570841      -0.532147939289993      -0.541532377659558     
 -0.550095782388655      -0.557827866169050      -0.564703266033643     
 -0.570691382757097      -0.575762726412570      -0.579893757596976     
 -0.583070881846284      -0.585293208307145      -0.586573473557185     
 -0.586937424223369      -0.586422263452759      -0.585074220571513     
 -0.582944882259928      -0.580085463723417      -0.576538288966160     
 -0.572327580202666      -0.567452692080971      -0.561883037009088     
 -0.555555789916946      -0.548379522397120      -0.540244820612741     
 -0.531037588994368      -0.520641627728341      -0.508924457585143     
 -0.495718448607056      -0.480777834668725      -0.463638744259673     
 -0.443288660829393      -0.417444882928933      -0.385894011147941     
 -0.369695420844620      -0.375411673608865      -0.386722830730057     
 -0.801658846370919      -0.807825350427942      -0.811334988971307     
 -0.813963633102089      -0.815601504074038      -0.816187604597106     
 -0.815684249951439      -0.814068809297405      -0.811330699738727     
 -0.807470111158698      -0.802497313668901      -0.796432156180779     
 -0.789303438795465      -0.781148203201991      -0.772011181090794     
 -0.761944597667364      -0.751008411415949      -0.739270434190503     
 -0.726805862748461      -0.713695751590632      -0.700024639729950     
 -0.685878029277272      -0.671340007952987      -0.656491544546138     
 -0.641409689935127      -0.626168146699378      -0.610838314561525     
 -0.595489583691028      -0.580187840047782      -0.564992488560354     
 -0.549954955848577      -0.535121668839437      -0.520539977511300     
 -0.506266270305710      -0.492377228428149      -0.478978106246583     
 -0.466176316501007      -0.454006350086131      -0.442410291628649     
 -0.431326734047472      -0.420773561775274      -0.410861142523515     
 -0.401756585022458      -0.393654808461240      -0.386761387033428     
 -0.381266718435209      -0.377312455749212      -0.374968763282127     
 -0.374246253762057      -0.375119251152950      -0.377483571163296     
 -0.381065374479102      -0.385453530264185      -0.390300272393147     
 -0.395470499961315      -0.401029093719251      -0.407207505858654     
 -0.414441947399856      -0.423392133348997      -0.434756778788754     
 -0.448774901967583      -0.464697904673535      -0.480993925956436     
 -0.496377327690680      -0.510414530544461      -0.523211326353209     
 -0.534964133426950      -0.545794157050650      -0.555746422053718     
 -0.564820920671020      -0.572995131922085      -0.580236365275415     
 -0.586510099695031      -0.591786344703739      -0.596044693422972     
 -0.599278121351777      -0.601494642773843      -0.602716704994528     
 -0.602978884763158      -0.602324003184201      -0.600797379939757     
 -0.598438561636663      -0.595270777015696      -0.591292398659865     
 -0.586473734464832      -0.580756546807706      -0.574057699609057     
 -0.566278541568953      -0.557318876291207      -0.547092997553093     
 -0.535532932504146      -0.522574582753236      -0.508141498346900     
 -0.492104082316150      -0.474136768698619      -0.453419357623733     
 -0.427858553128203      -0.393903589147371      -0.369587318619323     