 Title = "Wing and Wake"
 VARIABLES = "X" "Y" "Z" "GAM"
 Zone I=    9 J=   15 K=1  T="Blade"
 DATAPACKING=BLOCK
 VARLOCATION=([4]=CELLCENTERED)
 -0.865327093659329      -0.865202750467342      -0.864876664584023     
 -0.863887136309289      -0.862038504045096      -0.859804907434984     
 -0.857989420318884      -0.856874995144753      -0.856295976189700     
 -0.852248070573768      -0.852082384341921      -0.851647479730688     
 -0.850429847945079      -0.848226839282778      -0.845605516523766     
 -0.843489465370599      -0.842194587181780      -0.841522701053585     
 -0.838790773993338      -0.838573839203807      -0.838003790485329     
 -0.836592973244142      -0.834181719566037      -0.831395192239800     
 -0.829175923584933      -0.827826239933467      -0.827127869986042     
 -0.825134159158107      -0.824863941824035      -0.824153087931794     
 -0.822574806682177      -0.820033786373490      -0.817193692738660     
 -0.814968118850519      -0.813624879798151      -0.812932186599596     
 -0.811209382151532      -0.810944848286062      -0.810249043191913     
 -0.808683957163302      -0.806144789906877      -0.803294110421699     
 -0.801055241493451      -0.799702559059396      -0.799004665384493     
 -0.797133441562170      -0.796878131426414      -0.796206638622762     
 -0.794686446714664      -0.792210744871544      -0.789425236244715     
 -0.787235235446776      -0.785911459236267      -0.785228307752176     
 -0.782954579116524      -0.782710892637701      -0.782070036226957     
 -0.780616297741586      -0.778246110978747      -0.775577522877243     
 -0.773478740125799      -0.772209870968045      -0.771555042549851     
 -0.768727811141016      -0.768496252643843      -0.767887397415170     
 -0.766508701980694      -0.764263227040805      -0.761736576898013     
 -0.759750058624779      -0.758549238803210      -0.757929512303683     
 -0.754500372143997      -0.754279472192605      -0.753698652651118     
 -0.752391637282354      -0.750270507653851      -0.747888755301277     
 -0.746018101360693      -0.744887828603783      -0.744304653079025     
 -0.740274386418582      -0.740063114656143      -0.739507378042931     
 -0.738269140572002      -0.736271303910579      -0.734035668078369     
 -0.732282653796827      -0.731224343070167      -0.730678511156468     
 -0.726042154465517      -0.725840095573576      -0.725308714321591     
 -0.724139437542251      -0.722267311043123      -0.720181659693956     
 -0.718549834822245      -0.717565750707698      -0.717058444887856     
 -0.711798892312218      -0.711606346394426      -0.711099808742466     
 -0.710001811945020      -0.708259784645322      -0.706329677507051     
 -0.704823707985534      -0.703916685755681      -0.703449408819478     
 -0.697523131363060      -0.697341954175415      -0.696865260434433     
 -0.695847965979060      -0.694249835638134      -0.692489620853839     
 -0.691120359886904      -0.690296876195765      -0.689872871546958     
 -0.683243236670692      -0.683073414813402      -0.682626542404885     
 -0.681690671987947      -0.680238097773482      -0.678650085278316     
 -0.677419476404244      -0.676680715860583      -0.676300638591357     
 -0.668950139963803      -0.668792675075454      -0.668378306305769     
 -0.667528136124769      -0.666226731321870      -0.664816284784670     
 -0.663728200467289      -0.663076417219391      -0.662741437076568     
  0.404789425692836       0.403844502653822       0.401352840557927     
  0.397494856185501       0.392895213094281       0.388810525977113     
  0.386020565612829       0.384454622804765       0.383674556583604     
  0.411246093915291       0.410088058478525       0.407035055963410     
  0.402115842756339       0.395985611455388       0.390306816028419     
  0.386313125147628       0.384033689122507       0.382888751628854     
  0.417115602390581       0.415807285290704       0.412358783981981     
  0.406617157820369       0.399216524518034       0.392152990909552     
  0.387087829193485       0.384165609147972       0.382690071691634     
  0.422477065910909       0.421046731130435       0.417276985532680     
  0.410857811636995       0.402400775058002       0.394179009051204     
  0.388215013298962       0.384752823162473       0.382999471439010     
  0.426870561890802       0.425346473412240       0.421329836510805     
  0.414449280182835       0.405332816332425       0.396428775514340     
  0.389951399480453       0.386185396152159       0.384276838726821     
  0.430497778958076       0.428931934630786       0.424805688626441     
  0.417704732323346       0.408255698894745       0.398994566785418     
  0.392242921792316       0.388313243415472       0.386320484927252     
  0.433554873452314       0.431985582297889       0.427850079100665     
  0.420706579102641       0.411167928168514       0.401792656840613     
  0.394946174860897       0.390957604980422       0.388934218971084     
  0.436239235576854       0.434690428423693       0.430609286614433     
  0.423537776063154       0.414067963190965       0.404738780865904     
  0.397916623637687       0.393939182084821       0.391920720114248     
  0.438690001302380       0.437175957862899       0.433186403174670     
  0.426256212535950       0.416954013943321       0.407773143665864     
  0.401051929232332       0.397131114125264       0.395140817656426     
  0.440943098747059       0.439475735195070       0.435609182995193     
  0.428878908330332       0.419828131157049       0.410882137528687     
  0.404326863201535       0.400501082042634       0.398558548749818     
  0.443001320102232       0.441592651092324       0.437881009151997     
  0.431409148041527       0.422692417658065       0.414065895664779     
  0.407740081544080       0.404046757027959       0.402171190662346     
  0.444853716637027       0.443516840112314       0.439994084299014     
  0.433842975073701       0.425547643927753       0.417329718671191     
  0.411299937761048       0.407778265236276       0.405989657395256     
  0.446478228657776       0.445227916734552       0.441933340877626     
  0.436173200330258       0.428396173504720       0.420684734875532     
  0.415023370545792       0.411716090668851       0.410036008642211     
  0.447835741931866       0.446688933303483       0.443667247674915     
  0.438379420925892       0.431234049793136       0.424144418779202     
  0.418937543227475       0.415894979674544       0.414349323906191     
  0.448932200035449       0.447905931876034       0.445201551305488     
  0.440466103225129       0.434063474099696       0.427707721823306     
  0.423038649785500       0.420309944463453       0.418923729070313     
  4.161923142493988E-002  4.173709355178682E-002  4.205099074287574E-002
  4.169761096752989E-002  4.011776831865986E-002  3.768954659934976E-002
  3.552892124843805E-002  3.415091616022755E-002  3.342311935459134E-002
  4.984971925085393E-002  4.997112806341741E-002  5.029450461148759E-002
  4.992028451842889E-002  4.826641193848997E-002  4.572879744024282E-002
  4.347208024132897E-002  4.203313757273664E-002  4.127316340451175E-002
  5.763187928999803E-002  5.771752042066383E-002  5.794629472494334E-002
  5.752749479387751E-002  5.596094356452661E-002  5.362551976743765E-002
  5.156788304595199E-002  5.026069486264901E-002  4.957143676042801E-002
  6.524817713621855E-002  6.528456021100824E-002  6.538274087147063E-002
  6.491282466183797E-002  6.349405583555791E-002  6.147430771391910E-002
  5.972272739156314E-002  5.861712417295992E-002  5.803567079004281E-002
  7.274136206466249E-002  7.282065180886108E-002  7.303196494849229E-002
  7.274761187453162E-002  7.156460226845052E-002  6.976712583114374E-002
  6.817356341386924E-002  6.715874470401087E-002  6.662301773743379E-002
  8.024295528154961E-002  8.035294635971177E-002  8.064502370608083E-002
  8.051615445413621E-002  7.956035214761843E-002  7.800168460658927E-002
  7.658948630884171E-002  7.568245530107590E-002  7.520195639638325E-002
  8.776713551269280E-002  8.789847489247826E-002  8.824688061366601E-002
  8.824811526877019E-002  8.750667441059827E-002  8.619077080746151E-002
  8.497001143982828E-002  8.417885055917886E-002  8.375820956029902E-002
  9.533998956419654E-002  9.548511146020201E-002  9.586977409582562E-002
  9.597559976426136E-002  9.542589010450470E-002  9.433957678795180E-002
  9.330468698048518E-002  9.262746655871430E-002  9.226588738462957E-002
  0.102994060067836       0.103145383545327       0.103546306854535     
  0.103726449011682       0.103333001909254       0.102445356096148     
  0.101575551323197       0.101000552461306       0.100692348756824     
  0.110720153128696       0.110871691271396       0.111272682171996     
  0.111501449982499       0.111232887803755       0.110515493046996     
  0.109790926704615       0.109307055637047       0.109046689091025     
  0.118504354316183       0.118651150755889       0.119039696662882     
  0.119296777331298       0.119128148616947       0.118557871667496     
  0.117962291489490       0.117560273325582       0.117343019779374     
  0.126342035574709       0.126479991064669       0.126844955908193     
  0.127112382703886       0.127020484302519       0.126575524571337     
  0.126093534969858       0.125764458150831       0.125585870396681     
  0.134203791644251       0.134330911002807       0.134667098450910     
  0.134936429150295       0.134910985520766       0.134581673462938     
  0.134206546457294       0.133946556215152       0.133804646202976     
  0.142152342940902       0.142262629461630       0.142554233152647     
  0.142798031091538       0.142801942186083       0.142551610323450     
  0.142256358519234       0.142049759812789       0.141936528301383     
  0.150170292902995       0.150259473247863       0.150495476007078     
  0.150692912583133       0.150696725867864       0.150495142022128     
  0.150257091451777       0.150090458492258       0.149999110215126     
  4.445407463535507E-002  0.122177878471016       0.302137031058202     
  0.554285126031314       0.783375434071515       0.925585898234961     
  0.988778438314739        1.00675632125852       6.998282652016941E-002
  0.179575780191756       0.408820171399648       0.717799078252530     
  0.990907661325866        1.14989189543927        1.21577357339205     
   1.23431286361430       8.366351687833308E-002  0.206087143891285     
  0.445552344379136       0.758438808039343        1.03048304043164     
   1.18563666053102        1.24837087915638        1.26601798070028     
  8.037204363639357E-002  0.197402406360778       0.431051294578560     
  0.741678356006258        1.01611953303896        1.17367147964991     
   1.23721903931400        1.25514660125442       6.300814926575514E-002
  0.164303136506944       0.393451542550106       0.709532399339531     
  0.993447212200000        1.15826589191702        1.22566245276355     
   1.24495653063652       4.585644567030295E-002  0.130505131250860     
  0.350491561342294       0.665542456158170       0.953237565246203     
   1.12149232621292        1.19058796600031        1.21044561142095     
  2.972898509410323E-002  9.796466459968023E-002  0.305609238135699     
  0.613700865322235       0.899099086158838        1.06688403580660     
   1.13588776274917        1.15574986872148       1.551675078465964E-002
  6.872923172863218E-002  0.262583302279727       0.559768389470652     
  0.838450179507802        1.00298010270129        1.07073723096253     
   1.09026656191941       4.399692822584019E-003  4.517800692722276E-002
  0.224946102359820       0.508355271993111       0.776846881474210     
  0.936023012983715        1.00173212261454        1.02070393543340     
 -3.483998633947218E-003  2.759730871824484E-002  0.193295305587719     
  0.460404400727935       0.715548173662128       0.867410668329735     
  0.930256621694137       0.948443445497539      -8.418491297853749E-003
  1.542907563118460E-002  0.166890367382669       0.415193084886679     
  0.653928678953037       0.796582873890297       0.855804828734314     
  0.872988501566145      -1.117194742195259E-002  7.102979981965989E-003
  0.143340559930390       0.369733869877479       0.588875801370370     
  0.720581856789268       0.775536941512693       0.791531627073755     
 -1.270622495809571E-002  5.476795714538207E-004  0.119336308135596     
  0.319301085612628       0.515075434470179       0.634954437819879     
  0.686062466636107       0.701158451258104      -1.556173160945387E-002
 -1.074333097637901E-002  8.101337735137649E-002  0.237204248676493     
  0.392519347553031       0.494274742983236       0.542175120046452     
  0.557244118792273     
 Zone I=  201 J=   15 K=1  T="NearWake"
 DATAPACKING=BLOCK
 VARLOCATION=([4]=CELLCENTERED)
 -0.856190271437242      -0.853951484177130      -0.851051958154692     
 -0.849008388007756      -0.847568388442247      -0.846665830242803     
 -0.846262618253812      -0.846326501351277      -0.846825752272551     
 -0.847727648679165      -0.848998160359258      -0.850602054205218     
 -0.852503065453950      -0.854663933780665      -0.857046217188554     
 -0.859609921331963      -0.862313083778157      -0.865111485788993     
 -0.867958616573464      -0.870805927183266      -0.873603342072311     
 -0.876299969760833      -0.878844954237159      -0.881188413729423     
 -0.883282413135838      -0.885081910412275      -0.886545613554876     
 -0.887636694211551      -0.888323327821388      -0.888579059428583     
 -0.888383018205162      -0.887720014482878      -0.886580548130734     
 -0.884960741761458      -0.882862193794192      -0.880291723447084     
 -0.877260983602529      -0.873785895939614      -0.869885898105917     
 -0.865583007369010      -0.860900754506045      -0.855863096523418     
 -0.850493477275443      -0.844814246035740      -0.838846634160822     
 -0.832611391518160      -0.826129997205463      -0.819426131429459     
 -0.812526920649148      -0.805463488939590      -0.798270579858315     
 -0.790985309022134      -0.783645356435519      -0.776287104789473     
 -0.768944358550082      -0.761648188471475      -0.754428069523228     
 -0.747314047698422      -0.740339392668051      -0.733542918455875     
 -0.726969718363400      -0.720669033236485      -0.714689003057890     
 -0.709069637684850      -0.703836196634769      -0.698994736287376     
 -0.694530584873551      -0.690410171717799      -0.686585111443923     
 -0.682997909950271      -0.679588159162220      -0.676299589683203     
 -0.673088244052238      -0.669931914933670      -0.666837471701567     
 -0.663842452277020      -0.661015260633119      -0.658451117796099     
 -0.656252579975306      -0.654504355468872      -0.653256861750186     
 -0.652524748439327      -0.652297965591469      -0.652554527817582     
 -0.653267953733398      -0.654408403784388      -0.655940632154279     
 -0.657821812459322      -0.660000420009153      -0.662415901570315     
 -0.664998689362417      -0.667670575303311      -0.670345684913134     
 -0.672932185254855      -0.675334747325816      -0.677457678980606     
 -0.679208422752644      -0.680500955318576      -0.681258792765619     
 -0.681417594943801      -0.680927368025564      -0.679754111503946     
 -0.677880807844382      -0.675307793846573      -0.672052395057351     
 -0.668147256091872      -0.663636642152050      -0.658570748537320     
 -0.652999634483989      -0.646969291009597      -0.640521796724879     
 -0.633699516346276      -0.626550670900273      -0.619132443309474     
 -0.611510417467206      -0.603757457461777      -0.595955537872112     
 -0.588199467000455      -0.580598045518601      -0.573269864775123     
 -0.566334230269265      -0.559899428680677      -0.554050768734228     
 -0.548841159316177      -0.544287060555252      -0.540371468217674     
 -0.537055353194398      -0.534298098831221      -0.532074502790281     
 -0.530356482307789      -0.529062923831570      -0.528030446451525     
 -0.526998931893313      -0.525571920046823      -0.523166656816058     
 -0.519088515466131      -0.512886275795698      -0.504773060556667     
 -0.495438879679783      -0.485142030172552      -0.473833368178181     
 -0.461938775211885      -0.450336511074813      -0.439889675752605     
 -0.430881931629388      -0.423256923926189      -0.416723403790889     
 -0.411350324792106      -0.407076521832304      -0.403695849814765     
 -0.401064576666244      -0.399110913987547      -0.397824825805109     
 -0.397201045759467      -0.397405833235457      -0.398725426147776     
 -0.401628305933853      -0.406690104679262      -0.414317661630085     
 -0.424342711167514      -0.436141130496286      -0.449078259392978     
 -0.462869533793455      -0.477633491787269      -0.493900213722560     
 -0.513458200993613      -0.542011582095549      -0.586995508089133     
 -0.617330169074210      -0.634625237900510      -0.648712454037094     
 -0.660641538797885      -0.669751483173162      -0.675913545819605     
 -0.679321838085263      -0.680105169914178      -0.678239504127707     
 -0.673682590514329      -0.666879868079822      -0.658898919522953     
 -0.650180946145005      -0.639833560690817      -0.625319014725795     
 -0.604028201036001      -0.585291281763971      -0.573510248684832     
 -0.565697473928480      -0.559351671853515      -0.553847909967742     
 -0.549494900754754      -0.546433521456853      -0.544434160033276     
 -0.542805087717135      -0.540683522478409      -0.537834882706785     
 -0.534788550262478      -0.532119455538027      -0.529785117709108     
 -0.527587790711788      -0.525469511120333      -0.522925522042877     
 -0.841416996301125      -0.839292618324307      -0.836510262616670     
 -0.834556300467002      -0.833292837444870      -0.832661880960320     
 -0.832621903573802      -0.833135022842649      -0.834163217988539     
 -0.835667159358601      -0.837605915358084      -0.839936912377290     
 -0.842615871925747      -0.845596567444471      -0.848830334254273     
 -0.852265498582426      -0.855847132298045      -0.859517416931396     
 -0.863216516205696      -0.866883657667827      -0.870458194861252     
 -0.873880562463847      -0.877093108811132      -0.880040814613037     
 -0.882671907462531      -0.884938377791201      -0.886796416184851     
 -0.888206815560337      -0.889135376667159      -0.889553319448960     
 -0.889437671667119      -0.888771601547434      -0.887544670372967     
 -0.885752987804044      -0.883399251817164      -0.880492644140657     
 -0.877048536194380      -0.873087949912849      -0.868636727932589     
 -0.863724401427942      -0.858382791182919      -0.852644461934807     
 -0.846541273079301      -0.840103375768937      -0.833358998084989     
 -0.826335181407844      -0.819059360515671      -0.811561321743202     
 -0.803874850185027      -0.796038564198797      -0.788095762504115     
 -0.780093284569332      -0.772079475325136      -0.764101637515353     
 -0.756203758164138      -0.748425382442358      -0.740802124381071     
 -0.733367791189988      -0.726157736074098      -0.719212342829024     
 -0.712578444729561      -0.706306492244253      -0.700443391548764     
 -0.695024062121927      -0.690065448609733      -0.685562863443433     
 -0.681485829675965      -0.677773236720344      -0.674331308785896     
 -0.671037886661655      -0.667759012933564      -0.664385009616222     
 -0.660873578805728      -0.657259738049152      -0.653613435832141     
 -0.649998631454424      -0.646489429590986      -0.643190585591652     
 -0.640215113608072      -0.637651907844840      -0.635562249447673     
 -0.633999692351814      -0.633018362803608      -0.632658850313114     
 -0.632929787974107      -0.633801423706726      -0.635211796152209     
 -0.637077745754720      -0.639304243001498      -0.641789792352658     
 -0.644428822682910      -0.647113151025227      -0.649734086888300     
 -0.652185567410667      -0.654367816099171      -0.656190597475521     
 -0.657575173111205      -0.658454528207689      -0.658772225224357     
 -0.658481079385148      -0.657542982772368      -0.655930199654134     
 -0.653627277696234      -0.650632445266612      -0.646957908677695     
 -0.642629422214800      -0.637686825877396      -0.632187927908700     
 -0.626215694780666      -0.619882099523788      -0.613317473889280     
 -0.606643925133939      -0.599950061663807      -0.593286346067155     
 -0.586680369030790      -0.580156095096982      -0.573745473682899     
 -0.567491039210632      -0.561441569719769      -0.555641737451625     
 -0.550117155417086      -0.544860171757834      -0.539830728512430     
 -0.534995376569037      -0.530401671940288      -0.526206649134665     
 -0.522598717289885      -0.519701162427538      -0.517548496435283     
 -0.516124721689350      -0.515405113367795      -0.515354968207802     
 -0.515921013678944      -0.517004102140758      -0.518290542509569     
 -0.519019553916295      -0.518088776688665      -0.514572760347332     
 -0.508526354594117      -0.499989117730783      -0.488358534359055     
 -0.474462938354902      -0.459218139048632      -0.444718355307198     
 -0.432612636042928      -0.422915191454546      -0.415344205661559     
 -0.409564606019588      -0.404953426483486      -0.401062896225057     
 -0.397624255312985      -0.394444558354601      -0.391380153129746     
 -0.388436968845488      -0.385875144567534      -0.384159358062858     
 -0.383931844639123      -0.386046091835350      -0.391419265326085     
 -0.400388332308255      -0.412314406142306      -0.425887564703852     
 -0.439862022162704      -0.453597619875283      -0.467109423139371     
 -0.480772028668222      -0.495272876650932      -0.511901017437577     
 -0.533173535144771      -0.562443496120978      -0.592294062926617     
 -0.609837726115308      -0.619134660364132      -0.624683434152282     
 -0.628505135749069      -0.631257714311466      -0.632876215290351     
 -0.632922255300386      -0.630997332184684      -0.627026677272452     
 -0.621171718854377      -0.613296522058114      -0.602119433430578     
 -0.586853017730905      -0.570857828790662      -0.556755308956017     
 -0.544573606323920      -0.533529987872722      -0.522967848647315     
 -0.513321698130254      -0.506004205642492      -0.501879882056669     
 -0.500021833503083      -0.497869724484013      -0.492702741448065     
 -0.485634025540303      -0.481339820038982      -0.482680834505964     
 -0.487538604775753      -0.491281717678750      -0.491411711396906     
 -0.827022165233584      -0.824967539376328      -0.822317220567015     
 -0.820526252056054      -0.819510540985380      -0.819224285176537     
 -0.819629076186164      -0.820686213491515      -0.822354306093476     
 -0.824588549535891      -0.827340623572052      -0.830558876642142     
 -0.834188648950710      -0.838172435400606      -0.842449513203433     
 -0.846955289008114      -0.851621324964223      -0.856376436660226     
 -0.861148268919342      -0.865864731945193      -0.870455138755307     
 -0.874851107319429      -0.878987271079932      -0.882801806895278     
 -0.886236797736957      -0.889238501955067      -0.891757661502676     
 -0.893749935901092      -0.895176443462557      -0.896004331330582     
 -0.896207294781047      -0.895766003748520      -0.894668424556876     
 -0.892910021158990      -0.890493818873736      -0.887430316632914     
 -0.883737206736186      -0.879438813846621      -0.874565160179398     
 -0.869150616863115      -0.863232171733265      -0.856847469563052     
 -0.850032941044303      -0.842822435896214      -0.835246732658354     
 -0.827334165278924      -0.819112400450290      -0.810610932389384     
 -0.801863649494560      -0.792911000976777      -0.783801306329999     
 -0.774590574827734      -0.765340340022988      -0.756113886533725     
 -0.746972140661722      -0.737970561330274      -0.729157769120430     
 -0.720576312465425      -0.712265210229835      -0.704262118955311     
 -0.696602743895480      -0.689317959700633      -0.682433379483297     
 -0.675976132421613      -0.669982636236209      -0.664486844816771     
 -0.659478125747741      -0.654863932914690      -0.650480378361178     
 -0.646153916640954      -0.641779532727130      -0.637370270379845     
 -0.633050557598617      -0.629018424442955      -0.625380499626220     
 -0.621923269662501      -0.618395643234720      -0.614769270003203     
 -0.611236980564455      -0.608156078865631      -0.605927871917808     
 -0.604823778459916      -0.604893749567142      -0.606013955293595     
 -0.607987273415198      -0.610613807186186      -0.613718171718369     
 -0.617151924460881      -0.620787327977823      -0.624509497581279     
 -0.628209346190667      -0.631779239793438      -0.635112528948681     
 -0.638106310932169      -0.640665748489273      -0.642708423749841     
 -0.644167761965466      -0.644994905122128      -0.645158562986666     
 -0.644642825454587      -0.643443860749809      -0.641566996209516     
 -0.639025488051515      -0.635841820831931      -0.632051511034852     
 -0.627708246626158      -0.622887978124122      -0.617688422071147     
 -0.612220717883933      -0.606593565161035      -0.600895621509051     
 -0.595184611451907      -0.589487053878094      -0.583804155106490     
 -0.578117135816950      -0.572390221807750      -0.566573964191823     
 -0.560612109848701      -0.554453501732675      -0.548067957440494     
 -0.541463953593548      -0.534707235770072      -0.527939400837559     
 -0.521384316067211      -0.515313490175943      -0.509959083432767     
 -0.505425039838245      -0.501655217071372      -0.498459057310029     
 -0.495573902581499      -0.492726244970185      -0.489656138396546     
 -0.486133188943100      -0.482018414773587      -0.477386902794932     
 -0.472673317646036      -0.468763411964045      -0.466933766693484     
 -0.468451570025121      -0.472861972377594      -0.475146993411462     
 -0.469491260303675      -0.454877390441147      -0.435494995553908     
 -0.417835582594581      -0.403397928720756      -0.391740945086373     
 -0.381383732881945      -0.370718116890726      -0.359372228687263     
 -0.349219527256170      -0.343058476731775      -0.341436362390141     
 -0.341681066273951      -0.340403467159998      -0.336802927609299     
 -0.334463906704199      -0.335245953500294      -0.340028237594009     
 -0.349870616738559      -0.365444973361171      -0.385385399078385     
 -0.405952044548293      -0.424224303330943      -0.439654885391177     
 -0.452752755053580      -0.464172266871906      -0.474572709770558     
 -0.484611226672643      -0.494927244382909      -0.505863660502898     
 -0.517295764647199      -0.528608233005020      -0.538731959716130     
 -0.546262172730461      -0.550302881102752      -0.550955262777231     
 -0.548800653279573      -0.544515064238185      -0.538755180430580     
 -0.532124367841740      -0.525146096844001      -0.518193840394028     
 -0.511476743623185      -0.505112167225220      -0.499187308849852     
 -0.493790795009814      -0.489010776967814      -0.484882264593487     
 -0.481253135600141      -0.477612150527170      -0.473053709659615     
 -0.466554420678974      -0.457375982582423      -0.446053857988699     
 -0.435139290185884      -0.428824528339352      -0.430905383150723     
 -0.435874191816413      -0.434867096430422      -0.424959309400510     
 -0.812826481847138      -0.810802963816499      -0.808280086836240     
 -0.806690754645514      -0.805969075183542      -0.806075800388497     
 -0.806974820109104      -0.808626660282764      -0.810986358310743     
 -0.814003007929199      -0.817620110497637      -0.821776396247822     
 -0.826406853992646      -0.831443369829088      -0.836814365862964     
 -0.842444095301730      -0.848253071307887      -0.854159777985059     
 -0.860082573436694      -0.865941136379827      -0.871657502413559     
 -0.877156795596618      -0.882367632227639      -0.887222252835089     
 -0.891656585457939      -0.895610468894316      -0.899028132207991     
 -0.901858845300482      -0.904057600069910      -0.905585721527503     
 -0.906411358109138      -0.906509865970879      -0.905864103897566     
 -0.904464603602644      -0.902309580898194      -0.899404806082820     
 -0.895763348210061      -0.891405157059996      -0.886356432917559     
 -0.880648732479148      -0.874317787754995      -0.867402062911336     
 -0.859941139551218      -0.851974086840351      -0.843538051584082     
 -0.834667505028329      -0.825394643141361      -0.815751031088527     
 -0.805770489117959      -0.795493059744077      -0.784969134832405     
 -0.774262005717930      -0.763447431378527      -0.752610201137507     
 -0.741838410244349      -0.731216168273683      -0.720816330350139     
 -0.710695029976924      -0.700887552747254      -0.691404929071188     
 -0.682234468980551      -0.673352041260601      -0.664749995354452     
 -0.656465821773068      -0.648581436566734      -0.641176778862518     
 -0.634268130501371      -0.627800860032704      -0.621719572276848     
 -0.616037198425226      -0.610812719126954      -0.606183896579176     
 -0.602287270876464      -0.598959837803129      -0.595882860484190     
 -0.592683962010468      -0.589105794408128      -0.585372388149713     
 -0.582046684983605      -0.579792978180036      -0.579083736418232     
 -0.580003959945049      -0.582320029707696      -0.585679375383732     
 -0.589756940987099      -0.594304972655946      -0.599145225918697     
 -0.604145820832320      -0.609201703963699      -0.614220575952432     
 -0.619112048490302      -0.623781495827365      -0.628130453933484     
 -0.632061375146866      -0.635483266936401      -0.638316558829095     
 -0.640497052415961      -0.641978987980560      -0.642736798385817     
 -0.642765049081369      -0.642076852146642      -0.640701770569851     