 Title = "Wing and Wake"
 VARIABLES = "X" "Y" "Z" "GAM"
 Zone I=    9 J=   15 K=1  T="Blade"
 DATAPACKING=BLOCK
 VARLOCATION=([4]=CELLCENTERED)
  -1.36600918112149       -1.36680996999674       -1.36892335951033     
  -1.37171101192701       -1.37436568537752       -1.37613122402046     
  -1.37704726285172       -1.37746598254483       -1.37765069168823     
  -1.35847441483737       -1.35944250953087       -1.36199666372282     
  -1.36559521452093       -1.36939404232779       -1.37233257527753     
  -1.37412656901470       -1.37506338512795       -1.37551245631229     
  -1.35113616435068       -1.35220014457036       -1.35500636991114     
  -1.35921692315294       -1.36405129996874       -1.36818036383823     
  -1.37092016945271       -1.37243150131257       -1.37317776437854     
  -1.34409607246799       -1.34522623222038       -1.34820616836482     
  -1.35291261441139       -1.35865150199998       -1.36386097332250     
  -1.36747448208075       -1.36952091920930       -1.37054485460117     
  -1.33773551232630       -1.33896314561796       -1.34219985084111     
  -1.34737121110139       -1.35375756761741       -1.35962443797356     
  -1.36372727946310       -1.36606172317635       -1.36723241308281     
  -1.33197401816046       -1.33325175647381       -1.33662008737889     
  -1.34205212556027       -1.34882755155328       -1.35510920494868     
  -1.35952943909248       -1.36205303598037       -1.36332090558858     
  -1.32666771109218       -1.32796044769741       -1.33136847830070     
  -1.33690862254190       -1.34387730412391       -1.35038762667059     
  -1.35499192953110       -1.35762809152033       -1.35895427023643     
  -1.32167849682646       -1.32296330643992       -1.32635011541120     
  -1.33189482104190       -1.33892081816599       -1.34552795498118     
  -1.35022070703896       -1.35291402311439       -1.35427048284209     
  -1.31691731537077       -1.31817874792608       -1.32150392371299     
  -1.32698194937641       -1.33396818813514       -1.34057501701952     
  -1.34528480481496       -1.34799322752371       -1.34935866263772     
  -1.31235104272953       -1.31357640127475       -1.31680623373126     
  -1.32215730846537       -1.32902068467604       -1.33554367281342     
  -1.34020863569955       -1.34289597693206       -1.34425199285852     
  -1.30796939102963       -1.30914649723303       -1.31224901931426     
  -1.31741605353679       -1.32407808957395       -1.33043828174350     
  -1.33499977976988       -1.33763166521424       -1.33896064289837     
  -1.30377822304512       -1.30489455339755       -1.30783698908351     
  -1.31276126940121       -1.31914083141052       -1.32525652892208     
  -1.32965404936545       -1.33219493987395       -1.33347880922282     
  -1.29977766784407       -1.30082061538032       -1.30356949414350     
  -1.30819169678172       -1.31420770707133       -1.31999741843537     
  -1.32417094716614       -1.32658547391942       -1.32780636276380     
  -1.29603431281426       -1.29698728021419       -1.29949880563988     
  -1.30374001091011       -1.30928315136691       -1.31463628087495     
  -1.31850349197578       -1.32074356991231       -1.32187677537318     
  -1.29253341592996       -1.29338072449369       -1.29561409430644     
  -1.29940019045721       -1.30436731470274       -1.30917950217863     
  -1.31266269836568       -1.31468246898116       -1.31570467059742     
  0.313061980838607       0.312733812511086       0.311868467346459     
  0.310528603434981       0.308931164153564       0.307512567205091     
  0.306543624139050       0.305999777909147       0.305728863753618     
  0.298975758179866       0.298573576693328       0.297513280047005     
  0.295804855229079       0.293675848240907       0.291703623286433     
  0.290316628999204       0.289524989175462       0.289127356556830     
  0.284685717080936       0.284231343320526       0.283033691384643     
  0.281039645545026       0.278469432571963       0.276016293093959     
  0.274257180890790       0.273242304519501       0.272729855738755     
  0.270219133820799       0.269722383764634       0.268413164857997     
  0.266183809159773       0.263246711178962       0.260391321810394     
  0.258320047822414       0.257117641806539       0.256508709143360     
  0.255416378961789       0.254887068587978       0.253492105231410     
  0.251102513096039       0.247936398427258       0.244844057503394     
  0.242594488414696       0.241286569184606       0.240623734146842     
  0.240347498229260       0.239803686201370       0.238370656002852     
  0.235904519759402       0.232622904888220       0.229406547460386     
  0.227061725761773       0.225696962783862       0.225004885023841     
  0.225080716005018       0.224535706906631       0.223099461718762     
  0.220618550205122       0.217305811500896       0.214049813938451     
  0.211672055700037       0.210286839917553       0.209584125331076     
  0.209684385187268       0.209146490107860       0.207729124431904     
  0.205273214590740       0.201984383094533       0.198744392074795     
  0.196375081733922       0.194993730779059       0.194292726293299     
  0.194206927191520       0.193681105423171       0.192295547620546     
  0.189888717669947       0.186658098002136       0.183469615215982     
  0.181135361939798       0.179773677143178       0.179082454433517     
  0.178660919722270       0.178151309708714       0.176808470221991     
  0.174471070360487       0.171327768435265       0.168220857453298     
  0.165944234571264       0.164615554718470       0.163940919985763     
  0.163047132497391       0.162557906884379       0.161268867166198     
  0.159021213390307       0.155993924697701       0.152997965050226     
  0.150801032861587       0.149518354718072       0.148866977355109     
  0.147361863062560       0.146897570717997       0.145674130463304     
  0.143537872648092       0.140656934374817       0.137802878884808     
  0.135708757951254       0.134485693918722       0.133864516934413     
  0.131597450166561       0.131163221392595       0.130019027205114     
  0.128018551386801       0.125317618314958       0.122639463784662     
  0.120673292586726       0.119524686339396       0.118941199974879     
  0.115740409578972       0.115342127122067       0.114292706716301     
  0.112456263758729       0.109974702406815       0.107512499395013     
  0.105704170493221       0.104647499260417       0.104110698645466     
  9.979260548212193E-002  9.943618629076012E-002  9.849696477517456E-002
  9.685236091599103E-002  9.462875115617503E-002  9.242142155517774E-002
  9.079986985366034E-002  8.985220044053055E-002  8.937077288678696E-002
  2.309669717671002E-002  2.268043405549884E-002  2.158589946950669E-002
  1.905176340519017E-002  1.487193598969270E-002  1.013481245551126E-002
  6.397139863591480E-003  4.133973173570575E-003  2.965237744707170E-003
  2.812620684585538E-002  2.759302693596935E-002  2.619066957939626E-002
  2.303582517516219E-002  1.791679069411918E-002  1.216919200577210E-002
  7.655009336875095E-003  4.927597362233692E-003  3.520438187868717E-003
  3.237553397559346E-002  3.172163848088638E-002  3.000112004819396E-002
  2.633682035555925E-002  2.058700241010151E-002  1.425886017456003E-002
  9.338100588734428E-003  6.379104329807182E-003  4.855786968424095E-003
  3.617178051406524E-002  3.539965550101708E-002  3.336695754028261E-002
  2.926855233441236E-002  2.306937645477407E-002  1.640220983815286E-002
  1.127943357808181E-002  8.216799903958610E-003  6.644250542259730E-003
  3.929776279936027E-002  3.851554943371665E-002  3.645642668306348E-002
  3.228278453082669E-002  2.594662137206812E-002  1.911606518719533E-002
  1.386111455308911E-002  1.071753256954803E-002  9.102978369270844E-003
  4.199900813546135E-002  4.122389327885460E-002  3.918357731950661E-002
  3.504083615393807E-002  2.874389270092357E-002  2.195029672556891E-002
  1.672167750480408E-002  1.359336460300567E-002  1.198644314547793E-002
  4.440061613108772E-002  4.364490122970597E-002  4.165568094342239E-002
  3.761899552365904E-002  3.148575651265870E-002  2.487040637592626E-002
  1.977961872583041E-002  1.673388706127456E-002  1.516951106014511E-002
  4.664016606158718E-002  4.590981242073047E-002  4.398757725491751E-002
  4.009617545466882E-002  3.419357890299127E-002  2.783387122752662E-002
  2.294270289645806E-002  2.001720206629148E-002  1.851467124195246E-002
  4.882889022552516E-002  4.812438863124509E-002  4.627018448614573E-002
  4.253298137689863E-002  3.688139268449551E-002  3.080418707460143E-002
  2.613516249397049E-002  2.334389177163979E-002  2.191065719032136E-002
  5.097794533693979E-002  5.030004458479064E-002  4.851543616394888E-002
  4.493986279909820E-002  3.955527698330259E-002  3.378108831997220E-002
  2.935110113218069E-002  2.670467689769784E-002  2.534627798920136E-002
  5.307491136359156E-002  5.242544646424536E-002  5.071595730359329E-002
  4.731476710941420E-002  4.221893735742865E-002  3.677245037891391E-002
  3.260115355851829E-002  3.011145439639066E-002  2.883402207485392E-002
  5.510901334784697E-002  5.449128877085710E-002  5.286498792930753E-002
  4.965545141143336E-002  4.487455123626253E-002  3.978434402465639E-002
  3.589397290279268E-002  3.357424273613140E-002  3.238463020290792E-002
  5.703837661273594E-002  5.645874723243544E-002  5.493264952696630E-002
  5.194601506127539E-002  4.752454528905627E-002  4.283628133712405E-002
  3.926102320744754E-002  3.713156676358467E-002  3.603997705032681E-002
  5.890365389888470E-002  5.836569773971315E-002  5.694926964478354E-002
  5.420408154206879E-002  5.016901488798491E-002  4.591121282132084E-002
  4.267273328231638E-002  4.074630137746100E-002  3.975937567447028E-002
  6.069072438826019E-002  6.019979851009320E-002  5.890712868599256E-002
  5.642781564736745E-002  5.281249199856895E-002  4.901826873030655E-002
  4.614098813018171E-002  4.443193282848560E-002  4.355701529740270E-002
  9.255249020030035E-003  4.075480485719228E-002  0.146893841705836     
  0.310814032384655       0.467179312347183       0.565831086124002     
  0.609467500054299       0.621815347874575       2.537679826160292E-002
  7.814760647936712E-002  0.221445362967383       0.431173240462817     
  0.626030207835426       0.743389246899046       0.792966036362847     
  0.807022246709931       3.854660399873749E-002  0.104885145224710     
  0.262508429335810       0.483578570408220       0.685197663726262     
  0.804732700422933       0.854465521534809       0.868655269843782     
  4.150233110940736E-002  0.110791235531360       0.274464312535444     
  0.505164884457950       0.716065832814026       0.839971650614605     
  0.890745574992469       0.905173621089562       3.374447649191305E-002
  9.765308539481116E-002  0.267447194181454       0.512908995096970     
  0.739100989661663       0.872637749213213       0.927873324311751     
  0.943776938541053       2.619475217665033E-002  8.404551622403943E-002
  0.256141513930204       0.511119922018897       0.748249263131543     
  0.888696979356522       0.946915265161874       0.963743845046292     
  1.914260107475930E-002  7.073747601116971E-002  0.241920959485689     
  0.500884346204960       0.743467642301657       0.887364140533758     
  0.946987549484550       0.964244486656886       1.314266057253313E-002
  5.898587261945173E-002  0.227096355711148       0.485633023743793     
  0.728989518714478       0.873343613280449       0.933062658204846     
  0.950342398802754       9.225772083576559E-003  5.088213145055935E-002
  0.214829617568235       0.469588200425837       0.710021069344947     
  0.852595526609287       0.911512246440219       0.928551408208563     
  7.977011491118059E-003  4.763000229123192E-002  0.207082084190782     
  0.455494592650929       0.690045872170947       0.829086253222973     
  0.886489345695143       0.903092928787662       9.808372206617774E-003
  5.008062072197862E-002  0.205173132112664       0.445268681855158     
  0.671655279668570       0.805983646475794       0.861521379661808     
  0.877616878857682       1.427493069701136E-002  5.727959871758978E-002
  0.207519070542182       0.436855917953538       0.652973669265740     
  0.782105017276891       0.835999383810828       0.851732391207252     
  1.943623303859160E-002  6.484496651024968E-002  0.206499622005231     
  0.418619588965016       0.619416102253359       0.742328540356629     
  0.795268662324737       0.811064094589654       1.760978495541636E-002
  5.536845887349964E-002  0.170995945858807       0.340492541601201     
  0.502953217647752       0.610782983456164       0.662901088601441     
  0.679576166764663     
 Zone I=  361 J=   15 K=1  T="NearWake"
 DATAPACKING=BLOCK
 VARLOCATION=([4]=CELLCENTERED)
  -1.37822271022134       -1.38162976397623       -1.38409621610003     
  -1.38672745598259       -1.38938135568210       -1.39197961992533     
  -1.39445992108585       -1.39676653576037       -1.39884881112267     
  -1.40066183533892       -1.40216365616610       -1.40331731686582     
  -1.40408985152518       -1.40445185145485       -1.40437845914171     
  -1.40384920043513       -1.40284817059722       -1.40136403072719     
  -1.39939055528408       -1.39692687583035       -1.39397639843061     
  -1.39054784275333       -1.38665364530186       -1.38230957439487     
  -1.37753426030415       -1.37234905259038       -1.36677692823931     
  -1.36084121439693       -1.35456543559899       -1.34797359712448     
  -1.34109046380961       -1.33394212220411       -1.32655672224140     
  -1.31896504643679       -1.31120066005042       -1.30329926180345     
  -1.29529732972577       -1.28723059783549       -1.27913279277005     
  -1.27103390194148       -1.26295974246688       -1.25496961825421     
  -1.24687718707442       -1.23899273549499       -1.23121871522141     
  -1.22358799603137       -1.21613666083672       -1.20890483567461     
  -1.20193494157071       -1.19526916964071       -1.18894744443540     
  -1.18300593175120       -1.17747625856586       -1.17238501105906     
  -1.16775368704109       -1.16359881213791       -1.15993196658336     
  -1.15675957543718       -1.15408250027225       -1.15189572150491     
  -1.15018845439313       -1.14894477972302       -1.14814466063708     
  -1.14776531799658       -1.14778302282745       -1.14817513079592     
  -1.14892183018636       -1.15000684308603       -1.15141647149721     
  -1.15313684947249       -1.15515001543102       -1.15743001078867     
  -1.15994022893346       -1.16263260922120       -1.16544845675472     
  -1.16832023366870       -1.17117374321634       -1.17393044823674     
  -1.17650992765073       -1.17883253843484       -1.18082223767486     
  -1.18240935125219       -1.18353298251553       -1.18414278288770     
  -1.18419990857795       -1.18367710742858       -1.18255801846557     
  -1.18083593866443       -1.17851247622238       -1.17559656770368     
  -1.17210419142483       -1.16805870770474       -1.16349125081470     
  -1.15844011461778       -1.15294814057580       -1.14705779792183     
  -1.14080490906300       -1.13421327032544       -1.12729325948745     
  -1.12004744249031       -1.11248438473884       -1.10463704764088     
  -1.09657529416320       -1.08840154811989       -1.08023078583213     
  -1.07216772038338       -1.06429138369812       -1.05664866829286     
  -1.04925441910718       -1.04209591150096       -1.03514020502524     
  -1.02834263928420       -1.02165498998453       -1.01503286399231     
  -1.00844260649816       -1.00186766398009      -0.995313273277960     
 -0.988807425049263      -0.982396263854732      -0.976134247795096     
 -0.970072675200163      -0.964251419138945      -0.958696235623247     
 -0.953419812883008      -0.948424363700176      -0.943703585606135     
 -0.939244801185346      -0.935032553777363      -0.931054749619481     
 -0.927310533884006      -0.923816364336836      -0.920606079120892     
 -0.917723648203095      -0.915211408281083      -0.913098713157230     
 -0.911395517897423      -0.910092803864864      -0.909168683221065     
 -0.908598116978944      -0.908364209079395      -0.908468207964926     
 -0.908934035738379      -0.909803286650794      -0.911119843943272     
 -0.912909035979561      -0.915160899726469      -0.917825996130148     
 -0.920824513219994      -0.924061203806361      -0.927437563190894     
 -0.930857797576367      -0.934230073811183      -0.937466062225993     
 -0.940480934370652      -0.943194497245722      -0.945532869414001     
 -0.947429421649716      -0.948823773675530      -0.949657728287231     
 -0.949866457223546      -0.949363854730184      -0.948025219318778     
 -0.945677889442988      -0.942119585087195      -0.937186276214385     
 -0.930857805516834      -0.923314820272365      -0.914851039021696     
 -0.905683475611582      -0.895798677169224      -0.884897408029449     
 -0.872465449465654      -0.858179119998769      -0.842881599913613     
 -0.828500211056758      -0.816024859882834      -0.805449651643330     
 -0.796631260878029      -0.789448802256800      -0.783739586934718     
 -0.779266245598900      -0.775721040294656      -0.772756136719400     
 -0.770031811393586      -0.767264691294467      -0.764255395701464     
 -0.760890810707368      -0.757130652411129      -0.752989289746879     
 -0.748521637138118      -0.743817122345071      -0.738994884368674     
 -0.734189726171494      -0.729528921582273      -0.725112662229454     
 -0.721005422105298      -0.717231372425916      -0.713763769872270     
 -0.710510032978739      -0.707303353427266      -0.703920000267276     
 -0.700129436766202      -0.695755038485430      -0.690727068485611     
 -0.685126790669969      -0.679206637898928      -0.673341220997853     
 -0.667904547194656      -0.663174506118476      -0.659251673404761     
 -0.656064537996790      -0.653473028732379      -0.651368307411825     
 -0.649719689899653      -0.648598360109025      -0.648165791470212     
 -0.648597436255039      -0.649991653465060      -0.652333667398618     
 -0.655544643565208      -0.659529625143132      -0.664155063813956     
 -0.669241046671766      -0.674597251368406      -0.680063169461564     
 -0.685535418943997      -0.690986361408340      -0.696474593271251     
 -0.702116538312618      -0.707981364081005      -0.714010287884213     
 -0.719992309424037      -0.725537983341988      -0.730147653247128     
 -0.733323582286967      -0.734556912848299      -0.733191696393694     
 -0.728404585818686      -0.719774041861905      -0.708106909441927     
 -0.694951652222329      -0.681137940556622      -0.666030409718190     
 -0.647413096218318      -0.621081581053208      -0.591788402430879     
 -0.567622100962189      -0.548451166860802      -0.534340389442598     
 -0.524549548623713      -0.517718925514650      -0.512499355776634     
 -0.507853527949405      -0.503339753709927      -0.499118742110091     
 -0.495544668858956      -0.492820716746849      -0.491045992505554     
 -0.490410562504575      -0.491236489011339      -0.493764475305060     
 -0.497795889693091      -0.502552469197266      -0.507046580857668     
 -0.510735442690318      -0.513421970919450      -0.518377415540214     
 -0.528986767595738      -0.540318607507713      -0.552885270082890     
 -0.566071610741870      -0.578178148096042      -0.588326224105339     
 -0.588183984303547      -0.582431056336126      -0.572782450071043     
 -0.556999312863550      -0.534804676182657      -0.514461912031305     
 -0.497379450370995      -0.484451319944660      -0.474251691194878     
 -0.466017744011791      -0.459426660376113      -0.454415379958360     
 -0.450959137103092      -0.449047281528604      -0.448637071822912     
 -0.449569617545227      -0.451605461827626      -0.454500308415195     
 -0.458068156984095      -0.462211135473898      -0.466886212855676     
 -0.472070692168653      -0.477810506589832      -0.484272491347844     
 -0.491820190937651      -0.501554935684795      -0.516742203092538     
 -0.544180839633653      -0.575135778212371      -0.571056718853643     
 -0.562886487661521      -0.561335491237127      -0.558749233152233     
 -0.555502169888931      -0.555033686869210      -0.559713180837722     
 -0.566041681750131      -0.557611385258028      -0.533855449920828     
 -0.521992815182171      -0.518872631576970      -0.516718020198854     
 -0.515124215616231      -0.513253783930832      -0.510498318449499     
 -0.506274583106499      -0.500268242293813      -0.491345922157731     
 -0.478988340251150      -0.467504045134116      -0.461305390564315     
 -0.460953928229719      -0.463906833065203      -0.467879403328132     
 -0.470457475176256      -0.470243628055969      -0.467639005674761     
 -0.462162399196051      -0.455800336334704      -0.450658213122965     
 -0.444492831575817      -0.430573039462717      -0.409716875046461     
 -0.394202724632135      -0.395634163970831      -0.396975104693225     
 -0.377889143272766      -0.357363851658730      -0.338673887551178     
 -0.318867705012277      -0.298892965044154      -0.283757959439354     
 -0.272039362048748      -0.256905135071255      -0.237471791761774     
 -0.233640480471962      -0.215122412502027      -0.200347100789780     
 -0.185943381208620      -0.177102549944694      -0.172013278887291     
 -0.169179679688070      -0.167378611069248      -0.167552893120874     
 -0.170935756756831      -0.185707735198756      -0.214200849214025     
 -0.245783221656798       -1.37608447484540       -1.38075161251299     
  -1.38387806494681       -1.38724735600706       -1.39068871212035     
  -1.39409277712820       -1.39737273525466       -1.40045459590032     
  -1.40327196687536       -1.40576665665822       -1.40788705621893     
  -1.40958679516647       -1.41082584425370       -1.41156913694813     
  -1.41178696145900       -1.41145499856060       -1.41055434045258     
  -1.40907146645354       -1.40699871803195       -1.40433457432467     
  -1.40108397204648       -1.39725774063161       -1.39287258597330     
  -1.38794979313953       -1.38251370844123       -1.37659089645169     
  -1.37021012740869       -1.36340201359691       -1.35619815611362     
  -1.34863082246873       -1.34073306972482       -1.33253936371923     
  -1.32408668128802       -1.31541532610161       -1.30656906342735     
  -1.29759468702115       -1.28854086002781       -1.27945638121201     
  -1.27038793893495       -1.26137565038360       -1.25245045078950     
  -1.24370008130249       -1.23493571676625       -1.22646679831549     
  -1.21815921365392       -1.21004392127701       -1.20215222104501     
  -1.19451932525408       -1.18718437756445       -1.18018799635193     
  -1.17356960895928       -1.16736559145631       -1.16160796446842     
  -1.15632328018667       -1.15153168846372       -1.14724609813100     
  -1.14347138524555       -1.14020398046876       -1.13743222697964     
  -1.13513786813196       -1.13329875621978       -1.13189248179175     
  -1.13090041133264       -1.13031134062178       -1.13012349914700     
  -1.13034355915497       -1.13098223481876       -1.13204749105177     
  -1.13353721589597       -1.13543314707694       -1.13769744882635     
  -1.14027279174378       -1.14308566825043       -1.14605145775283     
  -1.14907957368312       -1.15207780413593       -1.15495573577476     
  -1.15762746770498       -1.16001378393153       -1.16204379033310     
  -1.16365588275638       -1.16479790637744       -1.16542653802318     
  -1.16550620728389       -1.16500809747589       -1.16390976102421     
  -1.16219558326405       -1.15985787119407       -1.15689803216856     
  -1.15332735656985       -1.14916723921221       -1.14444895938294     
  -1.13921314050764       -1.13350870797466       -1.12739074320926     
  -1.12091654762961       -1.11414038467042       -1.10710977458366     
  -1.09986674927042       -1.09245336223753       -1.08491651214770     
  -1.07730910295415       -1.06968915158919       -1.06211889402976     
  -1.05466310854133       -1.04738417635335       -1.04033391566154     
  -1.03354606279311       -1.02703342274342       -1.02079045272210     
  -1.01479904014122       -1.00903467044763       -1.00347148169368     
 -0.998086038056175      -0.992860082862572      -0.987782096100765     
 -0.982846965079583      -0.978053328954572      -0.973399365051820     
 -0.968878656420617      -0.964477075891789      -0.960170744246570     
 -0.955926327764105      -0.951706163055506      -0.947478174686396     
 -0.943224978505698      -0.938945024234519      -0.934645876557039     
 -0.930337605575723      -0.926033650904725      -0.921758914136964     
 -0.917556621526162      -0.913483922165694      -0.909595245878621     
 -0.905925174532953      -0.902486262083483      -0.899287367973783     
 -0.896363627569360      -0.893799180146112      -0.891723202837053     
 -0.890274443343525      -0.889553527830307      -0.889592089851853     
 -0.890350706364889      -0.891735776558162      -0.893621520898240     
 -0.895871015070547      -0.898355568337227      -0.900971373196327     
 -0.903649954702043      -0.906358479263577      -0.909086530292021     
 -0.911816743162690      -0.914485369374645      -0.916956453881965     
 -0.919031326156840      -0.920481876025320      -0.921079343365504     
 -0.920607415185918      -0.918866396429323      -0.915681508606934     
 -0.910928574274093      -0.904580181255004      -0.896747223089339     
 -0.887672674320834      -0.877663797442742      -0.866966798484822     
 -0.855617248282001      -0.843634714545911      -0.831731876634520     
 -0.820841862030430      -0.811097718261522      -0.802182924362047     
 -0.793890905599121      -0.786229390997348      -0.779293225823665     
 -0.773148193084278      -0.767792408233376      -0.763169273981080     
 -0.759196436153816      -0.755791598198418      -0.752889922334192     
 -0.750454310773814      -0.748480100143545      -0.746990994490065     
 -0.746022616915755      -0.745596787048628      -0.745695871157573     
 -0.746244662627251      -0.747099378491323      -0.748038624694576     
 -0.748756441761456      -0.748880477415591      -0.748064952633727     
 -0.746149481285862      -0.743242830325117      -0.739624767459106     
 -0.735551332572183      -0.731116073267702      -0.726223084787664     
 -0.720657740775419      -0.714218142824033      -0.706826226341864     
 -0.698558123255432      -0.689654109356871      -0.680520048633505     
 -0.671597222659630      -0.663289670170086      -0.655922708949830     
 -0.649567779333693      -0.644081690643524      -0.639274478535069     
 -0.635068652547621      -0.631588559231447      -0.629071468679091     
 -0.627645590329350      -0.627274636009556      -0.627857355942598     
 -0.629275304010576      -0.631443914574301      -0.634370464120498     
 -0.638122969879768      -0.642798458652307      -0.648338838529853     
 -0.654291753434109      -0.660165974944686      -0.665797591037063     
 -0.671157338165585      -0.676182866645103      -0.680775583236224     
 -0.684800687335478      -0.688069123918269      -0.690300339658457     
 -0.690999858962307      -0.689243929404447      -0.683654070337118     
 -0.673439410146479      -0.659723378509051      -0.643812302773519     
 -0.625546618559482      -0.608229099904833      -0.594466236248357     
 -0.582744069298049      -0.571876465665090      -0.562383203537175     
 -0.554847987181552      -0.549654175336809      -0.546528152339005     
 -0.544615408146635      -0.542897568323841      -0.540723121059946     
 -0.538124007911092      -0.535690876052174      -0.534081079814634     
 -0.533202174560093      -0.531507112470836      -0.527044723217137     
 -0.520293695100387      -0.513873369544789      -0.509735647554778     
 -0.508211125746814      -0.508886709755751      -0.511497300203717     
 -0.515849656576949      -0.520638441224696      -0.523710489586751     
 -0.522559497666798      -0.522776716123927      -0.532601699950236     
 -0.544981170317659      -0.559644197572728      -0.580567273810582     
 -0.594579021951179      -0.591663533772880      -0.585114469661480     
 -0.574485624917228      -0.555909993948115      -0.531766747103460     
 -0.511857132658818      -0.495491884015396      -0.482316422417640     
 -0.470889404161623      -0.460847678920639      -0.452341666507244     
 -0.445725721948176      -0.441100452853517      -0.438340915897160     
 -0.437236759977745      -0.437579857053817      -0.439197916332445     
 -0.441976560455176      -0.445855359445837      -0.450608886172261     
 -0.455725291811387      -0.460892278277100      -0.466234932059338     
 -0.472140958495605      -0.479748263253900      -0.492472803524037     
 -0.518566874974567      -0.556875678848718      -0.573607632140524     
 -0.576864617110335      -0.577240998970915      -0.576671272865055     
 -0.577427689370321      -0.581119581784169      -0.573669251491226     
 -0.549485990383323      -0.526096276820022      -0.515809250667041     
 -0.513748930173121      -0.515105813326027      -0.515240469039501     
 -0.513188124916233      -0.509697238313047      -0.505637943239547     
 -0.501538125361143      -0.497153216532801      -0.492421299788535     
 -0.487169839276990      -0.480082242033710      -0.467502462020271     
 -0.444807997310989      -0.420989471051290      -0.403601268291734     
 -0.393358062794535      -0.389184181616850      -0.389337486915981     
 -0.393386873054341      -0.403096618704721      -0.421844840599456     
 -0.451448656294829      -0.488512462655236      -0.495593096805644     
 -0.493235172385538      -0.502060866121958      -0.508400286790760     
 -0.495941384463376      -0.461013951683540      -0.412708911216150     
 -0.365554860265378      -0.330571262922496      -0.303050853886166     