 Title = "Wing and Wake"
 VARIABLES = "X" "Y" "Z" "GAM" "skew"
 Zone I=   17 J=   20 K=1  T="Blade 01"
 DATAPACKING=BLOCK
 VARLOCATION=([4]=CELLCENTERED,[5]=CELLCENTERED)
 -0.430513849156734      -0.429910303135938      -0.428359101540893     
 -0.426024476763536      -0.422821316475766      -0.418619247491490     
 -0.413384201101014      -0.407273511463085      -0.400654849541478     
 -0.394046760918681      -0.387962931959866      -0.382762736931117     
 -0.378601189324503      -0.375432782772239      -0.373116208866843     
 -0.371472061902650      -0.370337574347186      -0.438573982141878     
 -0.437970436121084      -0.436419234526040      -0.434084609748684     
 -0.430881449460914      -0.426679380476637      -0.421444334086160     
 -0.415333644448235      -0.408714982526623      -0.402106893903828     
 -0.396023064945017      -0.390822869916269      -0.386661322309651     
 -0.383492915757388      -0.381176341851988      -0.379532194887798     
 -0.378397707332338      -0.449972847415619      -0.449369301394823     
 -0.447818099799781      -0.445483475022423      -0.442280314734653     
 -0.438078245750375      -0.432843199359899      -0.426732509721975     
 -0.420113847800363      -0.413505759177568      -0.407421930218753     
 -0.402221735190006      -0.398060187583393      -0.394891781031127     
 -0.392575207125726      -0.390931060161534      -0.389796572606077     
 -0.465886074784709      -0.465282528763914      -0.463731327168870     
 -0.461396702391510      -0.458193542103743      -0.453991473119469     
 -0.448756426728989      -0.442645737091065      -0.436027075169451     
 -0.429418986546657      -0.423335157587843      -0.418134962559096     
 -0.413973414952477      -0.410805008400217      -0.408488434494818     
 -0.406844287530623      -0.405709799975166      -0.487704880984109     
 -0.487101334963314      -0.485550133368273      -0.483215508590914     
 -0.480012348303139      -0.475810279318866      -0.470575232928388     
 -0.464464543290464      -0.457845881368854      -0.451237792746057     
 -0.445153963787246      -0.439953768758494      -0.435792221151880     
 -0.432623814599615      -0.430307240694217      -0.428663093730024     
 -0.427528606174566      -0.516893284434780      -0.516289738413984     
 -0.514738536818943      -0.512403912041583      -0.509200751753814     
 -0.504998682769537      -0.499763636379057      -0.493652946741132     
 -0.487034284819524      -0.480426196196731      -0.474342367237916     
 -0.469142172209165      -0.464980624602554      -0.461812218050283     
 -0.459495644144884      -0.457851497180698      -0.456717009625238     
 -0.554680271533990      -0.554076725513193      -0.552525523918156     
 -0.550190899140789      -0.546987738853020      -0.542785669868742     
 -0.537550623478265      -0.531439933840345      -0.524821271918731     
 -0.518213183295937      -0.512129354337124      -0.506929159308369     
 -0.502767611701762      -0.499599205149493      -0.497282631244097     
 -0.495638484279906      -0.494503996724449      -0.601574420769448     
 -0.600970874748651      -0.599419673153607      -0.597085048376257     
 -0.593881888088489      -0.589679819104215      -0.584444772713735     
 -0.578334083075809      -0.571715421154191      -0.565107332531402     
 -0.559023503572587      -0.553823308543841      -0.549661760937218     
 -0.546493354384960      -0.544176780479561      -0.542532633515366     
 -0.541398145959909      -0.656811361407037      -0.656207815386246     
 -0.654656613791207      -0.652321989013846      -0.649118828726076     
 -0.644916759741800      -0.639681713351325      -0.633571023713405     
 -0.626952361791787      -0.620344273168992      -0.614260444210175     
 -0.609060249181427      -0.604898701574816      -0.601730295022552     
 -0.599413721117150      -0.597769574152959      -0.596635086597498     
 -0.718012967662674      -0.717409421641878      -0.715858220046837     
 -0.713523595269477      -0.710320434981712      -0.706118365997435     
 -0.700883319606957      -0.694772629969035      -0.688153968047420     
 -0.681545879424629      -0.675462050465816      -0.670261855437068     
 -0.666100307830448      -0.662931901278183      -0.660615327372788     
 -0.658971180408592      -0.657836692853135      -0.781391579173733     
 -0.780788033152941      -0.779236831557896      -0.776902206780535     
 -0.773699046492771      -0.769496977508494      -0.764261931118015     
 -0.758151241480093      -0.751532579558470      -0.744924490935681     
 -0.738840661976867      -0.733640466948117      -0.729478919341499     
 -0.726310512789245      -0.723993938883839      -0.722349791919647     
 -0.721215304364189      -0.842593185429372      -0.841989639408574     
 -0.840438437813530      -0.838103813036174      -0.834900652748399     
 -0.830698583764128      -0.825463537373646      -0.819352847735725     
 -0.812734185814109      -0.806126097191317      -0.800042268232506     
 -0.794842073203748      -0.790680525597140      -0.787512119044877     
 -0.785195545139478      -0.783551398175286      -0.782416910619820     
 -0.897830126066960      -0.897226580046167      -0.895675378451121     
 -0.893340753673763      -0.890137593385992      -0.885935524401716     
 -0.880700478011232      -0.874589788373315      -0.867971126451706     
 -0.861363037828902      -0.855279208870098      -0.850079013841349     
 -0.845917466234723      -0.842749059682469      -0.840432485777071     
 -0.838788338812876      -0.837653851257417      -0.944724275302417     
 -0.944120729281627      -0.942569527686587      -0.940234902909227     
 -0.937031742621455      -0.932829673637181      -0.927594627246702     
 -0.921483937608780      -0.914865275687165      -0.908257187064377     
 -0.902173358105560      -0.896973163076813      -0.892811615470195     
 -0.889643208917931      -0.887326635012534      -0.885682488048339     
 -0.884548000492883      -0.982511262401626      -0.981907716380837     
 -0.980356514785791      -0.978021890008426      -0.974818729720665     
 -0.970616660736391      -0.965381614345903      -0.959270924707990     
 -0.952652262786376      -0.946044174163582      -0.939960345204767     
 -0.934760150176018      -0.930598602569405      -0.927430196017140     
 -0.925113622111735      -0.923469475147551      -0.922334987592090     
  -1.01169966585229       -1.01109611983151       -1.00954491823647     
  -1.00721029345910       -1.00400713317134      -0.999805064187067     
 -0.994570017796572      -0.988459328158663      -0.981840666237035     
 -0.975232577614260      -0.969148748655447      -0.963948553626687     
 -0.959787006020075      -0.956618599467807      -0.954302025562414     
 -0.952657878598216      -0.951523391042761       -1.03351847205170     
  -1.03291492603091       -1.03136372443587       -1.02902909965851     
  -1.02582593937073       -1.02162387038646       -1.01638882399598     
  -1.01027813435806       -1.00365947243645      -0.997051383813655     
 -0.990967554854827      -0.985767359826086      -0.981605812219470     
 -0.978437405667212      -0.976120831761801      -0.974476684797617     
 -0.973342197242154       -1.04943169942080       -1.04882815339999     
  -1.04727695180495       -1.04494232702760       -1.04173916673982     
  -1.03753709775555       -1.03230205136508       -1.02619136172715     
  -1.01957269980553       -1.01296461118274       -1.00688078222392     
  -1.00168058719517      -0.997519039588564      -0.994350633036301     
 -0.992034059130900      -0.990389912166713      -0.989255424611248     
  -1.06083056469453       -1.06022701867373       -1.05867581707869     
  -1.05634119230134       -1.05313803201356       -1.04893596302930     
  -1.04370091663881       -1.03759022700088       -1.03097156507928     
  -1.02436347645647       -1.01827964749766       -1.01307945246892     
  -1.00891790486230       -1.00574949831003       -1.00343292440464     
  -1.00178877744045       -1.00065428988499       -1.06889069767968     
  -1.06828715165889       -1.06673595006384       -1.06440132528648     
  -1.06119816499872       -1.05699609601443       -1.05176104962395     
  -1.04565035998603       -1.03903169806442       -1.03242360944163     
  -1.02633978048281       -1.02113958545406       -1.01697803784745     
  -1.01380963129519       -1.01149305738979       -1.00984891042560     
  -1.00871442287014     
  6.127486936346077E-002  6.292834912122014E-002  6.717803406525978E-002
  7.357399175253243E-002  8.234939663335461E-002  9.386142018552229E-002
  0.108203397332828       0.124944294089876       0.143076835990206     
  0.161180411192104       0.177847720206614       0.192094218270034     
  0.203495229114948       0.212175422369510       0.218521927736054     
  0.223026246595604       0.226134298249906       6.421694420135031E-002
  6.587042395911059E-002  7.012010890314885E-002  7.651606659042202E-002
  8.529147147124479E-002  9.680349502341191E-002  0.111145472170716     
  0.127886368927769       0.146018910828094       0.164122486029996     
  0.180789795044508       0.195036293107924       0.206437303952842     
  0.215117497207400       0.221464002573941       0.225968321433494     
  0.229076373087801       6.837770864086641E-002  7.003118839862645E-002
  7.428087334266298E-002  8.067683102993695E-002  8.945223591076011E-002
  0.100964259462927       0.115306236610230       0.132047133367283     
  0.150179675267611       0.168283250469512       0.184950559484023     
  0.199197057547441       0.210598068392357       0.219278261646914     
  0.225624767013454       0.230129085873002       0.233237137527315     
  7.418628598301248E-002  7.583976574077127E-002  8.008945068480898E-002
  8.648540837208392E-002  9.526081325290615E-002  0.106772836805073     
  0.121114813952378       0.137855710709430       0.155988252609758     
  0.174091827811657       0.190759136826166       0.205005634889587     
  0.216406645734501       0.225086838989061       0.231433344355604     
  0.235937663215155       0.239045714869462       8.215049213573160E-002
  8.380397189349099E-002  8.805365683752912E-002  9.444961452480384E-002
  0.103225019405627       0.114737042957793       0.129079020105098     
  0.145819916862150       0.163952458762475       0.182056033964376     
  0.198723342978888       0.212969841042306       0.224370851887224     
  0.233051045141780       0.239397550508323       0.243901869367872     
  0.247009921022180       9.280471676312076E-002  9.445819652088135E-002
  9.870788146492053E-002  0.105103839152193       0.113879244033015     
  0.125391267585183       0.139733244732488       0.156474141489538     
  0.174606683389866       0.192710258591768       0.209377567606278     
  0.223624065669695       0.235025076514614       0.243705269769169     
  0.250051775135710       0.254556093995265       0.257664145649572     
  0.106597559157795       0.108251038915556       0.112500723859593     
  0.118896681546865       0.127672086427689       0.139184109979850     
  0.153526087127161       0.170266983884211       0.188399525784541     
  0.206503100986439       0.223170410000952       0.237416908064361     
  0.248817918909287       0.257498112163841       0.263844617530386     
  0.268348936389937       0.271456988044247       0.123714658436940     
  0.125368138194700       0.129617823138738       0.136013780826014     
  0.144789185706837       0.156301209259003       0.170643186406308     
  0.187384083163360       0.205516625063684       0.223620200265586     
  0.240287509280098       0.254534007343516       0.265935018188425     
  0.274615211442990       0.280961716809535       0.285466035669081     
  0.288574087323389       0.143877007305290       0.145530487063056     
  0.149780172007094       0.156176129694363       0.164951534575189     
  0.176463558127359       0.190805535274662       0.207546432031716     
  0.225678973932041       0.243782549133940       0.260449858148451     
  0.274696356211863       0.286097367056788       0.294777560311343     
  0.301124065677880       0.305628384537438       0.308736436191740     
  0.166216552587600       0.167870032345366       0.172119717289402     
  0.178515674976670       0.187291079857501       0.198803103409665     
  0.213145080556967       0.229885977314022       0.248018519214351     
  0.266122094416252       0.282789403430760       0.297035901494181     
  0.308436912339095       0.317117105593653       0.323463610960194     
  0.327967929819746       0.331075981474054       0.189350738900741     
  0.191004218658501       0.195253903602543       0.201649861289808     
  0.210425266170637       0.221937289722805       0.236279266870110     
  0.253020163627161       0.271152705527478       0.289256280729387     
  0.305923589743896       0.320170087807309       0.331571098652229     
  0.340251291906789       0.346597797273334       0.351102116132884     
  0.354210167787189       0.211690284183051       0.213343763940813     
  0.217593448884852       0.223989406572122       0.232764811452944     
  0.244276835005113       0.258618812152416       0.275359708909466     
  0.293492250809795       0.311595826011700       0.328263135026206     
  0.342509633089614       0.353910643934545       0.362590837189099     
  0.368937342555643       0.373441661415193       0.376549713069502     
  0.231852633051407       0.233506112809159       0.237755797753203     
  0.244151755440475       0.252927160321303       0.264439183873468     
  0.278781161020772       0.295522057777824       0.313654599678150     
  0.331758174880039       0.348425483894561       0.362671981957979     
  0.374072992802884       0.382753186057452       0.389099691423993     
  0.393604010283548       0.396712061937850       0.248969732330551     
  0.250623212088313       0.254872897032350       0.261268854719627     
  0.270044259600445       0.281556283152613       0.295898260299921     
  0.312639157056963       0.330771698957296       0.348875274159198     
  0.365542583173707       0.379789081237130       0.391190092082042     
  0.399870285336601       0.406216790703144       0.410721109562694     
  0.413829161217002       0.262762574725224       0.264416054482985     
  0.268665739427024       0.275061697114287       0.283837101995113     
  0.295349125547290       0.309691102694581       0.326431999451643     
  0.344564541351974       0.362668116553870       0.379335425568381     
  0.393581923631799       0.404982934476716       0.413663127731274     
  0.420009633097813       0.424513951957362       0.427622003611677     
  0.273416799352611       0.275070279110381       0.279319964054414     
  0.285715921741688       0.294491326622513       0.306003350174678     
  0.320345327321981       0.337086224079035       0.355218765979347     
  0.373322341181261       0.389989650195771       0.404236148259182     
  0.415637159104108       0.424317352358658       0.430663857725208     
  0.435168176584757       0.438276228239068       0.281381005505330     
  0.283034485263096       0.287284170207133       0.293680127894408     
  0.302455532775223       0.313967556327398       0.328309533474701     
  0.345050430231755       0.363182972132080       0.381286547333983     
  0.397953856348480       0.412200354411909       0.423601365256826     
  0.432281558511387       0.438628063877917       0.443132382737470     
  0.446240434391783       0.287189582847481       0.288843062605240     
  0.293092747549284       0.299488705236549       0.308264110117362     
  0.319776133669546       0.334118110816851       0.350859007573899     
  0.368991549474224       0.387095124676127       0.403762433690635     
  0.418008931754051       0.429409942598971       0.438090135853534     
  0.444436641220070       0.448940960079622       0.452049011733929     
  0.291350347286997       0.293003827044748       0.297253511988794     
  0.303649469676069       0.312424874556884       0.323936898109060     
  0.338278875256361       0.355019772013403       0.373152313913743     
  0.391255889115640       0.407923198130149       0.422169696193570     
  0.433570707038486       0.442250900293032       0.448597405659588     
  0.453101724519144       0.456209776173448       0.294292422124882     
  0.295945901882645       0.300195586826682       0.306591544513948     
  0.315366949394784       0.326878972946947       0.341220950094255     
  0.357961846851305       0.376094388751628       0.394197963953531     
  0.410865272968031       0.425111771031446       0.436512781876377     
  0.445192975130930       0.451539480497472       0.456043799357026     
  0.459151851011335     
  0.000000000000000E+000 -2.059343134687265E-004 -5.967154644315922E-004
 -1.288783171780619E-003 -2.918895425121374E-003 -5.573396522451829E-003
 -9.167771110016921E-003 -1.357217217812317E-002 -1.838427778900438E-002
 -2.320014315178548E-002 -2.763890288787426E-002 -3.143970394449276E-002
 -3.447539076661003E-002 -3.679168976136481E-002 -3.848528426515805E-002
 -3.968682183911389E-002 -4.051708164825068E-002  0.000000000000000E+000
 -2.059343134687265E-004 -5.967154644315922E-004 -1.288783171780619E-003
 -2.918895425121374E-003 -5.573396522451829E-003 -9.167771110016921E-003
 -1.357217217812317E-002 -1.838427778900438E-002 -2.320014315178548E-002
 -2.763890288787426E-002 -3.143970394449276E-002 -3.447539076661003E-002
 -3.679168976136481E-002 -3.848528426515805E-002 -3.968682183911389E-002
 -4.051708164825068E-002  0.000000000000000E+000 -2.059343134687265E-004
 -5.967154644315922E-004 -1.288783171780619E-003 -2.918895425121374E-003
 -5.573396522451829E-003 -9.167771110016921E-003 -1.357217217812317E-002
 -1.838427778900438E-002 -2.320014315178548E-002 -2.763890288787426E-002
 -3.143970394449276E-002 -3.447539076661003E-002 -3.679168976136481E-002
 -3.848528426515805E-002 -3.968682183911389E-002 -4.051708164825068E-002
  0.000000000000000E+000 -2.059343134687265E-004 -5.967154644315922E-004
 -1.288783171780619E-003 -2.918895425121374E-003 -5.573396522451829E-003
 -9.167771110016921E-003 -1.357217217812317E-002 -1.838427778900438E-002
 -2.320014315178548E-002 -2.763890288787426E-002 -3.143970394449276E-002
 -3.447539076661003E-002 -3.679168976136481E-002 -3.848528426515805E-002
 -3.968682183911389E-002 -4.051708164825068E-002  0.000000000000000E+000
 -2.059343134687265E-004 -5.967154644315922E-004 -1.288783171780619E-003
 -2.918895425121374E-003 -5.573396522451829E-003 -9.167771110016921E-003
 -1.357217217812317E-002 -1.838427778900438E-002 -2.320014315178548E-002
 -2.763890288787426E-002 -3.143970394449276E-002 -3.447539076661003E-002
 -3.679168976136481E-002 -3.848528426515805E-002 -3.968682183911389E-002
 -4.051708164825068E-002  0.000000000000000E+000 -2.059343134687265E-004
 -5.967154644315922E-004 -1.288783171780619E-003 -2.918895425121374E-003
 -5.573396522451829E-003 -9.167771110016921E-003 -1.357217217812317E-002
 -1.838427778900438E-002 -2.320014315178548E-002 -2.763890288787426E-002
 -3.143970394449276E-002 -3.447539076661003E-002 -3.679168976136481E-002
 -3.848528426515805E-002 -3.968682183911389E-002 -4.051708164825068E-002
  0.000000000000000E+000 -2.059343134687265E-004 -5.967154644315922E-004
 -1.288783171780619E-003 -2.918895425121374E-003 -5.573396522451829E-003
 -9.167771110016921E-003 -1.357217217812317E-002 -1.838427778900438E-002
 -2.320014315178548E-002 -2.763890288787426E-002 -3.143970394449276E-002
 -3.447539076661003E-002 -3.679168976136481E-002 -3.848528426515805E-002
 -3.968682183911389E-002 -4.051708164825068E-002  0.000000000000000E+000
 -2.059343134687265E-004 -5.967154644315922E-004 -1.288783171780619E-003
 -2.918895425121374E-003 -5.573396522451829E-003 -9.167771110016921E-003
 -1.357217217812317E-002 -1.838427778900438E-002 -2.320014315178548E-002
 -2.763890288787426E-002 -3.143970394449276E-002 -3.447539076661003E-002
 -3.679168976136481E-002 -3.848528426515805E-002 -3.968682183911389E-002
 -4.051708164825068E-002  0.000000000000000E+000 -2.059343134687265E-004
 -5.967154644315922E-004 -1.288783171780619E-003 -2.918895425121374E-003
 -5.573396522451829E-003 -9.167771110016921E-003 -1.357217217812317E-002
 -1.838427778900438E-002 -2.320014315178548E-002 -2.763890288787426E-002
 -3.143970394449276E-002 -3.447539076661003E-002 -3.679168976136481E-002
 -3.848528426515805E-002 -3.968682183911389E-002 -4.051708164825068E-002
  0.000000000000000E+000 -2.059343134687265E-004 -5.967154644315922E-004
 -1.288783171780619E-003 -2.918895425121374E-003 -5.573396522451829E-003
 -9.167771110016921E-003 -1.357217217812317E-002 -1.838427778900438E-002
 -2.320014315178548E-002 -2.763890288787426E-002 -3.143970394449276E-002
 -3.447539076661003E-002 -3.679168976136481E-002 -3.848528426515805E-002
 -3.968682183911389E-002 -4.051708164825068E-002  0.000000000000000E+000
 -2.059343134687265E-004 -5.967154644315922E-004 -1.288783171780619E-003
 -2.918895425121374E-003 -5.573396522451829E-003 -9.167771110016921E-003
 -1.357217217812317E-002 -1.838427778900438E-002 -2.320014315178548E-002
 -2.763890288787426E-002 -3.143970394449276E-002 -3.447539076661003E-002
 -3.679168976136481E-002 -3.848528426515805E-002 -3.968682183911389E-002
 -4.051708164825068E-002  0.000000000000000E+000 -2.059343134687265E-004
 -5.967154644315922E-004 -1.288783171780619E-003 -2.918895425121374E-003
 -5.573396522451829E-003 -9.167771110016921E-003 -1.357217217812317E-002
 -1.838427778900438E-002 -2.320014315178548E-002 -2.763890288787426E-002
 -3.143970394449276E-002 -3.447539076661003E-002 -3.679168976136481E-002
 -3.848528426515805E-002 -3.968682183911389E-002 -4.051708164825068E-002
  0.000000000000000E+000 -2.059343134687265E-004 -5.967154644315922E-004
 -1.288783171780619E-003 -2.918895425121374E-003 -5.573396522451829E-003
 -9.167771110016921E-003 -1.357217217812317E-002 -1.838427778900438E-002
 -2.320014315178548E-002 -2.763890288787426E-002 -3.143970394449276E-002
 -3.447539076661003E-002 -3.679168976136481E-002 -3.848528426515805E-002
 -3.968682183911389E-002 -4.051708164825068E-002  0.000000000000000E+000
 -2.059343134687265E-004 -5.967154644315922E-004 -1.288783171780619E-003
 -2.918895425121374E-003 -5.573396522451829E-003 -9.167771110016921E-003
 -1.357217217812317E-002 -1.838427778900438E-002 -2.320014315178548E-002
 -2.763890288787426E-002 -3.143970394449276E-002 -3.447539076661003E-002
 -3.679168976136481E-002 -3.848528426515805E-002 -3.968682183911389E-002
 -4.051708164825068E-002  0.000000000000000E+000 -2.059343134687265E-004
 -5.967154644315922E-004 -1.288783171780619E-003 -2.918895425121374E-003
 -5.573396522451829E-003 -9.167771110016921E-003 -1.357217217812317E-002
 -1.838427778900438E-002 -2.320014315178548E-002 -2.763890288787426E-002
 -3.143970394449276E-002 -3.447539076661003E-002 -3.679168976136481E-002
 -3.848528426515805E-002 -3.968682183911389E-002 -4.051708164825068E-002
  0.000000000000000E+000 -2.059343134687265E-004 -5.967154644315922E-004
 -1.288783171780619E-003 -2.918895425121374E-003 -5.573396522451829E-003
 -9.167771110016921E-003 -1.357217217812317E-002 -1.838427778900438E-002
 -2.320014315178548E-002 -2.763890288787426E-002 -3.143970394449276E-002
 -3.447539076661003E-002 -3.679168976136481E-002 -3.848528426515805E-002
 -3.968682183911389E-002 -4.051708164825068E-002  0.000000000000000E+000
 -2.059343134687265E-004 -5.967154644315922E-004 -1.288783171780619E-003
 -2.918895425121374E-003 -5.573396522451829E-003 -9.167771110016921E-003
 -1.357217217812317E-002 -1.838427778900438E-002 -2.320014315178548E-002
 -2.763890288787426E-002 -3.143970394449276E-002 -3.447539076661003E-002
 -3.679168976136481E-002 -3.848528426515805E-002 -3.968682183911389E-002
 -4.051708164825068E-002  0.000000000000000E+000 -2.059343134687265E-004
 -5.967154644315922E-004 -1.288783171780619E-003 -2.918895425121374E-003
 -5.573396522451829E-003 -9.167771110016921E-003 -1.357217217812317E-002
 -1.838427778900438E-002 -2.320014315178548E-002 -2.763890288787426E-002
 -3.143970394449276E-002 -3.447539076661003E-002 -3.679168976136481E-002
 -3.848528426515805E-002 -3.968682183911389E-002 -4.051708164825068E-002
  0.000000000000000E+000 -2.059343134687265E-004 -5.967154644315922E-004
 -1.288783171780619E-003 -2.918895425121374E-003 -5.573396522451829E-003
 -9.167771110016921E-003 -1.357217217812317E-002 -1.838427778900438E-002
 -2.320014315178548E-002 -2.763890288787426E-002 -3.143970394449276E-002
 -3.447539076661003E-002 -3.679168976136481E-002 -3.848528426515805E-002
 -3.968682183911389E-002 -4.051708164825068E-002  0.000000000000000E+000
 -2.059343134687265E-004 -5.967154644315922E-004 -1.288783171780619E-003
 -2.918895425121374E-003 -5.573396522451829E-003 -9.167771110016921E-003
 -1.357217217812317E-002 -1.838427778900438E-002 -2.320014315178548E-002
 -2.763890288787426E-002 -3.143970394449276E-002 -3.447539076661003E-002
 -3.679168976136481E-002 -3.848528426515805E-002 -3.968682183911389E-002
 -4.051708164825068E-002
 -0.156843037990885      -0.306961827012846      -0.381000329602913     
 -0.363997871597241      -0.331995245134575      -0.310174695604171     
 -0.296322324206779      -0.297899586483997      -0.306306170432313     
 -0.318000655031527      -0.330660449411161      -0.343498223403330     
 -0.353593786660787      -0.361689521957041      -0.367717570865094     
 -0.371670371294359      -0.194493961605865      -0.391353216101764     
 -0.505767831402259      -0.507126989991746      -0.474831445170968     
 -0.446670237832642      -0.427171777984761      -0.428628335069314     
 -0.440920377041621      -0.459020565711208      -0.479531995454659     
 -0.500982340423935      -0.519574805859685      -0.535563958849328     
 -0.547621468838559      -0.554506232298516      -0.210099183813767     
 -0.426016666484308      -0.558763669458543      -0.572979572427031     
 -0.545728657995653      -0.516088851662414      -0.492979555316127     
 -0.493211363278073      -0.507468087034133      -0.530164513218607     
 -0.556972439022909      -0.585268570952950      -0.609726173724754     
 -0.629387474390129      -0.642776332030217      -0.649650384283997     
 -0.211338013354558      -0.429788914042229      -0.564549269038211     
 -0.577830321442127      -0.547927548873564      -0.513682776358196     
 -0.484791474940936      -0.480897492762979      -0.493797930537432     
 -0.517701447797970      -0.547073357731487      -0.577706657370278     
 -0.603056297243282      -0.622293616758261      -0.634730765781197     
 -0.640814769301846      -0.197884875132564      -0.402649975955647     
 -0.523062899323831      -0.518156141535919      -0.469818949727836     
 -0.418519106602531      -0.374299871577527      -0.358365831084266     
 -0.362633622970277      -0.380727152576096      -0.405826620469472     
 -0.432727369999734      -0.454586659648312      -0.470997242132439     
 -0.481445271338930      -0.486415063125406      -0.166323395914185     
 -0.337696083846332      -0.424041670432101      -0.379364089012752     
 -0.290487922319351      -0.201263877556977      -0.123260729908364     
 -7.970754429093857E-002 -6.212303417046332E-002 -6.331056408219668E-002
 -7.543802214398179E-002 -9.272371557654378E-002 -0.107735398743444     
 -0.119653243705870      -0.127369929083677      -0.130984562299599     
 -0.111406028978620      -0.224110374651543      -0.251409271326500     
 -0.139796131942477       1.803613675102960E-002  0.173403516323370     
  0.311678146058413       0.405895963535395       0.464184173114685     
  0.494159971034455       0.504696811829090       0.502816609054633     
  0.497812336016975       0.491982561580401       0.487698307240744     
  0.485662880051373      -2.689763766204534E-002 -4.903753237505416E-002
  1.374037247843481E-002  0.225348993016928       0.486548775933127     
  0.742417826753021       0.973532747575343        1.14691104573915     
   1.26887010320679        1.34680794985901        1.39108944580097     
   1.41123159609081        1.41992310050779        1.42204872103032     
   1.42201340550815        1.42183696128943       9.371871894422572E-002
  0.200884202009496       0.390688955570752       0.740529428506484     
   1.14433516278096        1.53962382151395        1.90039422476369     
   2.18538242520435        2.39759558797239        2.54357286344630     
   2.63558422836525        2.68674540284378        2.71452558295184     
   2.72754802051565        2.73319105344957        2.73544030854978     
  0.255115276074638       0.535053844904762       0.892314589606834     
   1.42064648635236        2.00745355460800        2.58173609908698     
   3.10955113177703        3.53984980139137        3.87134166877622     
   4.10914408693680        4.26732651822996        4.36287373355794     
   4.41872402050344        4.44811743630824        4.46239448521532     
   4.46834648741468       0.450134390786351       0.938234037272825     
   1.49455363814346        2.23084541179876        3.02867469129996     
   3.80824514587492        4.52741434400983        5.12556522724880     
   5.59745064205332        5.94674782047435        6.18871832622123     
   6.34330649243117        6.43829350218043        6.49147387246541     
   6.51867931065308        6.53027430820726       0.643891913526030     
   1.33798628993246        2.08919805083361        3.02606344386258     
   4.02465191378598        4.99702757979691        5.89429889088970     
   6.64884696690296        7.25373062141332        7.71218373699229     
   8.03987478335884        8.25786701882861        8.39689179933148     
   8.47798977297662        8.52087618520845        8.53946369854324     
  0.787173942722806        1.63251583007404        2.52552696752031     
   3.60692445188652        4.74679452987206        5.85056636221147     
   6.86569209312883        7.72233193706034        8.41617850910901     
   8.95228703646967        9.34585328801145        9.61619240823347     