 Title = "Wing and Wake"
 VARIABLES = "X" "Y" "Z" "GAM" "skew"
 Zone I=   17 J=   20 K=1  T="Blade 01"
 DATAPACKING=BLOCK
 VARLOCATION=([4]=CELLCENTERED,[5]=CELLCENTERED)
 -0.430513849156730      -0.429910303135934      -0.428359101540892     
 -0.426024476763532      -0.422821316475763      -0.418619247491488     
 -0.413384201101010      -0.407273511463085      -0.400654849541474     
 -0.394046760918680      -0.387962931959866      -0.382762736931116     
 -0.378601189324502      -0.375432782772238      -0.373116208866840     
 -0.371472061902648      -0.370337574347187      -0.438573982141876     
 -0.437970436121080      -0.436419234526038      -0.434084609748681     
 -0.430881449460912      -0.426679380476635      -0.421444334086156     
 -0.415333644448234      -0.408714982526620      -0.402106893903826     
 -0.396023064945014      -0.390822869916265      -0.386661322309650     
 -0.383492915757386      -0.381176341851987      -0.379532194887796     
 -0.378397707332336      -0.449972847415617      -0.449369301394821     
 -0.447818099799779      -0.445483475022419      -0.442280314734650     
 -0.438078245750375      -0.432843199359897      -0.426732509721973     
 -0.420113847800360      -0.413505759177566      -0.407421930218752     
 -0.402221735190004      -0.398060187583388      -0.394891781031125     
 -0.392575207125726      -0.390931060161534      -0.389796572606076     
 -0.465886074784705      -0.465282528763910      -0.463731327168867     
 -0.461396702391507      -0.458193542103740      -0.453991473119464     
 -0.448756426728986      -0.442645737091062      -0.436027075169448     
 -0.429418986546654      -0.423335157587841      -0.418134962559093     
 -0.413973414952477      -0.410805008400215      -0.408488434494815     
 -0.406844287530622      -0.405709799975164      -0.487704880984105     
 -0.487101334963311      -0.485550133368268      -0.483215508590910     
 -0.480012348303139      -0.475810279318863      -0.470575232928386     
 -0.464464543290462      -0.457845881368850      -0.451237792746055     
 -0.445153963787243      -0.439953768758492      -0.435792221151877     
 -0.432623814599613      -0.430307240694216      -0.428663093730023     
 -0.427528606174564      -0.516893284434777      -0.516289738413981     
 -0.514738536818939      -0.512403912041580      -0.509200751753812     
 -0.504998682769534      -0.499763636379056      -0.493652946741132     
 -0.487034284819520      -0.480426196196726      -0.474342367237913     
 -0.469142172209163      -0.464980624602550      -0.461812218050283     
 -0.459495644144884      -0.457851497180695      -0.456717009625235     
 -0.554680271533985      -0.554076725513190      -0.552525523918148     
 -0.550190899140787      -0.546987738853018      -0.542785669868742     
 -0.537550623478265      -0.531439933840341      -0.524821271918728     
 -0.518213183295934      -0.512129354337122      -0.506929159308369     
 -0.502767611701758      -0.499599205149492      -0.497282631244095     
 -0.495638484279903      -0.494503996724444      -0.601574420769446     
 -0.600970874748650      -0.599419673153608      -0.597085048376253     
 -0.593881888088483      -0.589679819104208      -0.584444772713728     
 -0.578334083075803      -0.571715421154190      -0.565107332531396     
 -0.559023503572586      -0.553823308543836      -0.549661760937218     
 -0.546493354384957      -0.544176780479558      -0.542532633515364     
 -0.541398145959907      -0.656811361407037      -0.656207815386244     
 -0.654656613791202      -0.652321989013843      -0.649118828726074     
 -0.644916759741797      -0.639681713351320      -0.633571023713398     
 -0.626952361791784      -0.620344273168990      -0.614260444210173     
 -0.609060249181424      -0.604898701574812      -0.601730295022548     
 -0.599413721117150      -0.597769574152957      -0.596635086597497     
 -0.718012967662673      -0.717409421641876      -0.715858220046834     
 -0.713523595269477      -0.710320434981708      -0.706118365997431     
 -0.700883319606955      -0.694772629969029      -0.688153968047417     
 -0.681545879424623      -0.675462050465812      -0.670261855437063     
 -0.666100307830446      -0.662931901278181      -0.660615327372785     
 -0.658971180408590      -0.657836692853132      -0.781391579173726     
 -0.780788033152936      -0.779236831557891      -0.776902206780532     
 -0.773699046492764      -0.769496977508488      -0.764261931118009     
 -0.758151241480087      -0.751532579558470      -0.744924490935676     
 -0.738840661976864      -0.733640466948115      -0.729478919341499     
 -0.726310512789240      -0.723993938883837      -0.722349791919646     
 -0.721215304364187      -0.842593185429365      -0.841989639408567     
 -0.840438437813526      -0.838103813036168      -0.834900652748398     
 -0.830698583764122      -0.825463537373643      -0.819352847735720     
 -0.812734185814105      -0.806126097191314      -0.800042268232500     
 -0.794842073203748      -0.790680525597135      -0.787512119044873     
 -0.785195545139474      -0.783551398175282      -0.782416910619818     
 -0.897830126066954      -0.897226580046161      -0.895675378451117     
 -0.893340753673758      -0.890137593385989      -0.885935524401713     
 -0.880700478011232      -0.874589788373311      -0.867971126451700     
 -0.861363037828902      -0.855279208870092      -0.850079013841343     
 -0.845917466234723      -0.842749059682464      -0.840432485777065     
 -0.838788338812871      -0.837653851257411      -0.944724275302414     
 -0.944120729281623      -0.942569527686581      -0.940234902909219     
 -0.937031742621450      -0.932829673637175      -0.927594627246697     
 -0.921483937608774      -0.914865275687160      -0.908257187064368     
 -0.902173358105554      -0.896973163076806      -0.892811615470190     
 -0.889643208917925      -0.887326635012529      -0.885682488048335     
 -0.884548000492877      -0.982511262401624      -0.981907716380829     
 -0.980356514785785      -0.978021890008426      -0.974818729720664     
 -0.970616660736384      -0.965381614345903      -0.959270924707983     
 -0.952652262786370      -0.946044174163574      -0.939960345204762     
 -0.934760150176014      -0.930598602569399      -0.927430196017134     
 -0.925113622111734      -0.923469475147544      -0.922334987592084     
  -1.01169966585229       -1.01109611983150       -1.00954491823646     
  -1.00721029345910       -1.00400713317133      -0.999805064187055     
 -0.994570017796573      -0.988459328158655      -0.981840666237035     
 -0.975232577614250      -0.969148748655435      -0.963948553626684     
 -0.959787006020069      -0.956618599467806      -0.954302025562407     
 -0.952657878598216      -0.951523391042757       -1.03351847205170     
  -1.03291492603090       -1.03136372443586       -1.02902909965850     
  -1.02582593937073       -1.02162387038646       -1.01638882399597     
  -1.01027813435805       -1.00365947243644      -0.997051383813649     
 -0.990967554854829      -0.985767359826082      -0.981605812219467     
 -0.978437405667205      -0.976120831761803      -0.974476684797617     
 -0.973342197242153       -1.04943169942079       -1.04882815339999     
  -1.04727695180495       -1.04494232702759       -1.04173916673982     
  -1.03753709775554       -1.03230205136507       -1.02619136172715     
  -1.01957269980553       -1.01296461118274       -1.00688078222392     
  -1.00168058719517      -0.997519039588558      -0.994350633036295     
 -0.992034059130897      -0.990389912166706      -0.989255424611243     
  -1.06083056469453       -1.06022701867373       -1.05867581707868     
  -1.05634119230133       -1.05313803201356       -1.04893596302928     
  -1.04370091663881       -1.03759022700088       -1.03097156507927     
  -1.02436347645647       -1.01827964749766       -1.01307945246891     
  -1.00891790486230       -1.00574949831003       -1.00343292440464     
  -1.00178877744044       -1.00065428988499       -1.06889069767967     
  -1.06828715165888       -1.06673595006383       -1.06440132528648     
  -1.06119816499871       -1.05699609601443       -1.05176104962395     
  -1.04565035998603       -1.03903169806441       -1.03242360944162     
  -1.02633978048281       -1.02113958545406       -1.01697803784744     
  -1.01380963129518       -1.01149305738978       -1.00984891042559     
  -1.00871442287013     
  6.127486936345774E-002  6.292834912121628E-002  6.717803406525646E-002
  7.357399175252879E-002  8.234939663335111E-002  9.386142018551916E-002
  0.108203397332824       0.124944294089875       0.143076835990201     
  0.161180411192103       0.177847720206612       0.192094218270032     
  0.203495229114947       0.212175422369506       0.218521927736048     
  0.223026246595599       0.226134298249905       6.421694420134649E-002
  6.587042395910686E-002  7.012010890314518E-002  7.651606659041908E-002
  8.529147147124182E-002  9.680349502340847E-002  0.111145472170713     
  0.127886368927765       0.146018910828090       0.164122486029992     
  0.180789795044503       0.195036293107921       0.206437303952838     
  0.215117497207396       0.221464002573938       0.225968321433490     
  0.229076373087796       6.837770864086304E-002  7.003118839862202E-002
  7.428087334265980E-002  8.067683102993353E-002  8.945223591075545E-002
  0.100964259462924       0.115306236610228       0.132047133367280     
  0.150179675267606       0.168283250469507       0.184950559484018     
  0.199197057547436       0.210598068392352       0.219278261646910     
  0.225624767013454       0.230129085873002       0.233237137527312     
  7.418628598300879E-002  7.583976574076771E-002  8.008945068480655E-002
  8.648540837207946E-002  9.526081325290307E-002  0.106772836805070     
  0.121114813952375       0.137855710709425       0.155988252609753     
  0.174091827811654       0.190759136826163       0.205005634889582     
  0.216406645734498       0.225086838989058       0.231433344355598     
  0.235937663215151       0.239045714869457       8.215049213572824E-002
  8.380397189348801E-002  8.805365683752585E-002  9.444961452479866E-002
  0.103225019405622       0.114737042957789       0.129079020105094     
  0.145819916862145       0.163952458762472       0.182056033964372     
  0.198723342978884       0.212969841042302       0.224370851887219     
  0.233051045141775       0.239397550508319       0.243901869367870     
  0.247009921022176       9.280471676311798E-002  9.445819652087691E-002
  9.870788146491496E-002  0.105103839152188       0.113879244033011     
  0.125391267585179       0.139733244732483       0.156474141489534     
  0.174606683389861       0.192710258591762       0.209377567606272     
  0.223624065669691       0.235025076514608       0.243705269769164     
  0.250051775135707       0.254556093995258       0.257664145649566     
  0.106597559157791       0.108251038915550       0.112500723859588     
  0.118896681546861       0.127672086427685       0.139184109979850     
  0.153526087127157       0.170266983884206       0.188399525784534     
  0.206503100986435       0.223170410000946       0.237416908064361     
  0.248817918909281       0.257498112163837       0.263844617530381     
  0.268348936389932       0.271456988044239       0.123714658436936     
  0.125368138194696       0.129617823138734       0.136013780826009     
  0.144789185706831       0.156301209258999       0.170643186406302     
  0.187384083163354       0.205516625063680       0.223620200265581     
  0.240287509280094       0.254534007343510       0.265935018188425     
  0.274615211442985       0.280961716809528       0.285466035669077     
  0.288574087323385       0.143877007305290       0.145530487063051     
  0.149780172007090       0.156176129694359       0.164951534575185     
  0.176463558127352       0.190805535274656       0.207546432031709     
  0.225678973932035       0.243782549133935       0.260449858148444     
  0.274696356211861       0.286097367056780       0.294777560311338     
  0.301124065677880       0.305628384537432       0.308736436191739     
  0.166216552587600       0.167870032345358       0.172119717289397     
  0.178515674976670       0.187291079857494       0.198803103409659     
  0.213145080556965       0.229885977314016       0.248018519214344     
  0.266122094416243       0.282789403430755       0.297035901494174     
  0.308436912339089       0.317117105593648       0.323463610960188     
  0.327967929819739       0.331075981474049       0.189350738900734     
  0.191004218658496       0.195253903602535       0.201649861289806     
  0.210425266170629       0.221937289722799       0.236279266870102     
  0.253020163627154       0.271152705527478       0.289256280729380     
  0.305923589743891       0.320170087807308       0.331571098652225     
  0.340251291906783       0.346597797273326       0.351102116132877     
  0.354210167787184       0.211690284183044       0.213343763940805     
  0.217593448884844       0.223989406572115       0.232764811452940     
  0.244276835005105       0.258618812152410       0.275359708909460     
  0.293492250809789       0.311595826011691       0.328263135026199     
  0.342509633089614       0.353910643934536       0.362590837189094     
  0.368937342555635       0.373441661415186       0.376549713069492     
  0.231852633051399       0.233506112809155       0.237755797753196     
  0.244151755440469       0.252927160321294       0.264439183873460     
  0.278781161020763       0.295522057777816       0.313654599678143     
  0.331758174880039       0.348425483894553       0.362671981957972     
  0.374072992802884       0.382753186057445       0.389099691423986     
  0.393604010283539       0.396712061937844       0.248969732330545     
  0.250623212088306       0.254872897032344       0.261268854719616     
  0.270044259600438       0.281556283152606       0.295898260299913     
  0.312639157056959       0.330771698957288       0.348875274159188     
  0.365542583173699       0.379789081237119       0.391190092082035     
  0.399870285336593       0.406216790703134       0.410721109562686     
  0.413829161216994       0.262762574725217       0.264416054482977     
  0.268665739427015       0.275061697114287       0.283837101995112     
  0.295349125547279       0.309691102694581       0.326431999451636     
  0.344564541351963       0.362668116553862       0.379335425568374     
  0.393581923631791       0.404982934476708       0.413663127731266     
  0.420009633097806       0.424513951957358       0.427622003611665     
  0.273416799352605       0.275070279110368       0.279319964054406     
  0.285715921741678       0.294491326622501       0.306003350174667     
  0.320345327321972       0.337086224079024       0.355218765979347     
  0.373322341181252       0.389989650195763       0.404236148259179     
  0.415637159104097       0.424317352358655       0.430663857725197     
  0.435168176584748       0.438276228239056       0.281381005505327     
  0.283034485263088       0.287284170207125       0.293680127894397     
  0.302455532775219       0.313967556327389       0.328309533474692     
  0.345050430231744       0.363182972132070       0.381286547333973     
  0.397953856348478       0.412200354411900       0.423601365256816     
  0.432281558511375       0.438628063877913       0.443132382737469     
  0.446240434391773       0.287189582847474       0.288843062605231     
  0.293092747549271       0.299488705236545       0.308264110117362     
  0.319776133669536       0.334118110816838       0.350859007573890     
  0.368991549474217       0.387095124676117       0.403762433690627     
  0.418008931754047       0.429409942598962       0.438090135853522     
  0.444436641220062       0.448940960079615       0.452049011733919     
  0.291350347286987       0.293003827044746       0.297253511988785     
  0.303649469676059       0.312424874556879       0.323936898109050     
  0.338278875256352       0.355019772013403       0.373152313913733     
  0.391255889115632       0.407923198130141       0.422169696193559     
  0.433570707038475       0.442250900293032       0.448597405659578     
  0.453101724519130       0.456209776173436       0.294292422124877     
  0.295945901882638       0.300195586826675       0.306591544513948     
  0.315366949394772       0.326878972946938       0.341220950094244     
  0.357961846851294       0.376094388751620       0.394197963953521     
  0.410865272968031       0.425111771031446       0.436512781876367     
  0.445192975130924       0.451539480497465       0.456043799357018     
  0.459151851011327     
  0.000000000000000E+000 -2.059343134687265E-004 -5.967154644315922E-004
 -1.288783171780619E-003 -2.918895425121374E-003 -5.573396522451829E-003
 -9.167771110016921E-003 -1.357217217812317E-002 -1.838427778900438E-002
 -2.320014315178548E-002 -2.763890288787426E-002 -3.143970394449276E-002
 -3.447539076661003E-002 -3.679168976136481E-002 -3.848528426515805E-002
 -3.968682183911389E-002 -4.051708164825068E-002  0.000000000000000E+000
 -2.059343134687265E-004 -5.967154644315922E-004 -1.288783171780619E-003
 -2.918895425121374E-003 -5.573396522451829E-003 -9.167771110016921E-003
 -1.357217217812317E-002 -1.838427778900438E-002 -2.320014315178548E-002
 -2.763890288787426E-002 -3.143970394449276E-002 -3.447539076661003E-002
 -3.679168976136481E-002 -3.848528426515805E-002 -3.968682183911389E-002
 -4.051708164825068E-002  0.000000000000000E+000 -2.059343134687265E-004
 -5.967154644315922E-004 -1.288783171780619E-003 -2.918895425121374E-003
 -5.573396522451829E-003 -9.167771110016921E-003 -1.357217217812317E-002
 -1.838427778900438E-002 -2.320014315178548E-002 -2.763890288787426E-002
 -3.143970394449276E-002 -3.447539076661003E-002 -3.679168976136481E-002
 -3.848528426515805E-002 -3.968682183911389E-002 -4.051708164825068E-002
  0.000000000000000E+000 -2.059343134687265E-004 -5.967154644315922E-004
 -1.288783171780619E-003 -2.918895425121374E-003 -5.573396522451829E-003
 -9.167771110016921E-003 -1.357217217812317E-002 -1.838427778900438E-002
 -2.320014315178548E-002 -2.763890288787426E-002 -3.143970394449276E-002
 -3.447539076661003E-002 -3.679168976136481E-002 -3.848528426515805E-002
 -3.968682183911389E-002 -4.051708164825068E-002  0.000000000000000E+000
 -2.059343134687265E-004 -5.967154644315922E-004 -1.288783171780619E-003
 -2.918895425121374E-003 -5.573396522451829E-003 -9.167771110016921E-003
 -1.357217217812317E-002 -1.838427778900438E-002 -2.320014315178548E-002
 -2.763890288787426E-002 -3.143970394449276E-002 -3.447539076661003E-002
 -3.679168976136481E-002 -3.848528426515805E-002 -3.968682183911389E-002
 -4.051708164825068E-002  0.000000000000000E+000 -2.059343134687265E-004
 -5.967154644315922E-004 -1.288783171780619E-003 -2.918895425121374E-003
 -5.573396522451829E-003 -9.167771110016921E-003 -1.357217217812317E-002
 -1.838427778900438E-002 -2.320014315178548E-002 -2.763890288787426E-002
 -3.143970394449276E-002 -3.447539076661003E-002 -3.679168976136481E-002
 -3.848528426515805E-002 -3.968682183911389E-002 -4.051708164825068E-002
  0.000000000000000E+000 -2.059343134687265E-004 -5.967154644315922E-004
 -1.288783171780619E-003 -2.918895425121374E-003 -5.573396522451829E-003
 -9.167771110016921E-003 -1.357217217812317E-002 -1.838427778900438E-002
 -2.320014315178548E-002 -2.763890288787426E-002 -3.143970394449276E-002
 -3.447539076661003E-002 -3.679168976136481E-002 -3.848528426515805E-002
 -3.968682183911389E-002 -4.051708164825068E-002  0.000000000000000E+000
 -2.059343134687265E-004 -5.967154644315922E-004 -1.288783171780619E-003
 -2.918895425121374E-003 -5.573396522451829E-003 -9.167771110016921E-003
 -1.357217217812317E-002 -1.838427778900438E-002 -2.320014315178548E-002
 -2.763890288787426E-002 -3.143970394449276E-002 -3.447539076661003E-002
 -3.679168976136481E-002 -3.848528426515805E-002 -3.968682183911389E-002
 -4.051708164825068E-002  0.000000000000000E+000 -2.059343134687265E-004
 -5.967154644315922E-004 -1.288783171780619E-003 -2.918895425121374E-003
 -5.573396522451829E-003 -9.167771110016921E-003 -1.357217217812317E-002
 -1.838427778900438E-002 -2.320014315178548E-002 -2.763890288787426E-002
 -3.143970394449276E-002 -3.447539076661003E-002 -3.679168976136481E-002
 -3.848528426515805E-002 -3.968682183911389E-002 -4.051708164825068E-002
  0.000000000000000E+000 -2.059343134687265E-004 -5.967154644315922E-004
 -1.288783171780619E-003 -2.918895425121374E-003 -5.573396522451829E-003
 -9.167771110016921E-003 -1.357217217812317E-002 -1.838427778900438E-002
 -2.320014315178548E-002 -2.763890288787426E-002 -3.143970394449276E-002
 -3.447539076661003E-002 -3.679168976136481E-002 -3.848528426515805E-002
 -3.968682183911389E-002 -4.051708164825068E-002  0.000000000000000E+000
 -2.059343134687265E-004 -5.967154644315922E-004 -1.288783171780619E-003
 -2.918895425121374E-003 -5.573396522451829E-003 -9.167771110016921E-003
 -1.357217217812317E-002 -1.838427778900438E-002 -2.320014315178548E-002
 -2.763890288787426E-002 -3.143970394449276E-002 -3.447539076661003E-002
 -3.679168976136481E-002 -3.848528426515805E-002 -3.968682183911389E-002
 -4.051708164825068E-002  0.000000000000000E+000 -2.059343134687265E-004
 -5.967154644315922E-004 -1.288783171780619E-003 -2.918895425121374E-003
 -5.573396522451829E-003 -9.167771110016921E-003 -1.357217217812317E-002
 -1.838427778900438E-002 -2.320014315178548E-002 -2.763890288787426E-002
 -3.143970394449276E-002 -3.447539076661003E-002 -3.679168976136481E-002
 -3.848528426515805E-002 -3.968682183911389E-002 -4.051708164825068E-002
  0.000000000000000E+000 -2.059343134687265E-004 -5.967154644315922E-004
 -1.288783171780619E-003 -2.918895425121374E-003 -5.573396522451829E-003
 -9.167771110016921E-003 -1.357217217812317E-002 -1.838427778900438E-002
 -2.320014315178548E-002 -2.763890288787426E-002 -3.143970394449276E-002
 -3.447539076661003E-002 -3.679168976136481E-002 -3.848528426515805E-002
 -3.968682183911389E-002 -4.051708164825068E-002  0.000000000000000E+000
 -2.059343134687265E-004 -5.967154644315922E-004 -1.288783171780619E-003
 -2.918895425121374E-003 -5.573396522451829E-003 -9.167771110016921E-003
 -1.357217217812317E-002 -1.838427778900438E-002 -2.320014315178548E-002
 -2.763890288787426E-002 -3.143970394449276E-002 -3.447539076661003E-002
 -3.679168976136481E-002 -3.848528426515805E-002 -3.968682183911389E-002
 -4.051708164825068E-002  0.000000000000000E+000 -2.059343134687265E-004
 -5.967154644315922E-004 -1.288783171780619E-003 -2.918895425121374E-003
 -5.573396522451829E-003 -9.167771110016921E-003 -1.357217217812317E-002
 -1.838427778900438E-002 -2.320014315178548E-002 -2.763890288787426E-002
 -3.143970394449276E-002 -3.447539076661003E-002 -3.679168976136481E-002
 -3.848528426515805E-002 -3.968682183911389E-002 -4.051708164825068E-002
  0.000000000000000E+000 -2.059343134687265E-004 -5.967154644315922E-004
 -1.288783171780619E-003 -2.918895425121374E-003 -5.573396522451829E-003
 -9.167771110016921E-003 -1.357217217812317E-002 -1.838427778900438E-002
 -2.320014315178548E-002 -2.763890288787426E-002 -3.143970394449276E-002
 -3.447539076661003E-002 -3.679168976136481E-002 -3.848528426515805E-002
 -3.968682183911389E-002 -4.051708164825068E-002  0.000000000000000E+000
 -2.059343134687265E-004 -5.967154644315922E-004 -1.288783171780619E-003
 -2.918895425121374E-003 -5.573396522451829E-003 -9.167771110016921E-003
 -1.357217217812317E-002 -1.838427778900438E-002 -2.320014315178548E-002
 -2.763890288787426E-002 -3.143970394449276E-002 -3.447539076661003E-002
 -3.679168976136481E-002 -3.848528426515805E-002 -3.968682183911389E-002
 -4.051708164825068E-002  0.000000000000000E+000 -2.059343134687265E-004
 -5.967154644315922E-004 -1.288783171780619E-003 -2.918895425121374E-003
 -5.573396522451829E-003 -9.167771110016921E-003 -1.357217217812317E-002
 -1.838427778900438E-002 -2.320014315178548E-002 -2.763890288787426E-002
 -3.143970394449276E-002 -3.447539076661003E-002 -3.679168976136481E-002
 -3.848528426515805E-002 -3.968682183911389E-002 -4.051708164825068E-002
  0.000000000000000E+000 -2.059343134687265E-004 -5.967154644315922E-004
 -1.288783171780619E-003 -2.918895425121374E-003 -5.573396522451829E-003
 -9.167771110016921E-003 -1.357217217812317E-002 -1.838427778900438E-002
 -2.320014315178548E-002 -2.763890288787426E-002 -3.143970394449276E-002
 -3.447539076661003E-002 -3.679168976136481E-002 -3.848528426515805E-002
 -3.968682183911389E-002 -4.051708164825068E-002  0.000000000000000E+000
 -2.059343134687265E-004 -5.967154644315922E-004 -1.288783171780619E-003
 -2.918895425121374E-003 -5.573396522451829E-003 -9.167771110016921E-003
 -1.357217217812317E-002 -1.838427778900438E-002 -2.320014315178548E-002
 -2.763890288787426E-002 -3.143970394449276E-002 -3.447539076661003E-002
 -3.679168976136481E-002 -3.848528426515805E-002 -3.968682183911389E-002
 -4.051708164825068E-002
 -0.136034307828162      -0.266227252684931      -0.324914148424744     
 -0.295077593308489      -0.251273590694635      -0.218163110590144     
 -0.193470623727036      -0.184726475680884      -0.183595777521251     
 -0.186892115557069      -0.192655254013306      -0.200314822915132     
 -0.206891742902560      -0.212796549606998      -0.217456276947897     
 -0.220501311882947      -0.166575407808977      -0.334774720069374     
 -0.424878252494403      -0.404853380225536      -0.352838929587315     
 -0.306049491799837      -0.268856129829900      -0.253573700416746     
 -0.250395499725995      -0.254750310854530      -0.263687154934584     
 -0.275931394355274      -0.287474930079966      -0.298178280940900     
 -0.306518258651515      -0.311338171198236      -0.177000390075309     
 -0.358212222099402      -0.460260488036742      -0.446198850551043     
 -0.392105495526860      -0.336888069561745      -0.289508767822653     
 -0.266848577885063      -0.259920550870536      -0.263634678255984     
 -0.274164447962151      -0.289187962353876      -0.303391018963089     
 -0.315725318020880      -0.324508795925798      -0.329141417863184     
 -0.174159979773561      -0.353250343027727      -0.452471091120994     
 -0.432078297143746      -0.369314695318177      -0.303136597131714     
 -0.243645521950216      -0.210795601408309      -0.196839680718993     
 -0.196615032891436      -0.205317882974025      -0.219373393857116     
 -0.232455825448442      -0.243478236127992      -0.251083398486662     
 -0.254942733138007      -0.157923792055440      -0.320163173513689     
 -0.401745123161444      -0.359434208592113      -0.273891268377507     
 -0.185758192515102      -0.105737093835287      -5.566358444338988E-002
 -2.821357199508892E-002 -1.796926157868481E-002 -1.919554809807130E-002
 -2.752008756817259E-002 -3.615637271302229E-002 -4.403721543900632E-002
 -4.961888589452117E-002 -5.240385696965221E-002 -0.125739518269244     
 -0.253804930473849      -0.300371708632403      -0.217039368266254     
 -8.928577490280816E-002  3.891055406232006E-002  0.155242875219386     
  0.235628865412132       0.287469358755498       0.316657171160958     
  0.329715280260848       0.331631162995892       0.330029999295701     
  0.326633890424446       0.323716954895658       0.322230726156139     
 -7.410862863636962E-002 -0.146977427754830      -0.137630428212936     
  9.665204205173784E-003  0.203512744799760       0.395174278755451     
  0.569383600522432       0.698367198573644       0.789133585306062     
  0.847934246009084       0.882337138247356       0.898639774105614     
  0.906351691935500       0.908611262857511       0.908875277599238     
  0.908848680341274       1.794067158257766E-004  6.915872276595099E-003
  9.613024012598417E-002  0.333265451328311       0.620048864809191     
  0.901599167251121        1.15819717759728        1.35652242747785     
   1.50226142447091        1.60185872544230        1.66460827384387     
   1.69926386858891        1.71839798754048        1.72730750508556     
   1.73113265441803        1.73267048826388       9.934445662333825E-002
  0.212391672930468       0.407231510178470       0.761335014375194     
   1.16887505375216        1.56753946775132        1.93164847622481     
   2.22050716014384        2.43752034052861        2.58920993461768     
   2.68734516584590        2.74428550298403        2.77682302899295     
   2.79322765940378        2.80090173233481        2.80407784906345     
  0.225347212849706       0.473409425997063       0.800933881774286     
   1.29950291661297        1.85564543653011        2.39867803103277     
   2.89567735121485        3.29709684617460        3.60315539912350     
   3.82012884348537        3.96257062597917        4.04720912538846     
   4.09608872733181        4.12139113981858        4.13350439706072     
   4.13853125237093       0.381825339893822       0.797210500496820     
   1.28676014599439        1.95788924744963        2.69023379934417     
   3.40445374430488        4.05988184971755        4.59785313988726     
   5.01520621868378        5.31749103257973        5.52121182657586     
   5.64671361160085        5.72117116250189        5.76116812101475     
   5.78091755285400        5.78920493481812       0.567260005234325     
   1.17970434478756        1.85586241608708        2.71947118332992     
   3.64439594161632        4.54312538616397        5.36831709159267     
   6.05444862708968        6.59696558868675        7.00139929680093     
   7.28506057777581        7.46960282918792        7.58504377914255     
   7.65097289508412        7.68525375884000        7.70002866928587     
  0.736337470003945        1.52684832960780        2.36814475120885     
   3.39723641586194        4.48231636509810        5.52882003821861     
   6.48529408552540        7.28384217147629        7.92279972340088     
   8.41017116079090        8.76358254258661        9.00360443122869     