 Title = "Wing and Wake"
 VARIABLES = "X" "Y" "Z" "GAM" "skew"
 Zone I=   17 J=   20 K=1  T="Blade 01"
 DATAPACKING=BLOCK
 VARLOCATION=([4]=CELLCENTERED,[5]=CELLCENTERED)
  0.430513849156733       0.429910303135937       0.428359101540892     
  0.426024476763535       0.422821316475766       0.418619247491489     
  0.413384201101013       0.407273511463085       0.400654849541477     
  0.394046760918681       0.387962931959866       0.382762736931117     
  0.378601189324503       0.375432782772238       0.373116208866842     
  0.371472061902649       0.370337574347186       0.438573982141877     
  0.437970436121083       0.436419234526039       0.434084609748683     
  0.430881449460913       0.426679380476636       0.421444334086159     
  0.415333644448234       0.408714982526622       0.402106893903827     
  0.396023064945017       0.390822869916267       0.386661322309651     
  0.383492915757387       0.381176341851988       0.379532194887797     
  0.378397707332338       0.449972847415619       0.449369301394823     
  0.447818099799781       0.445483475022422       0.442280314734652     
  0.438078245750375       0.432843199359898       0.426732509721975     
  0.420113847800362       0.413505759177568       0.407421930218753     
  0.402221735190006       0.398060187583392       0.394891781031127     
  0.392575207125726       0.390931060161534       0.389796572606076     
  0.465886074784708       0.465282528763913       0.463731327168869     
  0.461396702391509       0.458193542103742       0.453991473119468     
  0.448756426728988       0.442645737091064       0.436027075169450     
  0.429418986546656       0.423335157587842       0.418134962559095     
  0.413973414952476       0.410805008400216       0.408488434494817     
  0.406844287530622       0.405709799975166       0.487704880984109     
  0.487101334963313       0.485550133368272       0.483215508590913     
  0.480012348303139       0.475810279318865       0.470575232928388     
  0.464464543290463       0.457845881368853       0.451237792746057     
  0.445153963787245       0.439953768758493       0.435792221151879     
  0.432623814599614       0.430307240694217       0.428663093730024     
  0.427528606174565       0.516893284434779       0.516289738413984     
  0.514738536818942       0.512403912041582       0.509200751753814     
  0.504998682769536       0.499763636379056       0.493652946741133     
  0.487034284819522       0.480426196196730       0.474342367237915     
  0.469142172209165       0.464980624602553       0.461812218050283     
  0.459495644144883       0.457851497180697       0.456717009625237     
  0.554680271533989       0.554076725513192       0.552525523918154     
  0.550190899140788       0.546987738853019       0.542785669868742     
  0.537550623478264       0.531439933840344       0.524821271918730     
  0.518213183295936       0.512129354337124       0.506929159308369     
  0.502767611701761       0.499599205149493       0.497282631244097     
  0.495638484279906       0.494503996724448       0.601574420769447     
  0.600970874748651       0.599419673153608       0.597085048376256     
  0.593881888088487       0.589679819104214       0.584444772713734     
  0.578334083075807       0.571715421154191       0.565107332531400     
  0.559023503572587       0.553823308543841       0.549661760937218     
  0.546493354384959       0.544176780479560       0.542532633515365     
  0.541398145959909       0.656811361407037       0.656207815386245     
  0.654656613791205       0.652321989013845       0.649118828726076     
  0.644916759741799       0.639681713351324       0.633571023713402     
  0.626952361791786       0.620344273168991       0.614260444210175     
  0.609060249181427       0.604898701574815       0.601730295022551     
  0.599413721117150       0.597769574152958       0.596635086597498     
  0.718012967662674       0.717409421641878       0.715858220046837     
  0.713523595269477       0.710320434981712       0.706118365997434     
  0.700883319606957       0.694772629969033       0.688153968047420     
  0.681545879424628       0.675462050465816       0.670261855437068     
  0.666100307830447       0.662931901278183       0.660615327372788     
  0.658971180408591       0.657836692853135       0.781391579173732     
  0.780788033152940       0.779236831557896       0.776902206780535     
  0.773699046492770       0.769496977508493       0.764261931118014     
  0.758151241480091       0.751532579558470       0.744924490935679     
  0.738840661976866       0.733640466948117       0.729478919341499     
  0.726310512789244       0.723993938883839       0.722349791919647     
  0.721215304364189       0.842593185429370       0.841989639408572     
  0.840438437813529       0.838103813036173       0.834900652748399     
  0.830698583764128       0.825463537373645       0.819352847735724     
  0.812734185814108       0.806126097191316       0.800042268232504     
  0.794842073203748       0.790680525597139       0.787512119044876     
  0.785195545139477       0.783551398175285       0.782416910619820     
  0.897830126066958       0.897226580046167       0.895675378451120     
  0.893340753673762       0.890137593385992       0.885935524401715     
  0.880700478011232       0.874589788373314       0.867971126451705     
  0.861363037828902       0.855279208870097       0.850079013841347     
  0.845917466234723       0.842749059682467       0.840432485777069     
  0.838788338812876       0.837653851257414       0.944724275302416     
  0.944120729281626       0.942569527686585       0.940234902909224     
  0.937031742621454       0.932829673637179       0.927594627246701     
  0.921483937608779       0.914865275687164       0.908257187064375     
  0.902173358105558       0.896973163076812       0.892811615470193     
  0.889643208917930       0.887326635012532       0.885682488048338     
  0.884548000492882       0.982511262401625       0.981907716380834     
  0.980356514785789       0.978021890008426       0.974818729720665     
  0.970616660736389       0.965381614345903       0.959270924707988     
  0.952652262786375       0.946044174163579       0.939960345204766     
  0.934760150176016       0.930598602569403       0.927430196017138     
  0.925113622111735       0.923469475147549       0.922334987592088     
   1.01169966585229        1.01109611983150        1.00954491823647     
   1.00721029345910        1.00400713317134       0.999805064187064     
  0.994570017796572       0.988459328158660       0.981840666237035     
  0.975232577614257       0.969148748655445       0.963948553626687     
  0.959787006020074       0.956618599467807       0.954302025562413     
  0.952657878598216       0.951523391042761        1.03351847205170     
   1.03291492603091        1.03136372443587        1.02902909965851     
   1.02582593937073        1.02162387038646        1.01638882399598     
   1.01027813435806        1.00365947243644       0.997051383813654     
  0.990967554854827       0.985767359826085       0.981605812219470     
  0.978437405667210       0.976120831761801       0.974476684797617     
  0.973342197242153        1.04943169942080        1.04882815339999     
   1.04727695180495        1.04494232702760        1.04173916673982     
   1.03753709775555        1.03230205136507        1.02619136172715     
   1.01957269980553        1.01296461118274        1.00688078222392     
   1.00168058719517       0.997519039588563       0.994350633036300     
  0.992034059130901       0.990389912166712       0.989255424611246     
   1.06083056469453        1.06022701867373        1.05867581707869     
   1.05634119230133        1.05313803201356        1.04893596302929     
   1.04370091663881        1.03759022700088        1.03097156507928     
   1.02436347645647        1.01827964749766        1.01307945246892     
   1.00891790486230        1.00574949831003        1.00343292440464     
   1.00178877744045        1.00065428988499        1.06889069767968     
   1.06828715165889        1.06673595006384        1.06440132528648     
   1.06119816499871        1.05699609601443        1.05176104962395     
   1.04565035998603        1.03903169806442        1.03242360944163     
   1.02633978048281        1.02113958545406        1.01697803784745     
   1.01380963129519        1.01149305738979        1.00984891042560     
   1.00871442287013     
 -6.127486936346011E-002 -6.292834912121914E-002 -6.717803406525920E-002
 -7.357399175253149E-002 -8.234939663335385E-002 -9.386142018552181E-002
 -0.108203397332827      -0.124944294089876      -0.143076835990205     
 -0.161180411192104      -0.177847720206614      -0.192094218270034     
 -0.203495229114948      -0.212175422369509      -0.218521927736053     
 -0.223026246595602      -0.226134298249906      -6.421694420134924E-002
 -6.587042395910968E-002 -7.012010890314774E-002 -7.651606659042139E-002
 -8.529147147124438E-002 -9.680349502341118E-002 -0.111145472170715     
 -0.127886368927768      -0.146018910828092      -0.164122486029995     
 -0.180789795044506      -0.195036293107923      -0.206437303952841     
 -0.215117497207398      -0.221464002573940      -0.225968321433493     
 -0.229076373087799      -6.837770864086583E-002 -7.003118839862579E-002
 -7.428087334266212E-002 -8.067683102993634E-002 -8.945223591075900E-002
 -0.100964259462926      -0.115306236610230      -0.132047133367282     
 -0.150179675267610      -0.168283250469511      -0.184950559484022     
 -0.199197057547440      -0.210598068392356      -0.219278261646913     
 -0.225624767013454      -0.230129085873002      -0.233237137527314     
 -7.418628598301119E-002 -7.583976574077013E-002 -8.008945068480866E-002
 -8.648540837208306E-002 -9.526081325290535E-002 -0.106772836805072     
 -0.121114813952377      -0.137855710709429      -0.155988252609757     
 -0.174091827811657      -0.190759136826165      -0.205005634889586     
 -0.216406645734500      -0.225086838989060      -0.231433344355602     
 -0.235937663215154      -0.239045714869461      -8.215049213573081E-002
 -8.380397189349015E-002 -8.805365683752868E-002 -9.444961452480251E-002
 -0.103225019405626      -0.114737042957792      -0.129079020105097     
 -0.145819916862148      -0.163952458762474      -0.182056033964375     
 -0.198723342978887      -0.212969841042305      -0.224370851887223     
 -0.233051045141778      -0.239397550508322      -0.243901869367872     
 -0.247009921022178      -9.280471676311979E-002 -9.445819652088040E-002
 -9.870788146491921E-002 -0.105103839152192      -0.113879244033014     
 -0.125391267585182      -0.139733244732487      -0.156474141489537     
 -0.174606683389865      -0.192710258591766      -0.209377567606276     
 -0.223624065669694      -0.235025076514613      -0.243705269769168     
 -0.250051775135709      -0.254556093995263      -0.257664145649571     
 -0.106597559157794      -0.108251038915554      -0.112500723859592     
 -0.118896681546864      -0.127672086427689      -0.139184109979850     
 -0.153526087127160      -0.170266983884210      -0.188399525784540     
 -0.206503100986438      -0.223170410000950      -0.237416908064361     
 -0.248817918909285      -0.257498112163840      -0.263844617530385     
 -0.268348936389937      -0.271456988044245      -0.123714658436939     
 -0.125368138194699      -0.129617823138737      -0.136013780826013     
 -0.144789185706835      -0.156301209259002      -0.170643186406306     
 -0.187384083163359      -0.205516625063683      -0.223620200265584     
 -0.240287509280097      -0.254534007343515      -0.265935018188425     
 -0.274615211442988      -0.280961716809533      -0.285466035669080     
 -0.288574087323389      -0.143877007305290      -0.145530487063055     
 -0.149780172007094      -0.156176129694362      -0.164951534575188     
 -0.176463558127358      -0.190805535274661      -0.207546432031714     
 -0.225678973932040      -0.243782549133938      -0.260449858148449     
 -0.274696356211863      -0.286097367056786      -0.294777560311342     
 -0.301124065677880      -0.305628384537436      -0.308736436191740     
 -0.166216552587600      -0.167870032345364      -0.172119717289401     
 -0.178515674976670      -0.187291079857499      -0.198803103409664     
 -0.213145080556967      -0.229885977314021      -0.248018519214349     
 -0.266122094416250      -0.282789403430759      -0.297035901494180     
 -0.308436912339094      -0.317117105593652      -0.323463610960193     
 -0.327967929819745      -0.331075981474053      -0.189350738900740     
 -0.191004218658501      -0.195253903602541      -0.201649861289807     
 -0.210425266170634      -0.221937289722804      -0.236279266870108     
 -0.253020163627160      -0.271152705527478      -0.289256280729385     
 -0.305923589743895      -0.320170087807309      -0.331571098652229     
 -0.340251291906787      -0.346597797273333      -0.351102116132882     
 -0.354210167787188      -0.211690284183049      -0.213343763940811     
 -0.217593448884850      -0.223989406572120      -0.232764811452943     
 -0.244276835005112      -0.258618812152414      -0.275359708909465     
 -0.293492250809793      -0.311595826011698      -0.328263135026204     
 -0.342509633089614      -0.353910643934542      -0.362590837189098     
 -0.368937342555641      -0.373441661415191      -0.376549713069500     
 -0.231852633051405      -0.233506112809159      -0.237755797753201     
 -0.244151755440474      -0.252927160321301      -0.264439183873466     
 -0.278781161020769      -0.295522057777823      -0.313654599678148     
 -0.331758174880039      -0.348425483894560      -0.362671981957977     
 -0.374072992802884      -0.382753186057450      -0.389099691423992     
 -0.393604010283547      -0.396712061937848      -0.248969732330549     
 -0.250623212088312      -0.254872897032348      -0.261268854719624     
 -0.270044259600443      -0.281556283152610      -0.295898260299918     
 -0.312639157056961      -0.330771698957295      -0.348875274159196     
 -0.365542583173704      -0.379789081237127      -0.391190092082041     
 -0.399870285336599      -0.406216790703141      -0.410721109562692     
 -0.413829161217001      -0.262762574725222      -0.264416054482983     
 -0.268665739427021      -0.275061697114287      -0.283837101995113     
 -0.295349125547287      -0.309691102694581      -0.326431999451641     
 -0.344564541351972      -0.362668116553868      -0.379335425568378     
 -0.393581923631796      -0.404982934476714      -0.413663127731272     
 -0.420009633097812      -0.424513951957361      -0.427622003611674     
 -0.273416799352610      -0.275070279110378      -0.279319964054412     
 -0.285715921741687      -0.294491326622510      -0.306003350174676     
 -0.320345327321980      -0.337086224079033      -0.355218765979347     
 -0.373322341181258      -0.389989650195769      -0.404236148259182     
 -0.415637159104105      -0.424317352358658      -0.430663857725206     
 -0.435168176584755      -0.438276228239065      -0.281381005505330     
 -0.283034485263094      -0.287284170207131      -0.293680127894405     
 -0.302455532775222      -0.313967556327397      -0.328309533474699     
 -0.345050430231752      -0.363182972132077      -0.381286547333982     
 -0.397953856348480      -0.412200354411907      -0.423601365256824     
 -0.432281558511384      -0.438628063877917      -0.443132382737470     
 -0.446240434391780      -0.287189582847479      -0.288843062605238     
 -0.293092747549281      -0.299488705236549      -0.308264110117362     
 -0.319776133669544      -0.334118110816848      -0.350859007573897     
 -0.368991549474224      -0.387095124676124      -0.403762433690634     
 -0.418008931754051      -0.429409942598969      -0.438090135853532     
 -0.444436641220068      -0.448940960079622      -0.452049011733925     
 -0.291350347286995      -0.293003827044748      -0.297253511988791     
 -0.303649469676067      -0.312424874556884      -0.323936898109059     
 -0.338278875256359      -0.355019772013403      -0.373152313913741     
 -0.391255889115638      -0.407923198130148      -0.422169696193570     
 -0.433570707038483      -0.442250900293032      -0.448597405659586     
 -0.453101724519141      -0.456209776173446      -0.294292422124881     
 -0.295945901882644      -0.300195586826681      -0.306591544513948     
 -0.315366949394782      -0.326878972946944      -0.341220950094252     
 -0.357961846851302      -0.376094388751627      -0.394197963953529     
 -0.410865272968031      -0.425111771031446      -0.436512781876374     
 -0.445192975130929      -0.451539480497471      -0.456043799357024     
 -0.459151851011332     
  0.000000000000000E+000 -2.059343134687265E-004 -5.967154644315922E-004
 -1.288783171780619E-003 -2.918895425121374E-003 -5.573396522451829E-003
 -9.167771110016921E-003 -1.357217217812317E-002 -1.838427778900438E-002
 -2.320014315178548E-002 -2.763890288787426E-002 -3.143970394449276E-002
 -3.447539076661003E-002 -3.679168976136481E-002 -3.848528426515805E-002
 -3.968682183911389E-002 -4.051708164825068E-002  0.000000000000000E+000
 -2.059343134687265E-004 -5.967154644315922E-004 -1.288783171780619E-003
 -2.918895425121374E-003 -5.573396522451829E-003 -9.167771110016921E-003
 -1.357217217812317E-002 -1.838427778900438E-002 -2.320014315178548E-002
 -2.763890288787426E-002 -3.143970394449276E-002 -3.447539076661003E-002
 -3.679168976136481E-002 -3.848528426515805E-002 -3.968682183911389E-002
 -4.051708164825068E-002  0.000000000000000E+000 -2.059343134687265E-004
 -5.967154644315922E-004 -1.288783171780619E-003 -2.918895425121374E-003
 -5.573396522451829E-003 -9.167771110016921E-003 -1.357217217812317E-002
 -1.838427778900438E-002 -2.320014315178548E-002 -2.763890288787426E-002
 -3.143970394449276E-002 -3.447539076661003E-002 -3.679168976136481E-002
 -3.848528426515805E-002 -3.968682183911389E-002 -4.051708164825068E-002
  0.000000000000000E+000 -2.059343134687265E-004 -5.967154644315922E-004
 -1.288783171780619E-003 -2.918895425121374E-003 -5.573396522451829E-003
 -9.167771110016921E-003 -1.357217217812317E-002 -1.838427778900438E-002
 -2.320014315178548E-002 -2.763890288787426E-002 -3.143970394449276E-002
 -3.447539076661003E-002 -3.679168976136481E-002 -3.848528426515805E-002
 -3.968682183911389E-002 -4.051708164825068E-002  0.000000000000000E+000
 -2.059343134687265E-004 -5.967154644315922E-004 -1.288783171780619E-003
 -2.918895425121374E-003 -5.573396522451829E-003 -9.167771110016921E-003
 -1.357217217812317E-002 -1.838427778900438E-002 -2.320014315178548E-002
 -2.763890288787426E-002 -3.143970394449276E-002 -3.447539076661003E-002
 -3.679168976136481E-002 -3.848528426515805E-002 -3.968682183911389E-002
 -4.051708164825068E-002  0.000000000000000E+000 -2.059343134687265E-004
 -5.967154644315922E-004 -1.288783171780619E-003 -2.918895425121374E-003
 -5.573396522451829E-003 -9.167771110016921E-003 -1.357217217812317E-002
 -1.838427778900438E-002 -2.320014315178548E-002 -2.763890288787426E-002
 -3.143970394449276E-002 -3.447539076661003E-002 -3.679168976136481E-002
 -3.848528426515805E-002 -3.968682183911389E-002 -4.051708164825068E-002
  0.000000000000000E+000 -2.059343134687265E-004 -5.967154644315922E-004
 -1.288783171780619E-003 -2.918895425121374E-003 -5.573396522451829E-003
 -9.167771110016921E-003 -1.357217217812317E-002 -1.838427778900438E-002
 -2.320014315178548E-002 -2.763890288787426E-002 -3.143970394449276E-002
 -3.447539076661003E-002 -3.679168976136481E-002 -3.848528426515805E-002
 -3.968682183911389E-002 -4.051708164825068E-002  0.000000000000000E+000
 -2.059343134687265E-004 -5.967154644315922E-004 -1.288783171780619E-003
 -2.918895425121374E-003 -5.573396522451829E-003 -9.167771110016921E-003
 -1.357217217812317E-002 -1.838427778900438E-002 -2.320014315178548E-002
 -2.763890288787426E-002 -3.143970394449276E-002 -3.447539076661003E-002
 -3.679168976136481E-002 -3.848528426515805E-002 -3.968682183911389E-002
 -4.051708164825068E-002  0.000000000000000E+000 -2.059343134687265E-004
 -5.967154644315922E-004 -1.288783171780619E-003 -2.918895425121374E-003
 -5.573396522451829E-003 -9.167771110016921E-003 -1.357217217812317E-002
 -1.838427778900438E-002 -2.320014315178548E-002 -2.763890288787426E-002
 -3.143970394449276E-002 -3.447539076661003E-002 -3.679168976136481E-002
 -3.848528426515805E-002 -3.968682183911389E-002 -4.051708164825068E-002
  0.000000000000000E+000 -2.059343134687265E-004 -5.967154644315922E-004
 -1.288783171780619E-003 -2.918895425121374E-003 -5.573396522451829E-003
 -9.167771110016921E-003 -1.357217217812317E-002 -1.838427778900438E-002
 -2.320014315178548E-002 -2.763890288787426E-002 -3.143970394449276E-002
 -3.447539076661003E-002 -3.679168976136481E-002 -3.848528426515805E-002
 -3.968682183911389E-002 -4.051708164825068E-002  0.000000000000000E+000
 -2.059343134687265E-004 -5.967154644315922E-004 -1.288783171780619E-003
 -2.918895425121374E-003 -5.573396522451829E-003 -9.167771110016921E-003
 -1.357217217812317E-002 -1.838427778900438E-002 -2.320014315178548E-002
 -2.763890288787426E-002 -3.143970394449276E-002 -3.447539076661003E-002
 -3.679168976136481E-002 -3.848528426515805E-002 -3.968682183911389E-002
 -4.051708164825068E-002  0.000000000000000E+000 -2.059343134687265E-004
 -5.967154644315922E-004 -1.288783171780619E-003 -2.918895425121374E-003
 -5.573396522451829E-003 -9.167771110016921E-003 -1.357217217812317E-002
 -1.838427778900438E-002 -2.320014315178548E-002 -2.763890288787426E-002
 -3.143970394449276E-002 -3.447539076661003E-002 -3.679168976136481E-002
 -3.848528426515805E-002 -3.968682183911389E-002 -4.051708164825068E-002
  0.000000000000000E+000 -2.059343134687265E-004 -5.967154644315922E-004
 -1.288783171780619E-003 -2.918895425121374E-003 -5.573396522451829E-003
 -9.167771110016921E-003 -1.357217217812317E-002 -1.838427778900438E-002
 -2.320014315178548E-002 -2.763890288787426E-002 -3.143970394449276E-002
 -3.447539076661003E-002 -3.679168976136481E-002 -3.848528426515805E-002
 -3.968682183911389E-002 -4.051708164825068E-002  0.000000000000000E+000
 -2.059343134687265E-004 -5.967154644315922E-004 -1.288783171780619E-003
 -2.918895425121374E-003 -5.573396522451829E-003 -9.167771110016921E-003
 -1.357217217812317E-002 -1.838427778900438E-002 -2.320014315178548E-002
 -2.763890288787426E-002 -3.143970394449276E-002 -3.447539076661003E-002
 -3.679168976136481E-002 -3.848528426515805E-002 -3.968682183911389E-002
 -4.051708164825068E-002  0.000000000000000E+000 -2.059343134687265E-004
 -5.967154644315922E-004 -1.288783171780619E-003 -2.918895425121374E-003
 -5.573396522451829E-003 -9.167771110016921E-003 -1.357217217812317E-002
 -1.838427778900438E-002 -2.320014315178548E-002 -2.763890288787426E-002
 -3.143970394449276E-002 -3.447539076661003E-002 -3.679168976136481E-002
 -3.848528426515805E-002 -3.968682183911389E-002 -4.051708164825068E-002
  0.000000000000000E+000 -2.059343134687265E-004 -5.967154644315922E-004
 -1.288783171780619E-003 -2.918895425121374E-003 -5.573396522451829E-003
 -9.167771110016921E-003 -1.357217217812317E-002 -1.838427778900438E-002
 -2.320014315178548E-002 -2.763890288787426E-002 -3.143970394449276E-002
 -3.447539076661003E-002 -3.679168976136481E-002 -3.848528426515805E-002
 -3.968682183911389E-002 -4.051708164825068E-002  0.000000000000000E+000
 -2.059343134687265E-004 -5.967154644315922E-004 -1.288783171780619E-003
 -2.918895425121374E-003 -5.573396522451829E-003 -9.167771110016921E-003
 -1.357217217812317E-002 -1.838427778900438E-002 -2.320014315178548E-002
 -2.763890288787426E-002 -3.143970394449276E-002 -3.447539076661003E-002
 -3.679168976136481E-002 -3.848528426515805E-002 -3.968682183911389E-002
 -4.051708164825068E-002  0.000000000000000E+000 -2.059343134687265E-004
 -5.967154644315922E-004 -1.288783171780619E-003 -2.918895425121374E-003
 -5.573396522451829E-003 -9.167771110016921E-003 -1.357217217812317E-002
 -1.838427778900438E-002 -2.320014315178548E-002 -2.763890288787426E-002
 -3.143970394449276E-002 -3.447539076661003E-002 -3.679168976136481E-002
 -3.848528426515805E-002 -3.968682183911389E-002 -4.051708164825068E-002
  0.000000000000000E+000 -2.059343134687265E-004 -5.967154644315922E-004
 -1.288783171780619E-003 -2.918895425121374E-003 -5.573396522451829E-003
 -9.167771110016921E-003 -1.357217217812317E-002 -1.838427778900438E-002
 -2.320014315178548E-002 -2.763890288787426E-002 -3.143970394449276E-002
 -3.447539076661003E-002 -3.679168976136481E-002 -3.848528426515805E-002
 -3.968682183911389E-002 -4.051708164825068E-002  0.000000000000000E+000
 -2.059343134687265E-004 -5.967154644315922E-004 -1.288783171780619E-003
 -2.918895425121374E-003 -5.573396522451829E-003 -9.167771110016921E-003
 -1.357217217812317E-002 -1.838427778900438E-002 -2.320014315178548E-002
 -2.763890288787426E-002 -3.143970394449276E-002 -3.447539076661003E-002
 -3.679168976136481E-002 -3.848528426515805E-002 -3.968682183911389E-002
 -4.051708164825068E-002
 -0.154437762002982      -0.302265162407705      -0.374529256756016     
 -0.356009024296212      -0.322609606758106      -0.299450829398666     
 -0.284285385496589      -0.284563551239076      -0.291702131183164     
 -0.302215388710565      -0.313855731171462      -0.325895176042340     
 -0.335425166177925      -0.343154879802103      -0.348952124010946     
 -0.352760349880237      -0.191291635449008      -0.384874826552838     
 -0.496499003868260      -0.495364280325826      -0.460763008600234     
 -0.430415259633387      -0.408794684613108      -0.408164808229683     
 -0.418421508238861      -0.434612142486626      -0.453442596124920     
 -0.473516390120383      -0.491041471619009      -0.506236081545716     
 -0.517744957609265      -0.524329786468384      -0.206354640541181     
 -0.418356671389217      -0.547628079526121      -0.558602610442992     
 -0.528266978732706      -0.495672748464016      -0.469698810640486     
 -0.467120982354161      -0.478633784008799      -0.498736844980960     
 -0.523227220816269      -0.549587789743963      -0.572536123120164     
 -0.591119866669998      -0.603832805021198      -0.610377169439265     
 -0.207241196932826      -0.421365538845483      -0.552207580826488     
 -0.561737452579651      -0.528165717293085      -0.490334089344713     
 -0.457927778215552      -0.450569787012912      -0.460074329491245     
 -0.480754761871639      -0.507244731396551      -0.535502268759444     
 -0.559064946371928      -0.577093610701665      -0.588813285917038     
 -0.594562947862098      -0.193708830164720      -0.394040759626574     
 -0.510395443790189      -0.501544112194825      -0.449275136131182     
 -0.394054515750611      -0.345927477510484      -0.326094876211721     
 -0.326512139933592      -0.340947222149793      -0.362805353671950     
 -0.387090475434365      -0.407038010436979      -0.422190548072959     
 -0.431908450063862      -0.436544090531816      -0.162555301174082     
 -0.329918445187544      -0.412574314878142      -0.364282275971751     
 -0.271764732337503      -0.178854965998947      -9.710799438144121E-002
 -4.974365239405118E-002 -2.833167817305056E-002 -2.585093412851236E-002
 -3.472948291299254E-002 -4.940846817935159E-002 -6.252599093952876E-002
 -7.320315846340747E-002 -8.020424603320424E-002 -8.349306581581008E-002
 -0.108936841915132      -0.219017277097415      -0.243904071551953     
 -0.129929058783642       3.028365571444464E-002  0.188087524057808     
  0.328915228932610       0.425864510972893       0.487051987003984     
  0.519942030989375       0.533156323884036       0.533488258761012     
  0.530130473661849       0.525396237158084       0.521747891896059     
  0.520004004177591      -2.726749476827935E-002 -4.982329585389553E-002
  1.254312641638551E-002  0.223715254461795       0.484431036276383     
  0.739827295963760       0.970624990861354        1.14402036853057     
   1.26644522718611        1.34525572650385        1.39063440618870     
   1.41187184021155        1.42148277524769        1.42426495694222     
   1.42462551915145        1.42463780187053       8.826540820854557E-002
  0.189581764368363       0.373949890554109       0.718404348296960     
   1.11668574035280        1.50639196352923        1.86178053867939     
   2.14192954856433        2.35015377696273        2.49314581423728     
   2.58314086937289        2.63307842329630        2.66018323721128     
   2.67285900106030        2.67833789489508        2.68053169699087     
  0.242749874684909       0.509483345425627       0.854571600390393     
   1.37098309484286        1.94572303844919        2.50789508852849     
   3.02392474785513        3.44324250622732        3.76503717338066     
   3.99477408040542        4.14666735179640        4.23764234572134     
   4.29039725301389        4.31786345637536        4.33107339213133     
   4.33656979159277       0.432845368895521       0.902508962098692     
   1.44189289400351        2.16169417430894        2.94293765199008     
   3.70594392407471        4.40900064986251        4.99203919783801     
   5.45038868130203        5.78818892604025        6.02095262155607     
   6.16863941973495        6.25880853330498        6.30891114242247     
   6.33438086714063        6.34522166096899       0.628128001336257     
   1.30534633420928        2.04093918932098        2.96244689291028     
   3.94539172543213        4.90190736266717        5.78350053976640     
   6.52311306804017        7.11444943148951        7.56131572185112     
   7.87973361916951        8.09082749208739        8.22508747655180     
   8.30316777680058        8.34436121601953        8.36221723512466     
  0.776949431785374        1.61122348122359        2.49376760765081     
   3.56456997191396        4.69325959779034        5.78525716330199     
   6.78830857911144        7.63307502226792        8.31589780429874     
   8.84246343131248        9.22839562555878        9.49313419261404     