 Title = "Wing and Wake"
 VARIABLES = "X" "Y" "Z" "GAM"
 Zone I=    9 J=   15 K=1  T="Blade"
 DATAPACKING=BLOCK
 VARLOCATION=([4]=CELLCENTERED)
  -1.10867521828460       -1.10854862785641       -1.10821819383124     
  -1.10679575602477       -1.10384279105091       -1.10010796424553     
  -1.09701218088861       -1.09509523187171       -1.09409544552135     
  -1.11469336141795       -1.11451322582012       -1.11404190225502     
  -1.11231105060013       -1.10886555394350       -1.10458271784476     
  -1.10105849065029       -1.09888326879170       -1.09775030404806     
  -1.12006694020752       -1.11980752187042       -1.11912703661373     
  -1.11712632800566       -1.11343344711689       -1.10899707532381     
  -1.10540030403996       -1.10319493525782       -1.10204966767892     
  -1.12512369730629       -1.12477797012270       -1.12386926778472     
  -1.12163062359188       -1.11781359480361       -1.11340782626553     
  -1.10990107958666       -1.10776902333020       -1.10666591224021     
  -1.12978618459181       -1.12946176495422       -1.12860932796277     
  -1.12644777612682       -1.12270896995108       -1.11836063609397     
  -1.11488708984396       -1.11277172026507       -1.11167642661475     
  -1.13425142793456       -1.13394907587970       -1.13315475423144     
  -1.13110255605218       -1.12752071953909       -1.12333533984341     
  -1.11998472149912       -1.11794222891084       -1.11688418493206     
  -1.13858766773241       -1.13830755167299       -1.13757185682705     
  -1.13564937216606       -1.13227599645725       -1.12832329210146     
  -1.12515485650731       -1.12322223023368       -1.12222088755464     
  -1.14287631224365       -1.14261666766089       -1.14193495400113     
  -1.14014534480111       -1.13699854849089       -1.13330737647555     
  -1.13034717209813       -1.12854117544909       -1.12760524470346     
  -1.14719017164935       -1.14694661843316       -1.14630721407271     
  -1.14463630201857       -1.14170420091516       -1.13826853786239     
  -1.13551464626484       -1.13383481664137       -1.13296438695783     
  -1.15152897431822       -1.15129822544253       -1.15069202036705     
  -1.14912770984295       -1.14639882741784       -1.14321115249005     
  -1.14065954334737       -1.13910418687795       -1.13829852670939     
  -1.15587831720542       -1.15565823037632       -1.15508024075478     
  -1.15361624513811       -1.15108575940685       -1.14814375393275     
  -1.14579389917533       -1.14436303036359       -1.14362218548225     
  -1.16023025844658       -1.16001991314310       -1.15946720571234     
  -1.15810081836689       -1.15576707742494       -1.15307108876482     
  -1.15092421205467       -1.14961871703796       -1.14894324590115     
  -1.16454695054320       -1.16434816016232       -1.16382567883896     
  -1.16256664958204       -1.16044460143519       -1.15801050035904     
  -1.15607879505939       -1.15490600170555       -1.15429955546459     
  -1.16888594372017       -1.16869676323350       -1.16819939808588     
  -1.16703986354207       -1.16511977907055       -1.16293883626356     
  -1.16121619953996       -1.16017263045958       -1.15963350470806     
  -1.17322990530216       -1.17305028616755       -1.17257804427042     
  -1.17151696644588       -1.16979680456328       -1.16786639819501     
  -1.16635066494014       -1.16543498676328       -1.16496254478613     
  0.409815947863810       0.410646899238740       0.412838030112856     
  0.416230684632182       0.420275542883096       0.423867556450373     
  0.426321006419295       0.427698073413852       0.428384052136190     
  0.414795785851554       0.415814145123865       0.418498910478136     
  0.422824793972580       0.428215628906057       0.433209477794440     
  0.436721470614406       0.438725973014007       0.439732814148446     
  0.420291898185035       0.421442412933962       0.424474974090394     
  0.429524075399538       0.436032083103897       0.442243650312541     
  0.446697878771826       0.449267635952476       0.450565201814966     
  0.426234843024328       0.427492658320783       0.430807716963930     
  0.436452643750878       0.443889636905877       0.451119736591913     
  0.456364386437230       0.459408985346775       0.460950856975674     
  0.433029004233000       0.434369265147897       0.437901436359772     
  0.443952096048393       0.451968979813766       0.459799061899543     
  0.465495170787854       0.468806938534465       0.470485295767000     
  0.440497019808358       0.441874000200374       0.445502560039691     
  0.451747036213679       0.460056376757909       0.468200479655099     
  0.474137776618364       0.477593477787085       0.479345880191642     
  0.448466327489965       0.449846338970897       0.453483039449008     
  0.459764927920439       0.468153076776414       0.476397552017902     
  0.482418247227551       0.485925736715419       0.487705072510035     
  0.456763475786906       0.458125473939438       0.461714369815260     
  0.467932951829675       0.476260565509926       0.484464510762517     
  0.490463815144693       0.493961518545497       0.495736524213094     
  0.465266045309625       0.466597472765402       0.470105828278673     
  0.476200135647646       0.484380351804172       0.492453873630952     
  0.498364410409241       0.501812317349327       0.503562554690375     
  0.473942376130882       0.475232753982521       0.478632942922860     
  0.484551447134863       0.492510567005803       0.500377541773781     
  0.506142153271532       0.509506488760153       0.511214723869118     
  0.482790143379548       0.484028906117121       0.487292869261444     
  0.492984128407497       0.500649492461472       0.508235528588462     
  0.513798356167131       0.517046211238944       0.518695556620451     
  0.491818909937606       0.492994539423243       0.496092398895121     
  0.501501593567159       0.508796385350856       0.516023107537816     
  0.521325607880107       0.524422514724040       0.525995390062393     
  0.501048074774100       0.502147580626744       0.505044782012565     
  0.510110164599299       0.516949167212985       0.523730492534778     
  0.528709012773514       0.531617385887044       0.533094825225901     
  0.510511969097559       0.511520455680265       0.514177681426697     
  0.518827718229778       0.525111252149477       0.531345769031320     
  0.535924618546210       0.538600204031201       0.539959430902440     
  0.520205496755562       0.521107981828846       0.523486174190178     
  0.527650457344275       0.533280834904439       0.538869989655383     
  0.542975902697266       0.545375485886071       0.546594503244439     
 -6.506223415186382E-002 -6.459777001332320E-002 -6.337180007180387E-002
 -6.180506688161579E-002 -6.039468388286793E-002 -5.954710459671709E-002
 -5.916646977566106E-002 -5.901810762041103E-002 -5.896053248577997E-002
 -7.987687238917375E-002 -7.931675306358611E-002 -7.783877205576467E-002
 -7.581091334242866E-002 -7.375282466865389E-002 -7.224341217323280E-002
 -7.136834591045089E-002 -7.092848898381635E-002 -7.072224788783449E-002
 -9.460878930721330E-002 -9.399632977477289E-002 -9.238079050012528E-002
 -9.000680425635775E-002 -8.735236141625996E-002 -8.515066116053874E-002
 -8.372308607873510E-002 -8.294690731888180E-002 -8.256652184961991E-002
 -0.109181607394362      -0.108534635899996      -0.106828593455198     
 -0.104175131528227      -0.100995103079926      -9.815647441120738E-002
 -9.621049552637120E-002 -9.511588885304594E-002 -9.457005740183483E-002
 -0.123374937791524      -0.122669556122675      -0.120809640082740     
 -0.117878835189372      -0.114314049320236      -0.111085884956847     
 -0.108850444167742      -0.107585614619068      -0.106953080644036     
 -0.137226040750357      -0.136490066569476      -0.134549776781428     
 -0.131460088919277      -0.127658484348371      -0.124178074090523     
 -0.121749704447959      -0.120369916671047      -0.119678331324564     
 -0.150815978742909      -0.150070049010459      -0.148103419175906     
 -0.144943533214234      -0.141017635026914      -0.137390868769178     
 -0.134844949868625      -0.133393355108035      -0.132664584211840     
 -0.164221936520136      -0.163479623228362      -0.161522717155350     
 -0.158353364178607      -0.154382190847649      -0.150685136362569     
 -0.148076570092767      -0.146584898522465      -0.145834980073976     
 -0.177492505342504      -0.176763118009954      -0.174840296877781     
 -0.171704096428219      -0.167745341960981      -0.164035422405204     
 -0.161406303535423      -0.159899306034226      -0.159140764890969     
 -0.190647113159566      -0.189938286441411      -0.188069839659599     
 -0.185002853470083      -0.181105975745554      -0.177432699093201     
 -0.174819612408263      -0.173318656961550      -0.172562347953734     
 -0.203692676420803      -0.203011681532676      -0.201216662747288     
 -0.198252785041164      -0.194464181375706      -0.190874097989437     
 -0.188311555424126      -0.186836856130681      -0.186093138331859     
 -0.216626087381321      -0.215980336147638      -0.214278170045730     
 -0.211452067184507      -0.207819535106420      -0.204360672601631     
 -0.201884197988105      -0.200456609457986      -0.199736081010704     
 -0.229449202612954      -0.228846016344485      -0.227256133834129     
 -0.224602195112112      -0.221172651538625      -0.217892123062741     
 -0.215536386912872      -0.214176334677964      -0.213489319418432     
 -0.242119859457596      -0.241569098015624      -0.240117515795274     
 -0.237682553789056      -0.234520783260980      -0.231484073633335     
 -0.229297801765862      -0.228033741234488      -0.227394853453619     
 -0.254647743347452      -0.254158629537606      -0.252869342241037     
 -0.250696993575932      -0.247863758614333      -0.245132373818417     
 -0.243161368987735      -0.242020336702289      -0.241443323203126     
  1.374785304838518E-002  6.408295885128192E-002  0.238670110806533     
  0.513415170793832       0.780952216841938       0.952912943800952     
   1.02992342466227        1.05187813061957       3.045574555207721E-002
  0.103160802095794       0.319058620290926       0.645668136826564     
  0.955502750017404        1.14344455079013        1.22269050499185     
   1.24516147996524       4.178651612304191E-002  0.124082657302846     
  0.344593616028586       0.667296598988738       0.968320586488796     
   1.14763216395764        1.22172398310081        1.24277724821810     
  3.978218485771166E-002  0.119059048115556       0.337101893760376     
  0.658036579234534       0.956752525293174        1.13269689614273     
   1.20438056634370        1.22466001757810       2.401071438781707E-002
  8.936241975212580E-002  0.305824441974245       0.634638283090897     
  0.943708040021808        1.12715933921250        1.20292145931096     
   1.22468248150009       1.054977510028694E-002  6.324160548696370E-002
  0.275056754762339       0.606712814232597       0.921908034376749     
   1.10997186962186        1.18799653684128        1.21052515787439     
 -5.152815129699712E-004  4.114370138092763E-002  0.245942598958238     
  0.574851546195831       0.890129912658228        1.07877477931013     
   1.15713038307194        1.17980706989231      -8.850053451300015E-003
  2.391355478692958E-002  0.220431193321526       0.542306723832993     
  0.852631928685234        1.03849817788252        1.11567336717638     
   1.13802345026292      -1.373950450071470E-002  1.303321990349698E-002
  0.200983015434733       0.512703502436041       0.814267365339319     
  0.995028254778728        1.07011733873780        1.09188078116543     
 -1.510369103636384E-002  8.653347126374325E-003  0.188021658069415     
  0.486841069556308       0.776292416545565       0.949938014945009     
   1.02213898523908        1.04310065917621      -1.334143300866638E-002
  9.951200886713849E-003  0.180344720875153       0.463350422482287     
  0.737347315986351       0.901935936886423       0.970527910447847     
  0.990492645469440      -1.005065270500853E-002  1.372060324710274E-002
  0.173258023849363       0.436531608097029       0.691529428415055     
  0.845430008745964       0.909974287464896       0.928845886028213     
 -6.834469830118792E-003  1.636139206272810E-002  0.160590344817071     
  0.397037747771407       0.627296374257947       0.768781390869253     
  0.829478468089113       0.847500412379127      -8.655309262489882E-003
  6.231889310742387E-003  0.120238889620410       0.306478718920178     
  0.490115263374355       0.611113016378186       0.668593229975853     
  0.686770956897332     
 Zone I=  301 J=   15 K=1  T="NearWake"
 DATAPACKING=BLOCK
 VARLOCATION=([4]=CELLCENTERED)
  -1.09398914308980       -1.09041006751171       -1.08580327393260     
  -1.08105003523941       -1.07621532717676       -1.07131059249170     
  -1.06634643409330       -1.06133546623853       -1.05629204406883     
  -1.05123173109489       -1.04617084419112       -1.04112608739728     
  -1.03611424689322       -1.03115193760109       -1.02625541320583     
  -1.02144043969396       -1.01672220277053       -1.01211521922860     
  -1.00763324260353       -1.00328916291199      -0.999094900467775     
 -0.995061293954460      -0.991197984128997      -0.987513295819037     
 -0.984014122057999      -0.980705815670030      -0.977592095978952     
 -0.974674980024459      -0.971954747057770      -0.969429943704774     
 -0.967097435833930      -0.964952509997160      -0.962989020397085     
 -0.961199566909414      -0.959575679410824      -0.958107979012327     
 -0.956786290913976      -0.955599695560095      -0.954536521173019     
 -0.953584296338077      -0.952729690196671      -0.951958467330120     
 -0.951255477647611      -0.950604693178255      -0.949989294997803     
 -0.949391805053810      -0.948794252111906      -0.948178360331864     
 -0.947525751483528      -0.946818154583869      -0.946037618257351     
 -0.945166721647653      -0.944188779627681      -0.943088037472249     
 -0.941849849740856      -0.940460838666480      -0.938909028756059     
 -0.937183955810029      -0.935276749784445      -0.933180191895932     
 -0.930888747348937      -0.928398575724377      -0.925707521282695     
 -0.922815086100007      -0.919722389505797      -0.916432116947288     
 -0.912948460907190      -0.909277056571146      -0.905424914442380     
 -0.901400350158329      -0.897212910423773      -0.892873293720938     
 -0.888393263716905      -0.883785552433115      -0.879063750747546     
 -0.874242185208748      -0.869335782203139      -0.864359923020531     
 -0.859330295528040      -0.854262748937300      -0.849173158089080     
 -0.844077302993955      -0.838990767265950      -0.833928857495567     
 -0.828906542934669      -0.823938412936091      -0.819038646843827     
 -0.814220989770374      -0.809498729127159      -0.804884666270222     
 -0.800391075484362      -0.796029648176565      -0.791811429977853     
 -0.787746751681992      -0.783845142609444      -0.780115212794228     
 -0.776564497362222      -0.773199277467474      -0.770024410649965     
 -0.767043194075989      -0.764257264452046      -0.761666535236071     
 -0.759269177160187      -0.757061645246808      -0.755038742632918     
 -0.753193699935126      -0.751518249542391      -0.750002689748978     
 -0.748635948675265      -0.747405653669023      -0.746298197370936     
 -0.745298785188765      -0.744391457045189      -0.743559094926731     
 -0.742783452294525      -0.742045262197404      -0.741324468809868     
 -0.740600576369499      -0.739853064788392      -0.739061805778525     
 -0.738207414616709      -0.737271486115359      -0.736236691781385     
 -0.735086759405990      -0.733806402563755      -0.732381282743202     
 -0.730798053791451      -0.729044483523573      -0.727109613011565     
 -0.724983915183934      -0.722659434870149      -0.720129912467237     
 -0.717390906134636      -0.714439932090564      -0.711276634502230     
 -0.707902976576348      -0.704323431904719      -0.700545160370561     
 -0.696578155546477      -0.692435320574756      -0.688132364377637     
 -0.683687410474854      -0.679120373680234      -0.674452294880797     
 -0.669704779654840      -0.664899650639020      -0.660058912681608     
 -0.655204939696327      -0.650360651802044      -0.645549580766830     
 -0.640795841618323      -0.636123993402318      -0.631558687726061     
 -0.627124008472281      -0.622842533080740      -0.618734204824608     
 -0.614815050825757      -0.611095815000292      -0.607580764333812     
 -0.604267048886142      -0.601144815590642      -0.598197878007963     
 -0.595404479996799      -0.592737783693897      -0.590166232501400     
 -0.587654600768210      -0.585166319537657      -0.582666435601221     
 -0.580123957211690      -0.577513217295849      -0.574814897358227     
 -0.572016978113556      -0.569114866242338      -0.566110050189875     
 -0.563007545445779      -0.559813619286257      -0.556536088414401     
 -0.553187677762856      -0.549789944354543      -0.546374636045053     
 -0.542981336402446      -0.539652516720031      -0.536427921212303     
 -0.533339931436375      -0.530410951408888      -0.527653109127233     
 -0.525069607494540      -0.522656249069101      -0.520401928701558     
 -0.518287898470173      -0.516286469754097      -0.514360648986606     
 -0.512466200542526      -0.510555846057863      -0.508583677789842     
 -0.506508364389985      -0.504295241791277      -0.501917898421910     
 -0.499359294058229      -0.496611917542922      -0.493676650062518     
 -0.490560612265286      -0.487274691251086      -0.483831531461033     
 -0.480244654137405      -0.476528938262695      -0.472702206536115     
 -0.468787471852098      -0.464815249477689      -0.460825049932303     
 -0.456865246265299      -0.452991191033309      -0.449262107361263     
 -0.445737358065076      -0.442472397189152      -0.439514314230123     
 -0.436896429350770      -0.434631100507956      -0.432699919882418     
 -0.431040251330650      -0.429526229771033      -0.427943226112201     
 -0.425960100706512      -0.423125666507757      -0.418953003018474     
 -0.413171917806493      -0.405966734548258      -0.397864473052986     
 -0.389366351825692      -0.380927672965078      -0.373156821818828     
 -0.366670164417009      -0.361805726277427      -0.358558792150862     
 -0.356691613835385      -0.355855213594593      -0.355658408160329     
 -0.355705018197473      -0.355633089304519      -0.355138048580869     
 -0.353982496749072      -0.352012766430461      -0.349177825293894     
 -0.345541178762346      -0.341277689336924      -0.336662652634498     
 -0.332065256258359      -0.327919695826573      -0.324608609079897     
 -0.322230483914679      -0.320544931297301      -0.319586476259682     
 -0.320107238672050      -0.322322143501224      -0.325306076447831     
 -0.328203777475748      -0.330761611853127      -0.333524443228284     
 -0.337789071954979      -0.344761911867059      -0.355389544299423     
 -0.370309024772016      -0.390397247974989      -0.419570023594700     
 -0.468854373648247      -0.505364535801697      -0.523895236479720     
 -0.533115005942367      -0.537635084999013      -0.539972215380895     
 -0.541271665218875      -0.542006213674415      -0.542392425386519     
 -0.542553621575068      -0.542561756931001      -0.542444380966825     
 -0.542187570726155      -0.541740246341425      -0.541019511797468     
 -0.539917366761909      -0.538309854159916      -0.536068223715753     
 -0.533068657206877      -0.529196366142123      -0.524346456410624     
 -0.518438240889795      -0.511468800057791      -0.503610562365890     
 -0.495288827013961      -0.487141843208637      -0.479894599818154     
 -0.474244440611374      -0.470732884908286      -0.469357747080261     
 -0.466179544391681      -0.460941752379694      -0.457313689130300     
 -0.454366257368982      -0.454581410390285      -0.453472298018980     
 -0.447380553367123       -1.09764400161651       -1.09371061907729     
  -1.08787060548330       -1.08217194079939       -1.07648031758062     
  -1.07075050631299       -1.06497228413426       -1.05915067549089     
  -1.05329801748454       -1.04743048342807       -1.04156634995590     
  -1.03572504182979       -1.02992651317682       -1.02419080450135     
  -1.01853767460379       -1.01298630335980       -1.00755509308988     
  -1.00226153958124      -0.997122117822013      -0.992152166684132     
 -0.987365773979030      -0.982775659775378      -0.978393055823620     
 -0.974227582166153      -0.970287124859445      -0.966577720729959     
 -0.963103457804044      -0.959866401112153      -0.956866552218968     
 -0.954101850066968      -0.951568220191468      -0.949259676805652     
 -0.947168475319022      -0.945285301118054      -0.943599469013276     
 -0.942099103464628      -0.940771273315287      -0.939602064758585     
 -0.938576594416368      -0.937678985898550      -0.936892343626742     
 -0.936198749668941      -0.935579296135117      -0.935014162251221     
 -0.934482744383775      -0.933963838332107      -0.933435861852075     
 -0.932877101005869      -0.932265966851799      -0.931581253785134     
 -0.930802394214263      -0.929909705949660      -0.928884628095148     
 -0.927709939672949      -0.926369955255873      -0.924850693434679     
 -0.923140015749326      -0.921227734649682      -0.919105689148319     
 -0.916767787304239      -0.914210016378417      -0.911430423771213     
 -0.908429072331470      -0.905207972928051      -0.901770997631019     
 -0.898123777486818      -0.894273588930229      -0.890229233656578     
 -0.886000916569953      -0.881600122719271      -0.877039491096933     
 -0.872332684218095      -0.867494253408005      -0.862539497781453     
 -0.857484314035054      -0.852345036305703      -0.847138267878912     
 -0.841880709930021      -0.836588996942884      -0.831279549358078     
 -0.825968452548550      -0.820671362393830      -0.815403445381802     
 -0.810179334199250      -0.805013103398543      -0.799918260954673     
 -0.794907744353775      -0.789993911864900      -0.785188524286916     
 -0.780502711579216      -0.775946912980856      -0.771530797198043     
 -0.767263196727828      -0.763152071630278      -0.759204487086685     
 -0.755426580691882      -0.751823492955692      -0.748399254256234     
 -0.745156663857350      -0.742097205148760      -0.739221010235286     
 -0.736526872911507      -0.734012310082207      -0.731673651239439     
 -0.729506110888903      -0.727503812926277      -0.725659771242859     
 -0.723965856034765      -0.722412775402489      -0.720990073032472     
 -0.719686111515590      -0.718488003523362      -0.717381481782981     
 -0.716350722799640      -0.715378166606317      -0.714444447819809     
 -0.713528551905767      -0.712608219607137      -0.711660556152136     
 -0.710662755839336      -0.709592817183843      -0.708430098713219     
 -0.707155580815379      -0.705751839233881      -0.704202918499410     
 -0.702494314108396      -0.700613126668518      -0.698548305210338     
 -0.696290854539142      -0.693833931408817      -0.691172833595534     
 -0.688304947009356      -0.685229738418430      -0.681948858945196     
 -0.678466366953270      -0.674789008156698      -0.670926449431361     
 -0.666891405917290      -0.662699685242207      -0.658370125209614     
 -0.653924183953736      -0.649385019751702      -0.644776356241114     
 -0.640121545295543      -0.635443088559807      -0.630762754488286     
 -0.626102230341307      -0.621484001522436      -0.616932180921498     
 -0.612473163910699      -0.608135975714910      -0.603952145572252     
 -0.599954907037405      -0.596177570414406      -0.592651047078115     
 -0.589400739618621      -0.586443079423405      -0.583782025827052     
 -0.581406181255771      -0.579287734221303      -0.577384438181489     
 -0.575644425404930      -0.574011560051683      -0.572428452191097     
 -0.570836663820612      -0.569176826451193      -0.567391141026636     
 -0.565428624117908      -0.563250499398948      -0.560831730646044     
 -0.558160197153518      -0.555237469743359      -0.552077531835588     
 -0.548697523287717      -0.545105337301883      -0.541296972362207     
 -0.537269480079907      -0.533039618081859      -0.528653117122728     
 -0.524180145362356      -0.519703073238674      -0.515303311179135     
 -0.511051266235344      -0.507001592486814      -0.503193555857089     
 -0.499654541660137      -0.496404082355882      -0.493455801563416     
 -0.490815603467975      -0.488476563838628      -0.486413612071742     
 -0.484581580172113      -0.482917499131782      -0.481346029804751     
 -0.479787210961222      -0.478165813930796      -0.476420575400395     
 -0.474510876256839      -0.472419076986061      -0.470148237491606     
 -0.467716585672216      -0.465151188373733      -0.462483010352728     
 -0.459744290764543      -0.456967961463669      -0.454188053692314     
 -0.451440053166950      -0.448760741914393      -0.446187371465201     
 -0.443756020506201      -0.441499258546626      -0.439443590192855     
 -0.437607173690882      -0.435997988830531      -0.434612174037418     
 -0.433431832396011      -0.432421354834260      -0.431521732500797     
 -0.430643112970964      -0.429654995077956      -0.428372457340585     
 -0.426542115449085      -0.423829784458241      -0.419800966390672     
 -0.414028256572692      -0.406496777230741      -0.397994935842318     
 -0.390147832022809      -0.384541540965258      -0.381937713729403     
 -0.382344447359104      -0.385159007804937      -0.389242996917728     
 -0.393241327771910      -0.396112774509128      -0.397446219646651     
 -0.397387810652572      -0.396282599181215      -0.394462896853053     
 -0.392107670952038      -0.389266435634413      -0.385861212394562     
 -0.381753428145695      -0.376816042787911      -0.370995854244594     
 -0.364321845072063      -0.356894071828445      -0.348877657323691     
 -0.340518403179786      -0.332032938473164      -0.323154963097296     
 -0.313207197089225      -0.303288985487182      -0.295726152637174     
 -0.291000217708737      -0.288450755351634      -0.287449213363174     
 -0.287650313816379      -0.288997197839532      -0.291668238123613     
 -0.295963906376609      -0.302213429747445      -0.310886025680279     
 -0.323225755932415      -0.342833451282559      -0.371453676643969     
 -0.404061295860898      -0.450823316479485      -0.500201467363951     
 -0.526261109841611      -0.542802317398873      -0.554789559437593     
 -0.563982783477370      -0.571117382535199      -0.576565218755936     
 -0.580542037050489      -0.583162284756391      -0.584420100421507     
 -0.584126616121580      -0.581822071821263      -0.576725068761179     
 -0.567997345418315      -0.555704534625611      -0.540996087576436     
 -0.523630382053611      -0.502671145314856      -0.481270486250970     
 -0.464353348281629      -0.452831959081673      -0.446245439529985     
 -0.445983798302082      -0.453256280416879      -0.455864358362617     
 -0.449425446894098      -0.437508777139359      -0.427405953935120     
 -0.427488327158208      -0.433048520179011      -0.435370664525919     
 -0.425823152681033      -0.405133672728512       -1.10194336524738     
  -1.09767068049860       -1.09128251591962       -1.08498586011165     
  -1.07866354345491       -1.07228219626723       -1.06583733966678     
  -1.05933751949034       -1.05279803407646       -1.04623798641301     
  -1.03967871892951       -1.03314287689659       -1.02665378202671     
  -1.02023497426881       -1.01390983707759       -1.00770123850950     
  -1.00163120215635      -0.995720692666787      -0.989989483964058     
 -0.984456030296208      -0.979137336175769      -0.974048830158526     
 -0.969204235636490      -0.964615434532234      -0.960292325954105     
 -0.956242685801997      -0.952472035902606      -0.948983532542441     
 -0.945777884933288      -0.942853314991444      -0.940205570851357     
 -0.937828004190292      -0.935711713861129      -0.933845747196616     
 -0.932217335168810      -0.930812123661475      -0.929614358346046     
 -0.928606990376243      -0.927771701491391      -0.927088889075995     
 -0.926537665730282      -0.926095902885878      -0.925740321603004     
 -0.925446628992973      -0.925189704106129      -0.924943838052220     
 -0.924683019498657      -0.924381241807673      -0.924012809992600     
 -0.923552638356594      -0.922976539596042      -0.922261504927584     
 -0.921385968177145      -0.920330045797970      -0.919075748695917     
 -0.917607163597337      -0.915910600072090      -0.913974698472053     
 -0.911790496094069      -0.909351451772936      -0.906653432139135     
 -0.903694665990966      -0.900475672568475      -0.896999165454275     
 -0.893269934981961      -0.889294716697417      -0.885082052487323     
 -0.880642148491494      -0.875986733680363      -0.871128920409148     
 -0.866083063864006      -0.860864616823391      -0.855489976648716     
 -0.849976320945542      -0.844341430887601      -0.838603506256001     
 -0.832780976923705      -0.826892315091848      -0.820955858890173     
 -0.814989662890748      -0.809011388755759      -0.803038241883156     
 -0.797086953796597      -0.791173808438980      -0.785314707497115     
 -0.779525263013319      -0.773820892417841      -0.768216885191530     
 -0.762728416223759      -0.757370490403166      -0.752157811564926     
 -0.747104599387922      -0.742224411118540      -0.737529993081500     
 -0.733033134123929      -0.728744490344586      -0.724673368332796     
 -0.720827473466054      -0.717212671399570      -0.713832828928142     
 -0.710689757647293      -0.707783252003236      -0.705111184792870     