 Title = "Wing and Wake"
 VARIABLES = "X" "Y" "Z" "GAM"
 Zone I=    9 J=   15 K=1  T="Blade"
 DATAPACKING=BLOCK
 VARLOCATION=([4]=CELLCENTERED)
  -1.61775755021788       -1.61699666134262       -1.61499207182904     
  -1.61140361941235       -1.60645644596184       -1.60147120731891     
  -1.59777626848765       -1.59560694879453       -1.59450243965114     
  -1.61620761484194       -1.61526182014844       -1.61277026595648     
  -1.60823881515838       -1.60190618735152       -1.59545935440178     
  -1.59065296066461       -1.58782254455135       -1.58637937336702     
  -1.61388382290819       -1.61278554268852       -1.60989241734773     
  -1.60461376410593       -1.59721708729013       -1.58967222342065     
  -1.58404081780616       -1.58072258594630       -1.57903022288033     
  -1.61101851313082       -1.60978475337843       -1.60653441723399     
  -1.60063187118742       -1.59239378359883       -1.58401511227632     
  -1.57777190351807       -1.57409636638951       -1.57222253099764     
  -1.60723297161245       -1.60594173832080       -1.60254013309764     
  -1.59633997283736       -1.58765951632134       -1.57881064596519     
  -1.57220830447565       -1.56831866076240       -1.56633507085595     
  -1.60278006411823       -1.60146992580488       -1.59801879489980     
  -1.59171505671843       -1.58287403072542       -1.57384977733001     
  -1.56711154318621       -1.56314054629832       -1.56111497669011     
  -1.59784012876608       -1.59653929216085       -1.59311256155756     
  -1.58684661731636       -1.57805073573434       -1.56906651318766     
  -1.56235561032715       -1.55839984833792       -1.55638196962182     
  -1.59260124137173       -1.59132633175827       -1.58796822278699     
  -1.58182581715630       -1.57320102003221       -1.56438978321702     
  -1.55780753115924       -1.55392731508381       -1.55194785535611     
  -1.58720432116737       -1.58596348861206       -1.58269511282515     
  -1.57671958716172       -1.56833204840300       -1.55976561951862     
  -1.55336723172318       -1.54959570901442       -1.54767177390042     
  -1.58167565138817       -1.58047589284296       -1.57731546038645     
  -1.57154338565233       -1.56344850944166       -1.55518642130428     
  -1.54901745841815       -1.54538191718564       -1.54352750125918     
  -1.57600950142802       -1.57485849522461       -1.57182677314338     
  -1.56629773892086       -1.55855360288369       -1.55065671071415     
  -1.54476351268777       -1.54129142724340       -1.53952064955927     
  -1.57019366775246       -1.56910053740003       -1.56622090171408     
  -1.56097922139637       -1.55364905938706       -1.54618296187550     
  -1.54061504143214       -1.53733565092363       -1.53566348157477     
  -1.56419182129345       -1.56316837375721       -1.56047229499402     
  -1.55557469235581       -1.54873758206619       -1.54178257070215     
  -1.53659954197138       -1.53354811521811       -1.53199232637372     
  -1.55800593390283       -1.55706356650290       -1.55458114107721     
  -1.55008313580698       -1.54381709535018       -1.53745316584214     
  -1.53271495474131       -1.52992657680478       -1.52850527134390     
  -1.55163102912707       -1.55078222056334       -1.54854605075058     
  -1.54450585459981       -1.53889133035429       -1.53319934287840     
  -1.52896594669135       -1.52647597607587       -1.52520717445960     
  0.456271136246382       0.455942967918861       0.455077622754232     
  0.453737758842754       0.452140319561336       0.450721722612864     
  0.449752779546824       0.449208933316920       0.448938019161393     
  0.472872643443169       0.472470461956634       0.471410165310308     
  0.469701740492382       0.467572733504207       0.465600508549734     
  0.464213514262505       0.463421874438764       0.463024241820136     
  0.489270144261244       0.488815770500836       0.487618118564951     
  0.485624072725334       0.483053859752270       0.480600720274266     
  0.478841608071103       0.477826731699811       0.477314282919066     
  0.505491290856640       0.504994540800473       0.503685321893837     
  0.501455966195613       0.498518868214802       0.495663478846232     
  0.493592204858252       0.492389798842375       0.491780866179203     
  0.521376265853159       0.520846955479349       0.519451992122783     
  0.517062399987405       0.513896285318629       0.510803944394761     
  0.508554375306069       0.507246456075974       0.506583621038208     
  0.536995114976158       0.536451302948272       0.535018272749752     
  0.532552136506300       0.529270521635119       0.526054164207286     
  0.523709342508674       0.522344579530760       0.521652501770742     
  0.552415874668924       0.551870865570533       0.550434620382667     
  0.547953708869025       0.544640970164803       0.541384972602355     
  0.539007214363941       0.537621998581459       0.536919283994982     
  0.567707273706702       0.567169378627297       0.565752012951337     
  0.563296103110174       0.560007271613970       0.556767280594232     
  0.554397970253355       0.553016619298490       0.552315614812730     
  0.582917545566485       0.582391723798136       0.581006165995506     
  0.578599336044914       0.575368716377100       0.572180233590948     
  0.569845980314765       0.568484295518140       0.567793072808479     
  0.598059080014239       0.597549470000684       0.596206630513956     
  0.593869230652456       0.590725928727236       0.587619017745264     
  0.585342394863234       0.584013715010442       0.583339080277731     
  0.613133022644889       0.612643797031877       0.611354757313699     
  0.609107103537803       0.606079814845200       0.603083855197723     
  0.600886923009087       0.599604244865572       0.598952867502606     
  0.628135483065586       0.627671190721021       0.626447750466332     
  0.624311492651121       0.621430554377846       0.618576498887836     
  0.616482377954281       0.615259313921745       0.614638136937441     
  0.643058800025120       0.642624571251154       0.641480377063671     
  0.639479901245360       0.636778968173518       0.634100813643217     
  0.632134642445283       0.630986036197952       0.630402549833440     
  0.657889301354531       0.657491018897630       0.656441598491864     
  0.654605155534291       0.652123594182376       0.649661391170575     
  0.647853062268785       0.646796391035978       0.646259590421030     
  0.672629227113210       0.672272807921854       0.671333586406266     
  0.669688982547086       0.667465372787269       0.665258043186276     
  0.663636491484749       0.662688822071627       0.662207394517880     
  1.302291037409872E-002  1.350828232253075E-002  1.479126403638692E-002
  1.593837381400188E-002  1.614747475314712E-002  1.530791430220080E-002
  1.423239090496615E-002  1.346342945125779E-002  1.303902454731857E-002
  1.459707630735154E-002  1.516888095024771E-002  1.667966468737507E-002
  1.821867889322729E-002  1.894904303805206E-002  1.862008787820504E-002
  1.791664069438116E-002  1.736424125981105E-002  1.704956872637187E-002
  1.595130444170887E-002  1.654579059371761E-002  1.811579381123193E-002
  1.993009003630177E-002  2.124187419752487E-002  2.165367728457355E-002
  2.156603875523453E-002  2.139539240996451E-002  2.128001650230714E-002
  1.733723940786706E-002  1.792992395724858E-002  1.949427537961932E-002
  2.152097461455414E-002  2.339140911591782E-002  2.456936031319178E-002
  2.513736256459825E-002  2.537831226811026E-002  2.547879164845746E-002
  1.897653399781898E-002  1.964858893210140E-002  2.142209650458507E-002
  2.381380478599508E-002  2.617647018711209E-002  2.784205086381325E-002
  2.876774050440169E-002  2.921763707200999E-002  2.942420717081360E-002
  2.092226646680558E-002  2.164126287725010E-002  2.353816502973020E-002
  2.617107750633919E-002  2.889029681124125E-002  3.093357024175647E-002
  3.214729569057804E-002  3.276863825350044E-002  3.306318481413355E-002
  2.311234965349437E-002  2.385403494333467E-002  2.581086587951711E-002
  2.859042882314646E-002  3.155886459855628E-002  3.388929424244375E-002
  3.533134366131394E-002  3.609146108020285E-002  3.645777753773858E-002
  2.549604843202058E-002  2.624354937587238E-002  2.821549439986182E-002
  3.107164943242730E-002  3.420504315296533E-002  3.674713764346649E-002
  3.836559597363193E-002  3.923532570029439E-002  3.965878887151897E-002
  2.805181653363771E-002  2.879199837455402E-002  3.074458300552222E-002
  3.362009083800508E-002  3.684455673376193E-002  3.952763558114512E-002
  4.127191916811419E-002  4.222184667691815E-002  4.268773088220788E-002
  3.075651189172278E-002  3.147875314454546E-002  3.338356589143277E-002
  3.622994586629598E-002  3.948151111257187E-002  4.224349021645834E-002
  4.406847298966608E-002  4.507256664841332E-002  4.556771143441554E-002
  3.359508333470195E-002  3.428975476012659E-002  3.612187311795404E-002
  3.889606091979202E-002  4.211763849290864E-002  4.490248299542988E-002
  4.676720775538902E-002  4.780163782899654E-002  4.831385010374866E-002
  3.656718649302571E-002  3.722509464874967E-002  3.896016828101610E-002
  4.161995187256873E-002  4.475436455006383E-002  4.750561035112958E-002
  4.936878920781425E-002  5.040939985308471E-002  5.092645705772985E-002
  3.965199580443065E-002  4.026540017547982E-002  4.188295016358690E-002
  4.439257783687421E-002  4.739186069100070E-002  5.006176583687199E-002
  5.188851867630587E-002  5.291483196082764E-002  5.342635785863374E-002
  4.292746980659307E-002  4.348378570432745E-002  4.495061647775563E-002
  4.725101393308788E-002  5.003398105837878E-002  5.254102616875318E-002
  5.427088945436623E-002  5.524763790143114E-002  5.573555976676257E-002
  4.637384952575346E-002  4.686217732770760E-002  4.814999740954753E-002
  5.018919633797060E-002  5.268319029394759E-002  5.495355526171337E-002
  5.653145134599786E-002  5.742609635797546E-002  5.787389015991056E-002
  5.001417010579925E-002  0.140762559369820       0.358426295207575     
  0.669178623987203       0.956609366051940        1.13751648897695     
   1.21845440076703        1.24155337694244       7.560641080881894E-002
  0.198434285232037       0.467030171485584       0.837702798788450     
   1.17174288657546        1.36853449873533        1.45040519031553     
   1.47348808026681       8.855906773148636E-002  0.222062899549455     
  0.495088672640225       0.860493850844752        1.18402102239896     
   1.37030272946480        1.44568000154303        1.46686973229384     
  8.451261041838243E-002  0.211481060749055       0.475773541625357     
  0.832761862282735        1.15048700023074        1.33283003903604     
   1.40594276034044        1.42645344827317       6.618238831884075E-002
  0.176087037154052       0.434024070383874       0.793596453992298     
   1.11780667574191        1.30579918575548        1.38233240695782     
   1.40414683029923       4.998037296471192E-002  0.143935182802893     
  0.392559768250916       0.750000621508519        1.07678089783247     
   1.26775072738927        1.34601357524557        1.36846032687577     
  3.600742705204601E-002  0.115540713555903       0.352716744657888     
  0.702911541500878        1.02664655638838        1.21675597820048     
   1.29486096282536        1.31732655469684       2.471749472558462E-002
  9.200947874709130E-002  0.316852745467936       0.656122631782416     
  0.972294213482025        1.15843887267740        1.23495902173738     
   1.25699167209484       1.718400172001145E-002  7.552646130746059E-002
  0.288356566140200       0.614256329237894       0.919529493807701     
   1.09955595377563        1.17360524589995        1.19494043784143     
  1.391546689565473E-002  6.711350981525073E-002  0.268931031482379     
  0.579720035788220       0.871460366826233        1.04369211356752     
   1.11456771919633        1.13501181130110       1.512021591172034E-002
  6.717230738416040E-002  0.259162019864375       0.553416978258533     
  0.829454990950246       0.992688754083650        1.06002457819030     
   1.07950071530061       1.963565458347032E-002  7.330498282246437E-002
  0.255355113659141       0.530661624936395       0.788695970536830     
  0.942282738757181        1.00623259193891        1.02486275879940     
  2.433656237084074E-002  7.877479368995437E-002  0.246560745485392     
  0.495812166522998       0.730295195600076       0.873050961294916     
  0.934289502115151       0.952501303608137       2.080273456423095E-002
  6.457314905019469E-002  0.198973602546112       0.394671145874753     
  0.580763142455865       0.703332798419045       0.762297816859490     
  0.781108131638560     
 Zone I=  361 J=   15 K=1  T="NearWake"
 DATAPACKING=BLOCK
 VARLOCATION=([4]=CELLCENTERED)
  -1.59393042111802       -1.58659892802491       -1.57878850870460     
  -1.57134455383762       -1.56428503453931       -1.55762129030715     
  -1.55137379502456       -1.54556365146209       -1.54021062195656     
  -1.53533212231176       -1.53094188670916       -1.52704897138046     
  -1.52365785681422       -1.52077125625885       -1.51838771039544     
  -1.51650057712720       -1.51509863848376       -1.51416630353979     
  -1.51368365266852       -1.51362758136022       -1.51397227216043     
  -1.51469031206213       -1.51575304640873       -1.51713075865117     
  -1.51879313704115       -1.52070908116004       -1.52284522238307     
  -1.52516478298039       -1.52762763808890       -1.53019099298284     
  -1.53280907552586       -1.53543352626224       -1.53801395297387     
  -1.54049869866308       -1.54283595725776       -1.54497478113551     
  -1.54686570607592       -1.54846194401097       -1.54972025242030     
  -1.55060201861121       -1.55107369772888       -1.55110750988861     
  -1.55068171062452       -1.54978020131484       -1.54839291275801     
  -1.54651570142201       -1.54414999850046       -1.54130240178012     
  -1.53798412074422       -1.53421010323542       -1.52999856831876     
  -1.52537032174460       -1.52034568437220       -1.51494572215664     
  -1.50919057388577       -1.50309902261442       -1.49668917416415     
  -1.48997942728995       -1.48299067955352       -1.47574818137025     
  -1.46828403951906       -1.46063732662147       -1.45285261964785     
  -1.44497697010699       -1.43705627598943       -1.42913205360623     
  -1.42123844143401       -1.41340079043003       -1.40563587646689     
  -1.39795356055795       -1.39035977171366       -1.38285911328545     
  -1.37545934865590       -1.36817485722390       -1.36102846687127     
  -1.35405064633448       -1.34727829713982       -1.34075299227453     
  -1.33451659161585       -1.32860858603739       -1.32306431362375     
  -1.31791420214486       -1.31318226913941       -1.30888590763267     
  -1.30503750710804       -1.30164542933073       -1.29871317264410     
  -1.29623873689271       -1.29421428530264       -1.29262583985798     
  -1.29145381709733       -1.29067490946011       -1.29026528550148     
  -1.29020322835643       -1.29047390198230       -1.29107097644149     
  -1.29199522246941       -1.29325072733953       -1.29483921118599     
  -1.29675332964761       -1.29897111889169       -1.30145483552608     
  -1.30415145834229       -1.30699409893443       -1.30990520160307     
  -1.31280200205959       -1.31559770010056       -1.31820253049119     
  -1.32053012477696       -1.32250351027218       -1.32404821094647     
  -1.32510001505827       -1.32560218273519       -1.32550457501885     
  -1.32476426830999       -1.32334320064070       -1.32120742751365     
  -1.31832794966374       -1.31468543693125       -1.31028292617809     
  -1.30514628509683       -1.29933917915221       -1.29294902543299     
  -1.28606879898719       -1.27876928722899       -1.27107699950294     
  -1.26296961710654       -1.25438970283382       -1.24529711799951     
  -1.23576018717463       -1.22601359367479       -1.21638476338414     
  -1.20715158933694       -1.19848493440980       -1.19046361798356     
  -1.18309058247463       -1.17630385945505       -1.16999466006456     
  -1.16403135810342       -1.15827830521301       -1.15261536038535     
  -1.14700084733514       -1.14106230119163       -1.13522451510239     
  -1.12932365225508       -1.12344093796289       -1.11767595791872     
  -1.11212559060823       -1.10686481891961       -1.10193762261489     
  -1.09735789573368       -1.09311361057081       -1.08916977497320     
  -1.08546885924146       -1.08193217197932       -1.07846633009810     
  -1.07497727318813       -1.07139133881365       -1.06767793700738     
  -1.06386575609991       -1.06004751975917       -1.05636772446644     
  -1.05298392779403       -1.05001586533857       -1.04751897070544     
  -1.04549120901005       -1.04389579104958       -1.04268916154984     
  -1.04184993155407       -1.04140084399043       -1.04141171148282     
  -1.04197541650457       -1.04316553709312       -1.04499993978816     
  -1.04743300830577       -1.05037802379775       -1.05373709254812     
  -1.05741438711836       -1.06131245366291       -1.06532759267218     
  -1.06935315187129       -1.07328889727702       -1.07705096719791     
  -1.08057629273590       -1.08381598451286       -1.08671810900422     
  -1.08920935136038       -1.09118242898425       -1.09248367667625     
  -1.09289478663226       -1.09210875204458       -1.08971391856857     
  -1.08526182316882       -1.07852847148352       -1.06983071294241     
  -1.05989960895409       -1.04927385458313       -1.03786189325083     
  -1.02486463563124       -1.00882399699270      -0.988645882926512     
 -0.967566910551696      -0.949596053135457      -0.934387988232841     
 -0.921182013411899      -0.909870470691366      -0.900545810475972     
 -0.893274087273172      -0.887985366704934      -0.884436863801757     
 -0.882245435266364      -0.880944042636766      -0.880040895076303     
 -0.879088869020740      -0.877758979523486      -0.875876615842663     
 -0.873400063458205      -0.870380346245620      -0.866935807368631     
 -0.863242808385496      -0.859522318397460      -0.855997159798560     
 -0.852848696547937      -0.850199845668241      -0.848107858515091     
 -0.846553601558900      -0.845426158886759      -0.844505653406403     
 -0.843464281258042      -0.841908479843788      -0.839452975324569     
 -0.835791187670128      -0.830759551566383      -0.824446342182677     
 -0.817175829961090      -0.809488483138389      -0.802084054882837     
 -0.795642827004993      -0.790418475564748      -0.786243512803954     
 -0.782911415159282      -0.780266843746569      -0.778220852755537     
 -0.776876092418318      -0.776466795559183      -0.777179766445092     
 -0.779038058155833      -0.781978243341688      -0.785931408580129     
 -0.790750556634566      -0.796224379901677      -0.802152389065349     
 -0.808393723216865      -0.814895310991768      -0.821714559611887     
 -0.829037307209982      -0.837087941744618      -0.845664544412226     
 -0.854236746357774      -0.862416338320710      -0.869782738141915     
 -0.875745467683630      -0.879738550777910      -0.881173593553053     
 -0.879077009099864      -0.871837692407225      -0.858488815954749     
 -0.841480757808256      -0.825693951939621      -0.813582171359450     
 -0.803441456481357      -0.789987537917240      -0.763340657666851     
 -0.736968917899828      -0.716911437646301      -0.698377505731299     
 -0.679757254351468      -0.661894753969452      -0.645141861844871     
 -0.630574222584727      -0.619605113480780      -0.612956728863576     
 -0.610449037042160      -0.611328017791767      -0.614611289278179     
 -0.619206069081260      -0.624082156676857      -0.628486820166113     
 -0.631924597549307      -0.634074268291391      -0.634816784163079     
 -0.634166427768261      -0.632069405404545      -0.628556986257454     
 -0.624027619938097      -0.619095742467690      -0.614325724831146     
 -0.610091707280863      -0.606494888174846      -0.603334129007638     
 -0.600169483007024      -0.596493450768817      -0.591958659052611     
 -0.586547513470487      -0.580533896814875      -0.574353477704173     
 -0.568329101058648      -0.562124561562253      -0.554915120659909     
 -0.546528232400204      -0.537247207350164      -0.527498326058787     
 -0.518962075370557      -0.512216191680045      -0.506730147129923     
 -0.502470530279546      -0.499759084924758      -0.498944483894068     
 -0.500145135258082      -0.503364818198718      -0.508500019788584     
 -0.515267037490677      -0.523341225750097      -0.532480839494274     
 -0.542713029375248      -0.554179895798076      -0.566741628648681     
 -0.579873273080992      -0.593639363854929      -0.608682085651034     
 -0.624117746103760      -0.639116496449307      -0.653729173489738     
 -0.667227765929494      -0.677793373587902      -0.683198733598036     
 -0.682578505536603      -0.676010791079736      -0.662605046651788     
 -0.637073179923696      -0.594072369808019      -0.553244891843154     
 -0.526008563741652      -0.515096561766758      -0.526971571190671     
 -0.533977049546409      -0.519876658354675      -0.505126522603748     
 -0.491979468284343      -0.481955153652806      -0.474072755153014     
 -0.465571848215875      -0.453556438787033      -0.437867129259119     
 -0.423308982513627      -0.414287611947826      -0.410319985769919     
 -0.409801093352216      -0.412269674552963      -0.417990607410004     
 -0.426689372876011       -1.58580735483390       -1.57744243790100     
  -1.56862762749705       -1.56019711074179       -1.55222138976144     
  -1.54472118057963       -1.53772197607582       -1.53124903477362     
  -1.52532577707513       -1.51997280888583       -1.51520664223813     
  -1.51103854348754       -1.50747402711935       -1.50451527361221     
  -1.50215901573761       -1.50039591441500       -1.49921134808074     
  -1.49858591551370       -1.49849582737884       -1.49891416325895     
  -1.49981141528041       -1.50115630421703       -1.50291562801203     
  -1.50505380997281       -1.50753259967911       -1.51031044174366     
  -1.51334111534996       -1.51657312270004       -1.51995061146752     
  -1.52341500759582       -1.52690598026070       -1.53036263144743     
  -1.53372437459965       -1.53693175170200       -1.53992729383002     
  -1.54265627442042       -1.54506711047717       -1.54711189132697     
  -1.54874673294558       -1.54993222678144       -1.55063371467614     
  -1.55082190107016       -1.55047358106657       -1.54957170578115     
  -1.54810547757762       -1.54607047479105       -1.54346883765807     
  -1.54030928779944       -1.53660667440294       -1.53238158895708     
  -1.52766064990770       -1.52247420798641       -1.51685084066816     
  -1.51081825020897       -1.50440376733998       -1.49763238768113     
  -1.49052587471722       -1.48310487837350       -1.47539251867372     
  -1.46741660823374       -1.45921150563644       -1.45081918182834     
  -1.44228951241184       -1.43367819845237       -1.42504278799151     
  -1.41643866485733       -1.40791508984309       -1.39951195396528     
  -1.39125796691393       -1.38317070016002       -1.37525863481305     
  -1.36752342792498       -1.35996498999138       -1.35258637946358     
  -1.34539701078401       -1.33841293934817       -1.33165744033451     
  -1.32515996638154       -1.31895263344096       -1.31306802552969     
  -1.30753716716641       -1.30238674268169       -1.29763499616196     
  -1.29329066363223       -1.28935555742672       -1.28582658436268     
  -1.28269580430527       -1.27995074352563       -1.27757508821289     
  -1.27555074115957       -1.27386319911048       -1.27250888845818     
  -1.27150151766392       -1.27087231856261       -1.27066459926299     
  -1.27092090952546       -1.27166839017674       -1.27290838759593     
  -1.27461242447000       -1.27672387310956       -1.27916336935909     
  -1.28183704545773       -1.28464346572228       -1.28747899554697     
  -1.29024244801389       -1.29284034535252       -1.29518886558624     
  -1.29721428698783       -1.29885636885490       -1.30006823866021     
  -1.30080543030390       -1.30102452336306       -1.30067533331430     
  -1.29969914554497       -1.29803376196929       -1.29562088413405     
  -1.29241589516593       -1.28839659827991       -1.28356945060223     
  -1.27797511856173       -1.27168000925880       -1.26477579228739     
  -1.25736259056901       -1.24953153968761       -1.24135023254101     
  -1.23287821183593       -1.22421859755799       -1.21552937580582     
  -1.20696257597520       -1.19862179173832       -1.19058222986076     
  -1.18291979942611       -1.17571005672449       -1.16900607749311     
  -1.16281971563004       -1.15711940151677       -1.15184344018160     
  -1.14691797933401       -1.14227282657824       -1.13784889616396     
  -1.13361706338871       -1.12963952314634       -1.12558254629630     
  -1.12189570234640       -1.11839486673229       -1.11511682284746     
  -1.11207577725511       -1.10926266638432       -1.10663989912652     
  -1.10413491935425       -1.10163767762422       -1.09901204230298     
  -1.09612780083354       -1.09289691945683       -1.08928207866142     
  -1.08527396862491       -1.08086779947527       -1.07606184555107     
  -1.07087434945516       -1.06536621061730       -1.05966334602486     
  -1.05396101520641       -1.04846899692955       -1.04332476509966     
  -1.03858094498537       -1.03425590816326       -1.03038014007196     
  -1.02703248407885       -1.02434837896464       -1.02247496960814     
  -1.02149939602353       -1.02141251540763       -1.02212564921218     
  -1.02350602174454       -1.02540862979852       -1.02770942211364     
  -1.03033699406922       -1.03328235365496       -1.03658344603660     
  -1.04028011418856       -1.04431897990266       -1.04848518881804     
  -1.05248343617562       -1.05604898193842       -1.05896043356092     
  -1.06101053428702       -1.06198228258422       -1.06162730227254     
  -1.05963946454562       -1.05564137625737       -1.04925827657575     
  -1.04032812984274       -1.02910348958473       -1.01620341172060     
  -1.00222803086075      -0.987384188780174      -0.972430216035343     
 -0.959343962495589      -0.948440375353157      -0.938630491581559     
 -0.929030271807032      -0.919424427101845      -0.910089028668266     
 -0.901394666640281      -0.893591589705489      -0.886774583481379     
 -0.880926089334813      -0.875970143216940      -0.871814178506314     
 -0.868374389697445      -0.865589440984766      -0.863432305778541     
 -0.861921315554211      -0.861119608600455      -0.861111640893380     
 -0.861958003389022      -0.863642238754630      -0.866026760366955     
 -0.868835814320418      -0.871682205278293      -0.874134198160333     
 -0.875795242865173      -0.876386355598114      -0.875850928517173     
 -0.874429136467638      -0.872531972767469      -0.870454022558739     
 -0.868167046887565      -0.865297281285000      -0.861267730336104     
 -0.855567984879727      -0.848045456723842      -0.838929032724967     
 -0.828530376568152      -0.817203684237367      -0.805633279038746     
 -0.794784404887983      -0.785485309295051      -0.777959271045625     
 -0.771883351015173      -0.766851232176412      -0.762628580333214     
 -0.759272253804664      -0.757001651821052      -0.755912635560569     
 -0.755956515136028      -0.757045445665291      -0.759113261199462     
 -0.762227090440507      -0.766533392912801      -0.772098288957988     
 -0.778442943025014      -0.784890342333565      -0.791267234527464     
 -0.797700243593014      -0.804269275046218      -0.810973671923401     
 -0.817722844606365      -0.824196992263979      -0.830124717124592     
 -0.835470062859407      -0.839961736366817      -0.842101170055732     
 -0.838234365925957      -0.825117786562679      -0.804281586643404     
 -0.780007507266412      -0.758357428637404      -0.743714411542685     
 -0.733631721230087      -0.726175478742511      -0.719612245623446     
 -0.712020661246614      -0.702004089022286      -0.690260738097164     
 -0.678788052953233      -0.668580430504129      -0.659553157292422     
 -0.651379362170125      -0.643879877791337      -0.637096017977455     
 -0.631242667086460      -0.626636949552873      -0.623647306594031     
 -0.622648817250291      -0.623893543982792      -0.627202055397439     
 -0.631487683280178      -0.634877235957422      -0.637085707126545     
 -0.639693810267495      -0.643019863052820      -0.646279375785379     
 -0.648825157640213      -0.650397054854031      -0.650469167735309     
 -0.648278850482948      -0.644406975075149      -0.640048535295018     
 -0.635679891586054      -0.630912196006572      -0.624848248905321     
 -0.616669420752192      -0.606326324745934      -0.594895194550291     
 -0.583484740419751      -0.572277055083699      -0.560965089436741     
 -0.548854390614392      -0.536044685843964      -0.523272953317083     
 -0.511543989555109      -0.501725740837073      -0.493523317150810     
 -0.486521819145161      -0.481038950326493      -0.477548777201954     
 -0.475969920969013      -0.476275762786612      -0.478496542429641     
 -0.482684862714987      -0.489176250493971      -0.497691276476305     
 -0.507195124836623      -0.516983024039096      -0.527283730127675     
 -0.538337528541097      -0.550003375668698      -0.561369479230156     
 -0.572315759363758      -0.582778093336204      -0.592400223616910     
 -0.602029890577860      -0.613045043545867      -0.624598479854998     
 -0.629834060851634      -0.618947170986749      -0.592620655060065     
 -0.569164161521577      -0.558614350055903      -0.550416760324757     
 -0.537974569083790      -0.529677515361770      -0.526265419598328     