 Title = "Wing and Wake"
 VARIABLES = "X" "Y" "Z" "GAM"
 Zone I=    9 J=   15 K=1  T="Blade"
 DATAPACKING=BLOCK
 VARLOCATION=([4]=CELLCENTERED)
  -1.22479560165703       -1.22440007596957       -1.22335891053251     
  -1.22126218327285       -1.21809350414739       -1.21468764736375     
  -1.21207147237929       -1.21050763888201       -1.20970474952084     
  -1.23892843266316       -1.23843040302701       -1.23711932034987     
  -1.23448992860265       -1.23052761113591       -1.22627653669172     
  -1.22301434028173       -1.22106528908194       -1.22006481851472     
  -1.25251432649642       -1.25192191912196       -1.25036218854374     
  -1.24730358788917       -1.24276843403699       -1.23795475043267     
  -1.23428183620303       -1.23209350761270       -1.23097167468146     
  -1.26575525407677       -1.26507454642855       -1.26328181710697     
  -1.25986130371350       -1.25489320713600       -1.24969355729298     
  -1.24575638237032       -1.24341953291555       -1.24222364710110     
  -1.27845022347244       -1.27774829301499       -1.27589975740905     
  -1.27236002756474       -1.26720453568206       -1.26179849463917     
  -1.25770069019501       -1.25526720632170       -1.25402157770544     
  -1.29077411568476       -1.29006942548875       -1.28821374556909     
  -1.28465565748210       -1.27946818720998       -1.27402483576139     
  -1.26989718727976       -1.26744563669540       -1.26619058549312     
  -1.30283131184396       -1.30213725610349       -1.30030955586444     
  -1.29680571162872       -1.29169803720073       -1.28633884957999     
  -1.28227520197516       -1.27986165723123       -1.27862613933392     
  -1.31473378769549       -1.31405773861922       -1.31227764068131     
  -1.30886949967410       -1.30390629283398       -1.29870227020768     
  -1.29475786801659       -1.29241556631619       -1.29121656348239     
  -1.32656855293413       -1.32591313920624       -1.32418736144960     
  -1.32089145776512       -1.31610069968685       -1.31108413877346     
  -1.30728457038432       -1.30502906691427       -1.30387469824375     
  -1.33834788752350       -1.33771549859768       -1.33605010412751     
  -1.33288035202151       -1.32828504208604       -1.32348200470205     
  -1.31984769895317       -1.31769143120886       -1.31658811365438     
  -1.35006520389916       -1.34945887253038       -1.34786229095822     
  -1.34483566138519       -1.34046192935820       -1.33590056129471     
  -1.33245329750537       -1.33040926996947       -1.32936369727871     
  -1.36171242062013       -1.36113620587732       -1.35961867614138     
  -1.35675537880536       -1.35263268291351       -1.34834412182003     
  -1.34510767164889       -1.34318996822692       -1.34220938055774     
  -1.37326173820189       -1.37272173527557       -1.37129953458266     
  -1.36862914328929       -1.36479909198245       -1.36082577932155     
  -1.35783176920218       -1.35605913264542       -1.35515296297599     
  -1.38473014104016       -1.38423119774881       -1.38291713487559     
  -1.38046371647405       -1.37696049951420       -1.37333784107328     
  -1.37061291631583       -1.36900097357334       -1.36817731013772     
  -1.39611057721116       -1.39565858467452       -1.39446808849385     
  -1.39225889691680       -1.38912000813672       -1.38588553076125     
  -1.38345747424031       -1.38202258264590       -1.38128977396672     
  0.409815947863810       0.410646899238741       0.412838030112855     
  0.416230684632181       0.420275542883097       0.423867556450373     
  0.426321006419295       0.427698073413853       0.428384052136190     
  0.414795785851554       0.415814145123863       0.418498910478137     
  0.422824793972580       0.428215628906056       0.433209477794440     
  0.436721470614407       0.438725973014006       0.439732814148446     
  0.420291898185033       0.421442412933962       0.424474974090394     
  0.429524075399538       0.436032083103896       0.442243650312542     
  0.446697878771826       0.449267635952475       0.450565201814966     
  0.426234843024328       0.427492658320784       0.430807716963930     
  0.436452643750877       0.443889636905878       0.451119736591913     
  0.456364386437231       0.459408985346775       0.460950856975674     
  0.433029004233002       0.434369265147898       0.437901436359773     
  0.443952096048392       0.451968979813766       0.459799061899542     
  0.465495170787855       0.468806938534466       0.470485295767000     
  0.440497019808358       0.441874000200376       0.445502560039690     
  0.451747036213679       0.460056376757910       0.468200479655099     
  0.474137776618365       0.477593477787085       0.479345880191644     
  0.448466327489967       0.449846338970896       0.453483039449008     
  0.459764927920438       0.468153076776415       0.476397552017903     
  0.482418247227552       0.485925736715420       0.487705072510035     
  0.456763475786907       0.458125473939437       0.461714369815262     
  0.467932951829676       0.476260565509927       0.484464510762517     
  0.490463815144693       0.493961518545498       0.495736524213094     
  0.465266045309624       0.466597472765403       0.470105828278675     
  0.476200135647645       0.484380351804172       0.492453873630954     
  0.498364410409242       0.501812317349328       0.503562554690376     
  0.473942376130882       0.475232753982522       0.478632942922858     
  0.484551447134863       0.492510567005804       0.500377541773780     
  0.506142153271531       0.509506488760154       0.511214723869118     
  0.482790143379550       0.484028906117123       0.487292869261445     
  0.492984128407494       0.500649492461473       0.508235528588464     
  0.513798356167132       0.517046211238946       0.518695556620454     
  0.491818909937607       0.492994539423244       0.496092398895123     
  0.501501593567159       0.508796385350857       0.516023107537817     
  0.521325607880107       0.524422514724042       0.525995390062394     
  0.501048074774100       0.502147580626744       0.505044782012564     
  0.510110164599300       0.516949167212986       0.523730492534780     
  0.528709012773515       0.531617385887043       0.533094825225903     
  0.510511969097558       0.511520455680266       0.514177681426699     
  0.518827718229778       0.525111252149477       0.531345769031322     
  0.535924618546211       0.538600204031202       0.539959430902442     
  0.520205496755562       0.521107981828847       0.523486174190178     
  0.527650457344276       0.533280834904440       0.538869989655384     
  0.542975902697266       0.545375485886072       0.546594503244439     
 -3.064680656949149E-002 -3.037237715588130E-002 -2.964562859194950E-002
 -2.935976673529916E-002 -3.017747997347460E-002 -3.192889696603907E-002
 -3.362724496061630E-002 -3.474578403248185E-002 -3.534432919888326E-002
 -3.812709002856268E-002 -3.781380266205896E-002 -3.698456447178120E-002
 -3.654370457097190E-002 -3.718183973908049E-002 -3.877851666317771E-002
 -4.037350658953781E-002 -4.143476229414406E-002 -4.200502814804672E-002
 -4.595832325450901E-002 -4.565590292585917E-002 -4.485573553344780E-002
 -4.432318726722963E-002 -4.466350415934669E-002 -4.582854873359297E-002
 -4.704692279117707E-002 -4.786991909327488E-002 -4.831469072779543E-002
 -5.387132876246539E-002 -5.359794899429841E-002 -5.287514726348138E-002
 -5.228145024894828E-002 -5.229894593808593E-002 -5.295640364775895E-002
 -5.371979065209212E-002 -5.425173263739627E-002 -5.454266762807358E-002
 -6.174706158511353E-002 -6.141524080079400E-002 -6.053839838987880E-002
 -5.968269032529165E-002 -5.935516420411342E-002 -5.967730195819836E-002
 -6.019760745495803E-002 -6.058842516292321E-002 -6.080791721365987E-002
 -6.948741894284022E-002 -6.911797816592238E-002 -6.814221006935636E-002
 -6.709449941383484E-002 -6.648466148789213E-002 -6.650882276031145E-002
 -6.680231964628348E-002 -6.705822981572131E-002 -6.720854226416877E-002
 -7.711063420967687E-002 -7.671927401544758E-002 -7.568564369049807E-002
 -7.450077992856501E-002 -7.366173154636022E-002 -7.342421679278208E-002
 -7.351056090839451E-002 -7.364084303122860E-002 -7.372622280302690E-002
 -8.462350611543447E-002 -8.422175746393808E-002 -8.316087753484895E-002
 -8.188335091869081E-002 -8.086397733426130E-002 -8.040450892674274E-002
 -8.030901392719367E-002 -8.032719947894490E-002 -8.035433330550278E-002
 -9.201645624292841E-002 -9.161426611961010E-002 -9.055230087667461E-002
 -8.922387351505850E-002 -8.807600991338095E-002 -8.744244829463685E-002
 -8.719859379146767E-002 -8.712394039823083E-002 -8.710236558624442E-002
 -9.930454186617256E-002 -9.890987161583532E-002 -9.786821945281203E-002
 -9.652429114780593E-002 -9.529320143256649E-002 -9.452830621228786E-002
 -9.416670841957996E-002 -9.401667370744879E-002 -9.395517576869480E-002
 -0.106502319391628      -0.106122116128589      -0.105118576530002     
 -0.103789152726171      -0.102513478815606      -0.101654400053602     
 -0.101201836083821      -0.100991895628081      -0.100898380651473     
 -0.113612513080609      -0.113253046291241      -0.112304384895883     
 -0.111017761359045      -0.109735180107883      -0.108818485813153     
 -0.108301381945742      -0.108046941706436      -0.107929169370726     
 -0.120660873052734      -0.120326585557359      -0.119444509416040     
 -0.118220762812242      -0.116957606271289      -0.116009185674318     
 -0.115446263319440      -0.115158259899110      -0.115021791806837     
 -0.127578108266570      -0.127277803397290      -0.126485527058040     
 -0.125365572381731      -0.124177722146127      -0.123253350624273     
 -0.122685858750969      -0.122388325479864      -0.122245452398694     
 -0.134382779422574      -0.134123553460681      -0.133439453331811     
 -0.132457385386913      -0.131392700233323      -0.130541179383573     
 -0.130005596641491      -0.129720101786352      -0.129581763650925     
  5.556121513928799E-002  0.149323776701405       0.359459631018551     
  0.660733416119910       0.947420247241022        1.13316295568410     
   1.21735543598110        1.24150223113795       8.366171591560241E-002
  0.212212159004456       0.476561704648795       0.841502675909028     
   1.17796092196096        1.38167747984968        1.46790356624105     
   1.49240581031697       0.102193043307422       0.247862570767760     
  0.524943904806055       0.892718550172488        1.22378217832650     
   1.41954130214899        1.50053336908684        1.52357883433814     
  0.106641456504428       0.256604891299420       0.539106826536312     
  0.910467056465978        1.23988124942371        1.43059956908951     
   1.50793981484425        1.52980077369975       9.635137765463128E-002
  0.237958886612626       0.523146330811758       0.904537542232344     
   1.24420257789416        1.44146240342575        1.52216350167683     
   1.54524987611045       8.757683543011460E-002  0.221324357770859     
  0.505685888081971       0.892025943140155        1.23805485035304     
   1.43935136681931        1.52181580115570        1.54547840977887     
  8.167397715036416E-002  0.209742801778700       0.491704210007935     
  0.878367781899989        1.22561581729835        1.42746007071414     
   1.50995280220896        1.53361433951671       8.068308759422163E-002
  0.207433520270458       0.487911832594787       0.872589743875412     
   1.21768669489418        1.41788636476807        1.49949037866339     
   1.52287603441643       8.620186692664290E-002  0.217629004989298     
  0.499247988955141       0.881396028407828        1.22287484952584     
   1.42108474611460        1.50216723935020        1.52551031875951     
  9.570261904023719E-002  0.235296043429252       0.518726040632574     
  0.896427872069113        1.23193019694742        1.42714085638069     
   1.50761573090154        1.53098091022749       0.103188543918271     
  0.248366242494465       0.528867538344008       0.896049514222797     
   1.22020566528098        1.40919939851497        1.48762128323029     
   1.51052944943038       0.103302600260087       0.245820821993066     
  0.513138447542257       0.859340118761744        1.16445054320631     
   1.34333247875953        1.41816354248831        1.44013166068725     
  9.406962732572785E-002  0.222798412766629       0.462266943367842     
  0.771486836665863        1.04624308425967        1.21106641960916     
   1.28192390343921        1.30307580390853       6.871492682642368E-002
  0.163106227175738       0.345211819783005       0.580001471873132     
  0.793222711256507       0.932715828573645        1.00021907795523     
   1.02183328765372     
 Zone I=  301 J=   15 K=1  T="NearWake"
 DATAPACKING=BLOCK
 VARLOCATION=([4]=CELLCENTERED)
  -1.20940038481665       -1.20323628238932       -1.19602988621071     
  -1.18828513506749       -1.18024282113421       -1.17197679463247     
  -1.16353915373138       -1.15497700248013       -1.14633532498725     
  -1.13765714178288       -1.12898303956229       -1.12035068650719     
  -1.11179461922895       -1.10334647974217       -1.09503578157800     
  -1.08689114134999       -1.07894169982340       -1.07121826671313     
  -1.06375373958340       -1.05658261811814       -1.04973977807123     
  -1.04325889635483       -1.03717101212095       -1.03150340263965     
  -1.02627912097394       -1.02151678388091       -1.01723064009244     
  -1.01343073101482       -1.01012299416361       -1.00730917108106     
  -1.00498648239481       -1.00314722641421       -1.00177864569622     
  -1.00086330123322       -1.00037987994209       -1.00030424097336     
  -1.00061060685233       -1.00127280873021       -1.00226535939198     
  -1.00356400669992       -1.00514547796855       -1.00698630729909     
  -1.00906096426046       -1.01133980288983       -1.01378744580329     
  -1.01636200778630       -1.01901519447227       -1.02169305487236     
  -1.02433713706801       -1.02688590228530       -1.02927635286370     
  -1.03144585332567       -1.03333407726180       -1.03488494379019     
  -1.03604836758884       -1.03678166157945       -1.03705048523393     
  -1.03682929190723       -1.03610127937007       -1.03485789850954     
  -1.03309804147357       -1.03082709306188       -1.02805602288653     
  -1.02480059933314       -1.02108071552828       -1.01691967584958     
  -1.01234324585068       -1.00737829290122       -1.00205106054702     
 -0.996385421897406      -0.990401744087883      -0.984117144492233     
 -0.977547729310402      -0.970712649713065      -0.963638634192219     
 -0.956362873630859      -0.948932612758952      -0.941401347303680     
 -0.933822978643848      -0.926245826340632      -0.918708012600062     
 -0.911234948922770      -0.903839007053274      -0.896521057978658     
 -0.889273419885721      -0.882083830408458      -0.874940069298130     
 -0.867834671824994      -0.860768958781949      -0.853755670622903     
 -0.846819613936027      -0.839995771912899      -0.833325216968951     
 -0.826850587230044      -0.820613146285914      -0.814651205303187     
 -0.808999982636058      -0.803691204493122      -0.798752817735992     
 -0.794209039794153      -0.790081114290594      -0.786388044720339     
 -0.783146066393677      -0.780366825275869      -0.778055139400374     
 -0.776207143516149      -0.774809550009816      -0.773840895484834     
 -0.773275386586150      -0.773088781965712      -0.773264415471578     
 -0.773797075399851      -0.774692948736656      -0.775964834129981     
 -0.777623489091836      -0.779667860108249      -0.782077541576719     
 -0.784809534400717      -0.787799452703394      -0.790966048647352     
 -0.794217418228318      -0.797457309518972      -0.800590471852911     
 -0.803526616047467      -0.806182990576352      -0.808485811116905     
 -0.810370858143998      -0.811783442108872      -0.812677678808737     
 -0.813014855939060      -0.812760815468019      -0.811882655828098     
 -0.810345546584928      -0.808111162394453      -0.805140114225492     
 -0.801400702572830      -0.796883411580696      -0.791613826256474     
 -0.785651010918387      -0.779062294101236      -0.771879642729611     
 -0.764054901453444      -0.755436521291832      -0.745806537299839     
 -0.735041760059328      -0.723391147074062      -0.711571779922118     
 -0.700370469656416      -0.690209563586283      -0.681142955313524     
 -0.673043570399707      -0.665732511472751      -0.659020370966002     
 -0.652709000088632      -0.646600950804648      -0.640556512236675     
 -0.634589222335824      -0.628911518181952      -0.623869859867586     
 -0.619828472535097      -0.617082566248172      -0.615811358656312     
 -0.616042426090681      -0.617639936204309      -0.620366477868401     
 -0.623955168093233      -0.627853444622141      -0.631592191688394     
 -0.635162846223939      -0.637566780029924      -0.636015816386822     
 -0.629594606375762      -0.620989344963782      -0.614056893682590     
 -0.608565119693121      -0.602970839129709      -0.596771927601367     
 -0.590353415993718      -0.584164725296060      -0.578470872419975     
 -0.573351272361012      -0.568804060432760      -0.564842683722882     
 -0.561517530118308      -0.558907644066223      -0.557105483218996     
 -0.556194296532008      -0.556219686572633      -0.557166145112245     
 -0.558953500239480      -0.561456924306766      -0.564537129239474     
 -0.568063167445814      -0.571917210783640      -0.575983145731885     
 -0.580132957655824      -0.584225640285880      -0.588126786243762     
 -0.591761888359785      -0.595240696257339      -0.599057974647454     
 -0.603944350277453      -0.609393704924198      -0.613623130150320     
 -0.616097562493758      -0.616441660738692      -0.613882251051898     
 -0.608320596395417      -0.600748737629156      -0.592826935798000     
 -0.585935019944489      -0.580302352083932      -0.575272916053978     
 -0.570062723613441      -0.564081057737981      -0.556887028362637     
 -0.548073305309904      -0.537329966930881      -0.524926802806801     
 -0.512348130073214      -0.501475228296929      -0.493374279234891     
 -0.488211018947913      -0.485710365057819      -0.485362918438743     
 -0.486367745445797      -0.487837996521723      -0.488736697784478     
 -0.488446151954142      -0.487120999286048      -0.484545988494690     
 -0.481226895434881      -0.477677924525994      -0.472995206487263     
 -0.465782779435123      -0.457138932838518      -0.450125791110537     
 -0.447189872729970      -0.442104655804151      -0.426049722886193     
 -0.406203336668768      -0.388487835697859      -0.369972640774329     
 -0.352594679257858      -0.338411512923984      -0.326727865701932     
 -0.318933705160447      -0.309953435866101      -0.295966601562383     
 -0.285982767595672      -0.282058009363124      -0.281025275330041     
 -0.280355259341206      -0.278999930322861      -0.277811346829807     
 -0.276901530091694      -0.277782418986045      -0.282392987978631     
 -0.294019668142110      -0.312323834001078      -0.332419391164917     
 -0.350700055534822      -0.367398672919254      -0.384031655169416     
 -0.402364795853969      -0.420646654303251      -0.471936383884632     
 -0.608632259992052      -0.637873910923074      -0.640010671624974     
 -0.647261141371411      -0.661386262294463      -0.676479725593975     
 -0.687600652924472      -0.692462370340975      -0.689816065903112     
 -0.681360650049262      -0.666886141336618      -0.638953816228896     
 -0.587979393535222      -0.567732756140114      -0.554725601326700     
 -0.541955128194477      -0.539374964465187      -0.535479969487950     
 -0.508542433593131      -0.484253415169479      -0.467547271215337     
 -0.457624067692305      -0.454317238035479      -0.455576621962250     
 -0.461093675563591      -0.471371949486383      -0.485272613989673     
 -0.498757266303698      -0.507302584387689      -0.509833338408256     
 -0.508790007008014      -0.508751796290779      -0.507945845092125     
 -0.495399808245423       -1.21976045381052       -1.21269921466460     
  -1.20395516383941       -1.19490718481286       -1.18557641018166     
  -1.17600276298195       -1.16623460455339       -1.15632360903367     
  -1.14632232658882       -1.13628275834171       -1.12625528389396     
  -1.11628779265476       -1.10642505078415       -1.09670839787334     
  -1.08717588570952       -1.07786295667344       -1.06880365142089     
  -1.06003206876939       -1.05158351839529       -1.04349482693746     
  -1.03580364305571       -1.02854701847902       -1.02175980171253     
  -1.01547330444187       -1.00971438115030       -1.00450482706625     
 -0.999860906125322      -0.995792930299965      -0.992304861191999     
 -0.989393999188157      -0.987050945428716      -0.985260079909162     
 -0.984000727301093      -0.983248918783464      -0.982979370123847     
 -0.983167220798290      -0.983789121554432      -0.984823330321018     
 -0.986248742218009      -0.988043075925955      -0.990180533349822     
 -0.992629240709742      -0.995348985433080      -0.998290107097190     
  -1.00139415696625       -1.00459601154360       -1.00782650566131     
  -1.01101484622202       -1.01409057396577       -1.01698515283223     
  -1.01963330804136       -1.02197415528139       -1.02395209164328     
  -1.02551742778825       -1.02662681233869       -1.02724355501345     
  -1.02733793388405       -1.02688750473750       -1.02587738269423     
  -1.02430044652446       -1.02215740435175       -1.01945667005240     
  -1.01621401561043       -1.01245197568573       -1.00819901261043     
  -1.00348843954477      -0.998357020572586      -0.992843141799409     
 -0.986984607923937      -0.980816448790909      -0.974369453047351     
 -0.967670198587001      -0.960742860290145      -0.953612242467987     
 -0.946307019424321      -0.938862275144037      -0.931320634616737     
 -0.923731483780942      -0.916148127067566      -0.908623258303606     
 -0.901203772159834      -0.893926226068709      -0.886813935142391     
 -0.879876148077322      -0.873109338474812      -0.866500333523727     
 -0.860030712641986      -0.853681619005162      -0.847437939430967     
 -0.841290928969620      -0.835238962773933      -0.829286896988948     
 -0.823444690200781      -0.817725679105799      -0.812145471790813     
 -0.806722452251683      -0.801479229869236      -0.796443030251962     
 -0.791643479202347      -0.787108564794895      -0.782861440536104     
 -0.778919215101414      -0.775291817014197      -0.771979779208642     
 -0.768972632142247      -0.766250377434699      -0.763789986514313     
 -0.761578082511149      -0.759627822591368      -0.757991729527779     
 -0.756759065401719      -0.756033590566150      -0.755901250251473     
 -0.756403888154848      -0.757528743884774      -0.759213074755301     
 -0.761357535328907      -0.763841605191292      -0.766537012159209     
 -0.769318184808981      -0.772070335849677      -0.774695559182917     
 -0.777116261396014      -0.779274478557442      -0.781125909563204     
 -0.782629130334095      -0.783733056871950      -0.784367781851853     
 -0.784443337624976      -0.783857330469670      -0.782508333927303     
 -0.780310475535425      -0.777205934567120      -0.773173957443880     
 -0.768235852664055      -0.762454847571170      -0.755927675334221     
 -0.748762323991440      -0.741039410608097      -0.732774209163086     
 -0.723936156849807      -0.714583893366906      -0.704991897891853     
 -0.695534399679947      -0.686485988729064      -0.677990846365622     
 -0.670106822251642      -0.662831208824889      -0.656108083490649     
 -0.649822918646815      -0.643797212786424      -0.637799584539057     
 -0.631584826222509      -0.624977679238196      -0.618002733353569     
 -0.610974336127376      -0.604406825026598      -0.598787110198799     
 -0.594424710662439      -0.591448876104376      -0.589878926853982     
 -0.589716735621196      -0.591038221939955      -0.594039829489583     
 -0.598932327619417      -0.605510034924476      -0.613190761783467     
 -0.620995236621230      -0.627617876059898      -0.632529262644657     
 -0.632860183014944      -0.625615255376333      -0.616141981873800     
 -0.610677973314999      -0.606499854957709      -0.601405079841783     
 -0.595313406569205      -0.588760954757541      -0.582102649338883     
 -0.575356825393182      -0.568439946561063      -0.561473585747487     
 -0.554887451950622      -0.549220067849155      -0.544842975422346     
 -0.541876280639705      -0.540261526444598      -0.539852273853597     
 -0.540469790553352      -0.541932798247705      -0.544080769908220     
 -0.546794548647882      -0.549993478674389      -0.553592172679680     
 -0.557443168699302      -0.561327012833267      -0.565015660178905     
 -0.568372688874319      -0.571486699692152      -0.574810663500039     
 -0.578994034311040      -0.584024748470691      -0.588990787004003     
 -0.593156642351398      -0.596066790533911      -0.596932918621783     
 -0.595182845296070      -0.591349440293091      -0.586225465316806     
 -0.579951792645580      -0.572628793466257      -0.564688875115436     
 -0.556508998523614      -0.548162670123690      -0.539518492398826     
 -0.530541729224517      -0.521603757549049      -0.513412258881907     
 -0.506516663578083      -0.501176464658147      -0.497266357885907     
 -0.493896628948448      -0.489135587798882      -0.481432939190224     
 -0.473232555335536      -0.466794782451252      -0.462765465381997     
 -0.460951670188835      -0.460953914005442      -0.462603853606687     
 -0.466251918995722      -0.472692298481919      -0.483229701287334     
 -0.500122476889271      -0.518731918961441      -0.523679648629924     
 -0.516631584361246      -0.503387805849808      -0.486822876586224     
 -0.468266431199079      -0.443159861801675      -0.414128717279498     
 -0.387240835553675      -0.362950614488885      -0.343501559762947     
 -0.327882597609103      -0.316934695806151      -0.303013138013940     
 -0.291535092045455      -0.287535389324428      -0.285947737249572     
 -0.283522609216006      -0.279357508456334      -0.273751648726092     
 -0.267092999980249      -0.261264836471684      -0.258048078268643     
 -0.257910016603146      -0.262530445427873      -0.275143247285162     
 -0.296523820839432      -0.321257193847714      -0.342259402008780     
 -0.359917376891792      -0.375620158541064      -0.391509204214983     
 -0.408067150149565      -0.423332331914531      -0.454546731980190     
 -0.549713013590318      -0.602688060692082      -0.620125947176222     
 -0.622954394419257      -0.621408673351648      -0.618211794459553     
 -0.613645168218908      -0.608100654359548      -0.601691346996249     
 -0.594433408102008      -0.584368648654663      -0.567985340508963     
 -0.547971318982793      -0.535017202695219      -0.527416632385453     
 -0.511034367425685      -0.476436256476738      -0.458187096042731     
 -0.440994180783782      -0.427201371744886      -0.415440092318212     
 -0.406880375688410      -0.403144876090082      -0.403307486292354     
 -0.402225561494132      -0.399348888879037      -0.396074419210488     
 -0.398465338530844      -0.410778550799417      -0.431759172856940     
 -0.454789902907057      -0.476193045830157       -1.23066730997726     
  -1.22274692747745       -1.21279559139955       -1.20255280819606     
  -1.19199795657270       -1.18116401534308       -1.17010069797309     
  -1.15886439022208       -1.14751423600038       -1.13611015126911     
  -1.12471156457758       -1.11337642505079       -1.10216030331745     
  -1.09111556929935       -1.08029074987148       -1.06973028272797     
  -1.05947493703966       -1.04956300903113       -1.04003197722280     
  -1.03091992862768       -1.02226619214893       -1.01411109822670     
  -1.00649505026136      -0.999457132667342      -0.993033481538153     
 -0.987255513972852      -0.982148041354188      -0.977727496941289     
 -0.974000797432391      -0.970965317618646      -0.968609989581008     
 -0.966917118351051      -0.965864487111123      -0.965427466906010     
 -0.965580823965991      -0.966299618871095      -0.967558631836451     
 -0.969330682254863      -0.971584855300040      -0.974285135599624     
 -0.977389010999718      -0.980845456365024      -0.984593164808347     
 -0.988560996129238      -0.992670922278803      -0.996841692750249     
  -1.00099172563132       -1.00504100085885       -1.00891235094516     
  -1.01253249932798       -1.01583293413823       -1.01875054611620     
  -1.02122804436232       -1.02321434926837       -1.02466515912757     
  -1.02554368117743       -1.02582135393549       -1.02547838305888     
  -1.02450399711617       -1.02289642051823       -1.02066260714914     
  -1.01781777965038       -1.01438480862295       -1.01039342421563     
  -1.00587921898887       -1.00088236078323      -0.995445879437172     
 -0.989613414742600      -0.983426493311944      -0.976921700160948     
 -0.970128350445663      -0.963067337947942      -0.955751854133527     
 -0.948190595701423      -0.940393377352052      -0.932377935522287     
 -0.924175844447455      -0.915835112660881      -0.907417866250223     
 -0.898993460138680      -0.890629048591995      -0.882380364435063     
 -0.874285230597190      -0.866361160945077      -0.858607060681973     
 -0.851008214525485      -0.843543438539472      -0.836193097313100     
 -0.828946418519683      -0.821806395871154      -0.814790955057501     
 -0.807930230386578      -0.801261150567757      -0.794820778798693     
 -0.788639640503349      -0.782736867329400      -0.777119587733784     
 -0.771787271652432      -0.766736897131894      -0.761963853143798     
 -0.757460814094510      -0.753219655532406      -0.749232884668053     