 Title = "Wing and Wake"
 VARIABLES = "X" "Y" "Z" "GAM"
 Zone I=   26 J=   25 K=1  T="Blade"
 DATAPACKING=BLOCK
 VARLOCATION=([4]=CELLCENTERED)
 -5.121034616212774E-002 -5.240488459859527E-002 -5.359942303506290E-002
 -5.479396147153022E-002 -5.598849990799774E-002 -5.718303834446523E-002
 -5.837757678093276E-002 -5.957211521740031E-002 -6.076665365386783E-002
 -6.196119209033522E-002 -6.315573052680275E-002 -6.435026896327037E-002
 -6.554480739973781E-002 -6.673934583620526E-002 -6.793388427267276E-002
 -6.912842270914028E-002 -7.032296114560777E-002 -7.151749958207528E-002
 -7.271203801854274E-002 -7.390657645501035E-002 -7.510111489147775E-002
 -7.629565332794523E-002 -7.749019176441262E-002 -7.868473020088020E-002
 -7.987926863734766E-002 -8.107380707381519E-002 -5.237796569643564E-002
 -5.357250413290320E-002 -5.476704256937064E-002 -5.596158100583815E-002
 -5.715611944230558E-002 -5.835065787877297E-002 -5.954519631524060E-002
 -6.073973475170806E-002 -6.193427318817567E-002 -6.312881162464312E-002
 -6.432335006111055E-002 -6.551788849757811E-002 -6.671242693404558E-002
 -6.790696537051302E-002 -6.910150380698066E-002 -7.029604224344804E-002
 -7.149058067991558E-002 -7.268511911638310E-002 -7.387965755285059E-002
 -7.507419598931811E-002 -7.626873442578559E-002 -7.746327286225305E-002
 -7.865781129872061E-002 -7.985234973518801E-002 -8.104688817165553E-002
 -8.224142660812310E-002 -5.586084600540173E-002 -5.705538444186926E-002
 -5.824992287833683E-002 -5.944446131480429E-002 -6.063899975127176E-002
 -6.183353818773918E-002 -6.302807662420679E-002 -6.422261506067420E-002
 -6.541715349714175E-002 -6.661169193360920E-002 -6.780623037007674E-002
 -6.900076880654420E-002 -7.019530724301169E-002 -7.138984567947909E-002
 -7.258438411594671E-002 -7.377892255241415E-002 -7.497346098888168E-002
 -7.616799942534916E-002 -7.736253786181675E-002 -7.855707629828422E-002
 -7.975161473475163E-002 -8.094615317121920E-002 -8.214069160768660E-002
 -8.333523004415415E-002 -8.452976848062159E-002 -8.572430691708909E-002
 -6.159939404130299E-002 -6.279393247777046E-002 -6.398847091423809E-002
 -6.518300935070542E-002 -6.637754778717299E-002 -6.757208622364046E-002
 -6.876662466010801E-002 -6.996116309657552E-002 -7.115570153304301E-002
 -7.235023996951039E-002 -7.354477840597780E-002 -7.473931684244535E-002
 -7.593385527891293E-002 -7.712839371538037E-002 -7.832293215184787E-002
 -7.951747058831547E-002 -8.071200902478293E-002 -8.190654746125031E-002
 -8.310108589771791E-002 -8.429562433418540E-002 -8.549016277065290E-002
 -8.668470120712043E-002 -8.787923964358783E-002 -8.907377808005555E-002
 -9.026831651652274E-002 -9.146285495299035E-002 -6.949542165621898E-002
 -7.068996009268642E-002 -7.188449852915385E-002 -7.307903696562122E-002
 -7.427357540208893E-002 -7.546811383855630E-002 -7.666265227502386E-002
 -7.785719071149153E-002 -7.905172914795880E-002 -8.024626758442631E-002
 -8.144080602089369E-002 -8.263534445736138E-002 -8.382988289382881E-002
 -8.502442133029632E-002 -8.621895976676375E-002 -8.741349820323129E-002
 -8.860803663969870E-002 -8.980257507616628E-002 -9.099711351263388E-002
 -9.219165194910126E-002 -9.338619038556870E-002 -9.458072882203625E-002
 -9.577526725850372E-002 -9.696980569497121E-002 -9.816434413143868E-002
 -9.935888256790622E-002 -7.941382562846579E-002 -8.060836406493330E-002
 -8.180290250140079E-002 -8.299744093786826E-002 -8.419197937433574E-002
 -8.538651781080342E-002 -8.658105624727090E-002 -8.777559468373833E-002
 -8.897013312020591E-002 -9.016467155667346E-002 -9.135920999314082E-002
 -9.255374842960830E-002 -9.374828686607571E-002 -9.494282530254328E-002
 -9.613736373901066E-002 -9.733190217547803E-002 -9.852644061194565E-002
 -9.972097904841314E-002 -0.100915517484881      -0.102110055921348     
 -0.103304594357816      -0.104499132794283      -0.105693671230751     
 -0.106888209667218      -0.108082748103686      -0.109277286540153     
 -9.118489931617749E-002 -9.237943775264518E-002 -9.357397618911263E-002
 -9.476851462557986E-002 -9.596305306204760E-002 -9.715759149851495E-002
 -9.835212993498260E-002 -9.954666837144990E-002 -0.100741206807918     
 -0.101935745244385      -0.103130283680852      -0.104324822117320     
 -0.105519360553787      -0.106713898990255      -0.107908437426722     
 -0.109102975863190      -0.110297514299657      -0.111492052736125     
 -0.112686591172592      -0.113881129609060      -0.115075668045527     
 -0.116270206481995      -0.117464744918462      -0.118659283354930     
 -0.119853821791397      -0.121048360227865      -0.104607236384999     
 -0.105801774821467      -0.106996313257934      -0.108190851694402     
 -0.109385390130869      -0.110579928567337      -0.111774467003804     
 -0.112969005440272      -0.114163543876739      -0.115358082313207     
 -0.116552620749674      -0.117747159186142      -0.118941697622609     
 -0.120136236059077      -0.121330774495544      -0.122525312932012     
 -0.123719851368479      -0.124914389804947      -0.126108928241414     
 -0.127303466677882      -0.128498005114349      -0.129692543550817     
 -0.130887081987284      -0.132081620423751      -0.133276158860219     
 -0.134470697296687      -0.119451176926308      -0.120645715362776     
 -0.121840253799243      -0.123034792235711      -0.124229330672178     
 -0.125423869108645      -0.126618407545113      -0.127812945981581     
 -0.129007484418048      -0.130202022854516      -0.131396561290983     
 -0.132591099727451      -0.133785638163918      -0.134980176600385     
 -0.136174715036853      -0.137369253473321      -0.138563791909788     
 -0.139758330346256      -0.140952868782723      -0.142147407219190     
 -0.143341945655658      -0.144536484092126      -0.145731022528593     
 -0.146925560965061      -0.148120099401528      -0.149314637837996     
 -0.135462737001925      -0.136657275438393      -0.137851813874860     
 -0.139046352311327      -0.140240890747795      -0.141435429184263     
 -0.142629967620730      -0.143824506057197      -0.145019044493665     
 -0.146213582930133      -0.147408121366600      -0.148602659803067     
 -0.149797198239535      -0.150991736676003      -0.152186275112470     
 -0.153380813548937      -0.154575351985405      -0.155769890421872     
 -0.156964428858340      -0.158158967294808      -0.159353505731275     
 -0.160548044167742      -0.161742582604210      -0.162937121040677     
 -0.164131659477145      -0.165326197913612      -0.152367954379713     
 -0.153562492816180      -0.154757031252648      -0.155951569689115     
 -0.157146108125583      -0.158340646562050      -0.159535184998518     
 -0.160729723434985      -0.161924261871453      -0.163118800307920     
 -0.164313338744388      -0.165507877180855      -0.166702415617323     
 -0.167896954053790      -0.169091492490258      -0.170286030926725     
 -0.171480569363193      -0.172675107799660      -0.173869646236128     
 -0.175064184672595      -0.176258723109063      -0.177453261545530     
 -0.178647799981998      -0.179842338418465      -0.181036876854933     
 -0.182231415291400      -0.169877576103326      -0.171072114539793     
 -0.172266652976261      -0.173461191412728      -0.174655729849196     
 -0.175850268285663      -0.177044806722131      -0.178239345158598     
 -0.179433883595066      -0.180628422031533      -0.181822960468001     
 -0.183017498904468      -0.184212037340936      -0.185406575777403     
 -0.186601114213871      -0.187795652650338      -0.188990191086806     
 -0.190184729523273      -0.191379267959741      -0.192573806396208     
 -0.193768344832676      -0.194962883269143      -0.196157421705611     
 -0.197351960142078      -0.198546498578546      -0.199741037015013     
 -0.187692007690489      -0.188886546126956      -0.190081084563424     
 -0.191275622999891      -0.192470161436359      -0.193664699872826     
 -0.194859238309293      -0.196053776745761      -0.197248315182229     
 -0.198442853618696      -0.199637392055164      -0.200831930491631     
 -0.202026468928098      -0.203221007364566      -0.204415545801034     
 -0.205610084237501      -0.206804622673969      -0.207999161110436     
 -0.209193699546904      -0.210388237983371      -0.211582776419838     
 -0.212777314856306      -0.213971853292773      -0.215166391729241     
 -0.216360930165709      -0.217555468602176      -0.205506439277652     
 -0.206700977714119      -0.207895516150586      -0.209090054587054     
 -0.210284593023521      -0.211479131459989      -0.212673669896456     
 -0.213868208332924      -0.215062746769391      -0.216257285205859     
 -0.217451823642326      -0.218646362078794      -0.219840900515262     
 -0.221035438951729      -0.222229977388196      -0.223424515824663     
 -0.224619054261131      -0.225813592697599      -0.227008131134066     
 -0.228202669570534      -0.229397208007001      -0.230591746443469     
 -0.231786284879937      -0.232980823316404      -0.234175361752872     
 -0.235369900189339      -0.223016061001264      -0.224210599437732     
 -0.225405137874200      -0.226599676310667      -0.227794214747135     
 -0.228988753183602      -0.230183291620069      -0.231377830056537     
 -0.232572368493004      -0.233766906929472      -0.234961445365939     
 -0.236155983802407      -0.237350522238874      -0.238545060675342     
 -0.239739599111810      -0.240934137548277      -0.242128675984744     
 -0.243323214421212      -0.244517752857679      -0.245712291294147     
 -0.246906829730614      -0.248101368167082      -0.249295906603550     
 -0.250490445040016      -0.251684983476484      -0.252879521912952     
 -0.239921278379052      -0.241115816815519      -0.242310355251987     
 -0.243504893688454      -0.244699432124922      -0.245893970561390     
 -0.247088508997857      -0.248283047434324      -0.249477585870792     
 -0.250672124307259      -0.251866662743727      -0.253061201180195     
 -0.254255739616662      -0.255450278053130      -0.256644816489598     
 -0.257839354926064      -0.259033893362532      -0.260228431798999     
 -0.261422970235467      -0.262617508671934      -0.263812047108402     
 -0.265006585544870      -0.266201123981337      -0.267395662417805     
 -0.268590200854273      -0.269784739290740      -0.255932838454669     
 -0.257127376891137      -0.258321915327604      -0.259516453764072     
 -0.260710992200539      -0.261905530637007      -0.263100069073474     
 -0.264294607509942      -0.265489145946408      -0.266683684382876     
 -0.267878222819343      -0.269072761255811      -0.270267299692279     
 -0.271461838128747      -0.272656376565214      -0.273850915001682     
 -0.275045453438149      -0.276239991874616      -0.277434530311084     
 -0.278629068747551      -0.279823607184019      -0.281018145620486     
 -0.282212684056954      -0.283407222493421      -0.284601760929889     
 -0.285796299366357      -0.270776778995978      -0.271971317432446     
 -0.273165855868913      -0.274360394305381      -0.275554932741848     
 -0.276749471178316      -0.277944009614783      -0.279138548051250     
 -0.280333086487718      -0.281527624924186      -0.282722163360653     
 -0.283916701797120      -0.285111240233588      -0.286305778670056     
 -0.287500317106523      -0.288694855542990      -0.289889393979458     
 -0.291083932415926      -0.292278470852393      -0.293473009288860     
 -0.294667547725328      -0.295862086161796      -0.297056624598263     
 -0.298251163034730      -0.299445701471198      -0.300640239907666     
 -0.284199116064799      -0.285393654501267      -0.286588192937735     
 -0.287782731374202      -0.288977269810670      -0.290171808247137     
 -0.291366346683605      -0.292560885120072      -0.293755423556540     
 -0.294949961993007      -0.296144500429474      -0.297339038865942     
 -0.298533577302410      -0.299728115738877      -0.300922654175345     
 -0.302117192611812      -0.303311731048279      -0.304506269484747     
 -0.305700807921215      -0.306895346357682      -0.308089884794150     
 -0.309284423230618      -0.310478961667084      -0.311673500103553     
 -0.312868038540019      -0.314062576976487      -0.295970189752512     
 -0.297164728188978      -0.298359266625447      -0.299553805061914     
 -0.300748343498381      -0.301942881934849      -0.303137420371317     
 -0.304331958807784      -0.305526497244252      -0.306721035680719     
 -0.307915574117186      -0.309110112553654      -0.310304650990121     
 -0.311499189426589      -0.312693727863056      -0.313888266299524     
 -0.315082804735991      -0.316277343172459      -0.317471881608926     
 -0.318666420045394      -0.319860958481861      -0.321055496918329     
 -0.322250035354797      -0.323444573791264      -0.324639112227731     
 -0.325833650664199      -0.305888593724758      -0.307083132161226     
 -0.308277670597694      -0.309472209034160      -0.310666747470629     
 -0.311861285907096      -0.313055824343563      -0.314250362780031     
 -0.315444901216498      -0.316639439652966      -0.317833978089434     
 -0.319028516525901      -0.320223054962368      -0.321417593398836     
 -0.322612131835304      -0.323806670271771      -0.325001208708238     
 -0.326195747144706      -0.327390285581173      -0.328584824017641     
 -0.329779362454108      -0.330973900890576      -0.332168439327043     
 -0.333362977763511      -0.334557516199978      -0.335752054636446     
 -0.313784621339674      -0.314979159776142      -0.316173698212609     
 -0.317368236649077      -0.318562775085544      -0.319757313522012     
 -0.320951851958479      -0.322146390394947      -0.323340928831415     
 -0.324535467267882      -0.325730005704350      -0.326924544140816     
 -0.328119082577284      -0.329313621013751      -0.330508159450219     
 -0.331702697886687      -0.332897236323154      -0.334091774759622     
 -0.335286313196089      -0.336480851632557      -0.337675390069024     
 -0.338869928505492      -0.340064466941959      -0.341259005378427     
 -0.342453543814894      -0.343648082251361      -0.319523169375576     
 -0.320717707812043      -0.321912246248511      -0.323106784684978     
 -0.324301323121446      -0.325495861557913      -0.326690399994381     
 -0.327884938430848      -0.329079476867316      -0.330274015303783     
 -0.331468553740250      -0.332663092176718      -0.333857630613185     
 -0.335052169049653      -0.336246707486120      -0.337441245922588     
 -0.338635784359056      -0.339830322795523      -0.341024861231991     
 -0.342219399668458      -0.343413938104925      -0.344608476541393     
 -0.345803014977860      -0.346997553414328      -0.348192091850796     
 -0.349386630287263      -0.323006049684542      -0.324200588121009     
 -0.325395126557477      -0.326589664993944      -0.327784203430411     
 -0.328978741866879      -0.330173280303347      -0.331367818739814     
 -0.332562357176282      -0.333756895612749      -0.334951434049217     
 -0.336145972485684      -0.337340510922152      -0.338535049358619     
 -0.339729587795087      -0.340924126231554      -0.342118664668022     
 -0.343313203104489      -0.344507741540957      -0.345702279977424     
 -0.346896818413892      -0.348091356850359      -0.349285895286827     
 -0.350480433723294      -0.351674972159762      -0.352869510596229     
 -0.324173669218849      -0.325368207655317      -0.326562746091785     
 -0.327757284528252      -0.328951822964720      -0.330146361401187     
 -0.331340899837654      -0.332535438274122      -0.333729976710590     
 -0.334924515147057      -0.336119053583524      -0.337313592019992     
 -0.338508130456459      -0.339702668892926      -0.340897207329394     
 -0.342091745765862      -0.343286284202330      -0.344480822638797     
 -0.345675361075264      -0.346869899511732      -0.348064437948199     
 -0.349258976384667      -0.350453514821134      -0.351648053257601     
 -0.352842591694070      -0.354037130130537     
 -0.111586291478636      -0.110385345497974      -0.109184399517312     
 -0.107983453536650      -0.106782507555988      -0.105581561575325     
 -0.104380615594664      -0.103179669614001      -0.101978723633339     
 -0.100777777652677      -9.957683167201521E-002 -9.837588569135339E-002
 -9.717493971069131E-002 -9.597399373002923E-002 -9.477304774936722E-002
 -9.357210176870512E-002 -9.237115578804306E-002 -9.117020980738108E-002
 -8.996926382671896E-002 -8.876831784605702E-002 -8.756737186539487E-002
 -8.636642588473292E-002 -8.516547990407082E-002 -8.396453392340882E-002
 -8.276358794274680E-002 -8.156264196208478E-002 -0.112747681279143     
 -0.111546735298481      -0.110345789317819      -0.109144843337157     
 -0.107943897356495      -0.106742951375833      -0.105542005395171     
 -0.104341059414509      -0.103140113433847      -0.101939167453185     
 -0.100738221472523      -9.953727549186049E-002 -9.833632951119840E-002
 -9.713538353053629E-002 -9.593443754987437E-002 -9.473349156921226E-002
 -9.353254558855018E-002 -9.233159960788828E-002 -9.113065362722617E-002
 -8.992970764656416E-002 -8.872876166590218E-002 -8.752781568524014E-002
 -8.632686970457813E-002 -8.512592372391600E-002 -8.392497774325398E-002
 -8.272403176259192E-002 -0.116211978979180      -0.115011032998517     
 -0.113810087017855      -0.112609141037194      -0.111408195056532     
 -0.110207249075869      -0.109006303095207      -0.107805357114545     
 -0.106604411133883      -0.105403465153221      -0.104202519172559     
 -0.103001573191897      -0.101800627211235      -0.100599681230573     
 -9.939873524991114E-002 -9.819778926924891E-002 -9.699684328858695E-002
 -9.579589730792479E-002 -9.459495132726299E-002 -9.339400534660081E-002
 -9.219305936593875E-002 -9.099211338527677E-002 -8.979116740461476E-002
 -8.859022142395255E-002 -8.738927544329056E-002 -8.618832946262854E-002
 -0.121919909484613      -0.120718963503951      -0.119518017523290     
 -0.118317071542627      -0.117116125561965      -0.115915179581303     
 -0.114714233600641      -0.113513287619979      -0.112312341639317     
 -0.111111395658655      -0.109910449677993      -0.108709503697331     
 -0.107508557716669      -0.106307611736007      -0.105106665755345     
 -0.103905719774683      -0.102704773794021      -0.101503827813359     
 -0.100302881832697      -9.910193585203472E-002 -9.790098987137269E-002
 -9.670004389071059E-002 -9.549909791004856E-002 -9.429815192938663E-002
 -9.309720594872443E-002 -9.189625996806247E-002 -0.129773808521959     
 -0.128572862541297      -0.127371916560635      -0.126170970579973     
 -0.124970024599311      -0.123769078618649      -0.122568132637987     
 -0.121367186657325      -0.120166240676663      -0.118965294696001     
 -0.117764348715339      -0.116563402734677      -0.115362456754015     
 -0.114161510773353      -0.112960564792691      -0.111759618812029     
 -0.110558672831367      -0.109357726850704      -0.108156780870043     
 -0.106955834889380      -0.105754888908718      -0.104553942928056     
 -0.103352996947394      -0.102152050966732      -0.100951104986070     
 -9.975015900540822E-002 -0.139639293701176      -0.138438347720514     
 -0.137237401739851      -0.136036455759190      -0.134835509778527     
 -0.133634563797865      -0.132433617817204      -0.131232671836541     
 -0.130031725855879      -0.128830779875217      -0.127629833894555     
 -0.126428887913893      -0.125227941933231      -0.124026995952569     
 -0.122826049971907      -0.121625103991245      -0.120424158010583     
 -0.119223212029921      -0.118022266049259      -0.116821320068597     
 -0.115620374087935      -0.114419428107273      -0.113218482126611     
 -0.112017536145949      -0.110816590165287      -0.109615644184625     
 -0.151347563835617      -0.150146617854955      -0.148945671874293     
 -0.147744725893631      -0.146543779912969      -0.145342833932307     
 -0.144141887951645      -0.142940941970983      -0.141739995990321     
 -0.140539050009659      -0.139338104028997      -0.138137158048335     
 -0.136936212067673      -0.135735266087010      -0.134534320106348     
 -0.133333374125686      -0.132132428145024      -0.130931482164362     
 -0.129730536183700      -0.128529590203038      -0.127328644222376     
 -0.126127698241714      -0.124926752261052      -0.123725806280390     
 -0.122524860299728      -0.121323914319066      -0.164698287177137     
 -0.163497341196475      -0.162296395215813      -0.161095449235151     
 -0.159894503254489      -0.158693557273827      -0.157492611293165     
 -0.156291665312503      -0.155090719331841      -0.153889773351179     
 -0.152688827370517      -0.151487881389855      -0.150286935409193     
 -0.149085989428531      -0.147885043447869      -0.146684097467207     
 -0.145483151486545      -0.144282205505883      -0.143081259525221     
 -0.141880313544559      -0.140679367563897      -0.139478421583235     
 -0.138277475602573      -0.137076529621910      -0.135875583641249     
 -0.134674637660587      -0.179463029147844      -0.178262083167182     
 -0.177061137186520      -0.175860191205858      -0.174659245225196     
 -0.173458299244534      -0.172257353263871      -0.171056407283209     
 -0.169855461302548      -0.168654515321885      -0.167453569341223     
 -0.166252623360561      -0.165051677379899      -0.163850731399237     
 -0.162649785418575      -0.161448839437913      -0.160247893457251     
 -0.159046947476589      -0.157846001495927      -0.156645055515265     
 -0.155444109534603      -0.154243163553941      -0.153042217573279     
 -0.151841271592617      -0.150640325611955      -0.149439379631293     
 -0.195389160919057      -0.194188214938395      -0.192987268957733     
 -0.191786322977071      -0.190585376996409      -0.189384431015747     
 -0.188183485035085      -0.186982539054423      -0.185781593073761     
 -0.184580647093099      -0.183379701112437      -0.182178755131775     
 -0.180977809151113      -0.179776863170451      -0.178575917189789     
 -0.177374971209127      -0.176174025228465      -0.174973079247803     
 -0.173772133267140      -0.172571187286478      -0.171370241305816     
 -0.170169295325154      -0.168968349344492      -0.167767403363830     
 -0.166566457383168      -0.165365511402506      -0.212204181960614     
 -0.211003235979952      -0.209802289999290      -0.208601344018628     
 -0.207400398037966      -0.206199452057304      -0.204998506076642     
 -0.203797560095980      -0.202596614115318      -0.201395668134656     
 -0.200194722153994      -0.198993776173332      -0.197792830192670     
 -0.196591884212008      -0.195390938231346      -0.194189992250684     
 -0.192989046270022      -0.191788100289360      -0.190587154308697     
 -0.189386208328036      -0.188185262347374      -0.186984316366712     
 -0.185783370386050      -0.184582424405388      -0.183381478424726     
 -0.182180532444063      -0.229620382600490      -0.228419436619827     
 -0.227218490639166      -0.226017544658504      -0.224816598677841     
 -0.223615652697180      -0.222414706716518      -0.221213760735856     
 -0.220012814755193      -0.218811868774531      -0.217610922793869     
 -0.216409976813207      -0.215209030832545      -0.214008084851883     
 -0.212807138871221      -0.211606192890559      -0.210405246909897     
 -0.209204300929235      -0.208003354948573      -0.206802408967911     
 -0.205601462987249      -0.204400517006587      -0.203199571025925     
 -0.201998625045263      -0.200797679064601      -0.199596733083939     
 -0.247339766817052      -0.246138820836390      -0.244937874855728     
 -0.243736928875065      -0.242535982894403      -0.241335036913741     
 -0.240134090933080      -0.238933144952417      -0.237732198971756     
 -0.236531252991094      -0.235330307010432      -0.234129361029770     
 -0.232928415049107      -0.231727469068445      -0.230526523087783     
 -0.229325577107121      -0.228124631126460      -0.226923685145797     
 -0.225722739165135      -0.224521793184473      -0.223320847203811     
 -0.222119901223149      -0.220918955242487      -0.219718009261825     
 -0.218517063281163      -0.217316117300501      -0.265059151033614     
 -0.263858205052952      -0.262657259072290      -0.261456313091628     
 -0.260255367110966      -0.259054421130304      -0.257853475149641     
 -0.256652529168980      -0.255451583188317      -0.254250637207656     
 -0.253049691226994      -0.251848745246331      -0.250647799265670     
 -0.249446853285007      -0.248245907304346      -0.247044961323683     
 -0.245844015343021      -0.244643069362359      -0.243442123381697     
 -0.242241177401035      -0.241040231420373      -0.239839285439712     
 -0.238638339459049      -0.237437393478387      -0.236236447497725     
 -0.235035501517063      -0.282475351673489      -0.281274405692827     
 -0.280073459712166      -0.278872513731503      -0.277671567750841     
 -0.276470621770179      -0.275269675789517      -0.274068729808855     
 -0.272867783828193      -0.271666837847531      -0.270465891866869     
 -0.269264945886207      -0.268063999905545      -0.266863053924883     
 -0.265662107944221      -0.264461161963559      -0.263260215982897     
 -0.262059270002235      -0.260858324021572      -0.259657378040911     
 -0.258456432060248      -0.257255486079587      -0.256054540098925     
 -0.254853594118262      -0.253652648137600      -0.252451702156938     
 -0.299290372715047      -0.298089426734384      -0.296888480753722     
 -0.295687534773060      -0.294486588792398      -0.293285642811737     
 -0.292084696831074      -0.290883750850412      -0.289682804869750     
 -0.288481858889088      -0.287280912908426      -0.286079966927765     
 -0.284879020947102      -0.283678074966440      -0.282477128985778     
 -0.281276183005116      -0.280075237024454      -0.278874291043792     
 -0.277673345063130      -0.276472399082468      -0.275271453101806     
 -0.274070507121144      -0.272869561140482      -0.271668615159820     
 -0.270467669179158      -0.269266723198495      -0.315216504486260     
 -0.314015558505598      -0.312814612524936      -0.311613666544274     
 -0.310412720563611      -0.309211774582950      -0.308010828602288     
 -0.306809882621625      -0.305608936640963      -0.304407990660301     
 -0.303207044679639      -0.302006098698977      -0.300805152718315     
 -0.299604206737653      -0.298403260756991      -0.297202314776329     
 -0.296001368795667      -0.294800422815005      -0.293599476834343     
 -0.292398530853681      -0.291197584873019      -0.289996638892357     
 -0.288795692911695      -0.287594746931033      -0.286393800950371     
 -0.285192854969709      -0.329981246456966      -0.328780300476304     
 -0.327579354495642      -0.326378408514980      -0.325177462534318     
 -0.323976516553656      -0.322775570572994      -0.321574624592332     
 -0.320373678611670      -0.319172732631008      -0.317971786650346     
 -0.316770840669683      -0.315569894689022      -0.314368948708360     
 -0.313168002727697      -0.311967056747035      -0.310766110766374     
 -0.309565164785711      -0.308364218805049      -0.307163272824387     
 -0.305962326843725      -0.304761380863063      -0.303560434882401     
 -0.302359488901739      -0.301158542921077      -0.299957596940415     
 -0.343331969798487      -0.342131023817825      -0.340930077837162     
 -0.339729131856500      -0.338528185875839      -0.337327239895177     
 -0.336126293914514      -0.334925347933852      -0.333724401953190     
 -0.332523455972529      -0.331322509991866      -0.330121564011204     
 -0.328920618030542      -0.327719672049880      -0.326518726069218     
 -0.325317780088556      -0.324116834107894      -0.322915888127232     
 -0.321714942146570      -0.320513996165908      -0.319313050185246     
 -0.318112104204584      -0.316911158223922      -0.315710212243260     
 -0.314509266262598      -0.313308320281935      -0.355040239932928     
 -0.353839293952266      -0.352638347971604      -0.351437401990942     
 -0.350236456010280      -0.349035510029618      -0.347834564048956     
 -0.346633618068294      -0.345432672087632      -0.344231726106970     
 -0.343030780126308      -0.341829834145646      -0.340628888164984     
 -0.339427942184322      -0.338226996203659      -0.337026050222998     
 -0.335825104242335      -0.334624158261673      -0.333423212281012     
 -0.332222266300350      -0.331021320319687      -0.329820374339025     
 -0.328619428358363      -0.327418482377701      -0.326217536397039     
 -0.325016590416377      -0.364905725112144      -0.363704779131483     
 -0.362503833150821      -0.361302887170158      -0.360101941189497     
 -0.358900995208835      -0.357700049228172      -0.356499103247510     
 -0.355298157266848      -0.354097211286186      -0.352896265305524     
 -0.351695319324862      -0.350494373344200      -0.349293427363538     
 -0.348092481382876      -0.346891535402214      -0.345690589421552     
 -0.344489643440890      -0.343288697460228      -0.342087751479566     
 -0.340886805498904      -0.339685859518242      -0.338484913537580     
 -0.337283967556918      -0.336083021576256      -0.334882075595594     
 -0.372759624149490      -0.371558678168828      -0.370357732188166     
 -0.369156786207504      -0.367955840226842      -0.366754894246180     
 -0.365553948265518      -0.364353002284856      -0.363152056304194     
 -0.361951110323532      -0.360750164342870      -0.359549218362208     
 -0.358348272381546      -0.357147326400884      -0.355946380420221     
 -0.354745434439560      -0.353544488458898      -0.352343542478236     
 -0.351142596497573      -0.349941650516911      -0.348740704536249     
 -0.347539758555587      -0.346338812574925      -0.345137866594263     
 -0.343936920613601      -0.342735974632939      -0.378467554654924     
 -0.377266608674262      -0.376065662693600      -0.374864716712938     