 Title = "Wing and Wake"
 VARIABLES = "X" "Y" "Z" "GAM"
 Zone I=   26 J=   25 K=1  T="Blade"
 DATAPACKING=BLOCK
 VARLOCATION=([4]=CELLCENTERED)
 -5.121034616212774E-002 -5.241150777656479E-002 -5.361266939100178E-002
 -5.481383100543882E-002 -5.601499261987595E-002 -5.721615423431294E-002
 -5.841731584875002E-002 -5.961847746318696E-002 -6.081963907762401E-002
 -6.202080069206101E-002 -6.322196230649794E-002 -6.442312392093512E-002
 -6.562428553537204E-002 -6.682544714980915E-002 -6.802660876424620E-002
 -6.922777037868329E-002 -7.042893199312018E-002 -7.163009360755719E-002
 -7.283125522199418E-002 -7.403241683643136E-002 -7.523357845086824E-002
 -7.643474006530533E-002 -7.763590167974228E-002 -7.883706329417937E-002
 -8.003822490861637E-002 -8.123938652305347E-002 -5.237796569643564E-002
 -5.357912731087268E-002 -5.478028892530973E-002 -5.598145053974678E-002
 -5.718261215418376E-002 -5.838377376862067E-002 -5.958493538305785E-002
 -6.078609699749479E-002 -6.198725861193180E-002 -6.318842022636897E-002
 -6.438958184080588E-002 -6.559074345524298E-002 -6.679190506967989E-002
 -6.799306668411696E-002 -6.919422829855398E-002 -7.039538991299105E-002
 -7.159655152742811E-002 -7.279771314186501E-002 -7.399887475630207E-002
 -7.520003637073910E-002 -7.640119798517622E-002 -7.760235959961317E-002
 -7.880352121405011E-002 -8.000468282848724E-002 -8.120584444292420E-002
 -8.240700605736136E-002 -5.586084600540173E-002 -5.706200761983871E-002
 -5.826316923427587E-002 -5.946433084871278E-002 -6.066549246314981E-002
 -6.186665407758682E-002 -6.306781569202394E-002 -6.426897730646089E-002
 -6.547013892089798E-002 -6.667130053533488E-002 -6.787246214977198E-002
 -6.907362376420903E-002 -7.027478537864597E-002 -7.147594699308306E-002
 -7.267710860752019E-002 -7.387827022195709E-002 -7.507943183639415E-002
 -7.628059345083103E-002 -7.748175506526814E-002 -7.868291667970519E-002
 -7.988407829414218E-002 -8.108523990857920E-002 -8.228640152301643E-002
 -8.348756313745334E-002 -8.468872475189021E-002 -8.588988636632726E-002
 -6.159939404130299E-002 -6.280055565574005E-002 -6.400171727017707E-002
 -6.520287888461403E-002 -6.640404049905117E-002 -6.760520211348796E-002
 -6.880636372792504E-002 -7.000752534236211E-002 -7.120868695679913E-002
 -7.240984857123613E-002 -7.361101018567319E-002 -7.481217180011006E-002
 -7.601333341454729E-002 -7.721449502898435E-002 -7.841565664342126E-002
 -7.961681825785846E-002 -8.081797987229521E-002 -8.201914148673242E-002
 -8.322030310116940E-002 -8.442146471560642E-002 -8.562262633004342E-002
 -8.682378794448059E-002 -8.802494955891754E-002 -8.922611117335454E-002
 -9.042727278779164E-002 -9.162843440222859E-002 -6.949542165621898E-002
 -7.069658327065581E-002 -7.189774488509276E-002 -7.309890649953002E-002
 -7.430006811396683E-002 -7.550122972840392E-002 -7.670239134284094E-002
 -7.790355295727791E-002 -7.910471457171514E-002 -8.030587618615204E-002
 -8.150703780058910E-002 -8.270819941502620E-002 -8.390936102946309E-002
 -8.511052264390019E-002 -8.631168425833720E-002 -8.751284587277422E-002
 -8.871400748721120E-002 -8.991516910164830E-002 -9.111633071608535E-002
 -9.231749233052240E-002 -9.351865394495942E-002 -9.471981555939629E-002
 -9.592097717383359E-002 -9.712213878827043E-002 -9.832330040270749E-002
 -9.952446201714442E-002 -7.941382562846579E-002 -8.061498724290279E-002
 -8.181614885733977E-002 -8.301731047177682E-002 -8.421847208621398E-002
 -8.541963370065095E-002 -8.662079531508797E-002 -8.782195692952501E-002
 -8.902311854396190E-002 -9.022428015839908E-002 -9.142544177283590E-002
 -9.262660338727305E-002 -9.382776500171001E-002 -9.502892661614719E-002
 -9.623008823058415E-002 -9.743124984502115E-002 -9.863241145945813E-002
 -9.983357307389520E-002 -0.101034734688332      -0.102235896302769     
 -0.103437057917206      -0.104638219531643      -0.105839381146080     
 -0.107040542760517      -0.108241704374954      -0.109442865989391     
 -9.118489931617749E-002 -9.238606093061442E-002 -9.358722254505143E-002
 -9.478838415948861E-002 -9.598954577392560E-002 -9.719070738836247E-002
 -9.839186900279949E-002 -9.959303061723659E-002 -0.100794192231674     
 -0.101995353846111      -0.103196515460548      -0.104397677074985     
 -0.105598838689422      -0.106800000303859      -0.108001161918296     
 -0.109202323532733      -0.110403485147170      -0.111604646761607     
 -0.112805808376044      -0.114006969990481      -0.115208131604918     
 -0.116409293219355      -0.117610454833792      -0.118811616448229     
 -0.120012778062666      -0.121213939677103      -0.104607236384999     
 -0.105808397999436      -0.107009559613873      -0.108210721228310     
 -0.109411882842747      -0.110613044457184      -0.111814206071621     
 -0.113015367686058      -0.114216529300495      -0.115417690914932     
 -0.116618852529370      -0.117820014143806      -0.119021175758243     
 -0.120222337372680      -0.121423498987117      -0.122624660601554     
 -0.123825822215992      -0.125026983830428      -0.126228145444866     
 -0.127429307059303      -0.128630468673740      -0.129831630288177     
 -0.131032791902614      -0.132233953517051      -0.133435115131488     
 -0.134636276745925      -0.119451176926308      -0.120652338540745     
 -0.121853500155182      -0.123054661769619      -0.124255823384056     
 -0.125456984998493      -0.126658146612930      -0.127859308227367     
 -0.129060469841805      -0.130261631456242      -0.131462793070678     
 -0.132663954685115      -0.133865116299552      -0.135066277913990     
 -0.136267439528426      -0.137468601142864      -0.138669762757301     
 -0.139870924371738      -0.141072085986175      -0.142273247600612     
 -0.143474409215049      -0.144675570829486      -0.145876732443923     
 -0.147077894058360      -0.148279055672797      -0.149480217287234     
 -0.135462737001925      -0.136663898616362      -0.137865060230799     
 -0.139066221845236      -0.140267383459673      -0.141468545074110     
 -0.142669706688547      -0.143870868302984      -0.145072029917421     
 -0.146273191531858      -0.147474353146295      -0.148675514760732     
 -0.149876676375169      -0.151077837989606      -0.152278999604043     
 -0.153480161218480      -0.154681322832917      -0.155882484447354     
 -0.157083646061792      -0.158284807676228      -0.159485969290666     
 -0.160687130905102      -0.161888292519540      -0.163089454133977     
 -0.164290615748414      -0.165491777362851      -0.152367954379713     
 -0.153569115994150      -0.154770277608587      -0.155971439223024     
 -0.157172600837461      -0.158373762451898      -0.159574924066335     
 -0.160776085680772      -0.161977247295209      -0.163178408909646     
 -0.164379570524083      -0.165580732138520      -0.166781893752957     
 -0.167983055367394      -0.169184216981831      -0.170385378596268     
 -0.171586540210705      -0.172787701825142      -0.173988863439579     
 -0.175190025054016      -0.176391186668454      -0.177592348282890     
 -0.178793509897327      -0.179994671511764      -0.181195833126201     
 -0.182396994740638      -0.169877576103326      -0.171078737717763     
 -0.172279899332200      -0.173481060946637      -0.174682222561074     
 -0.175883384175511      -0.177084545789948      -0.178285707404385     
 -0.179486869018822      -0.180688030633259      -0.181889192247696     
 -0.183090353862133      -0.184291515476570      -0.185492677091007     
 -0.186693838705444      -0.187895000319881      -0.189096161934319     
 -0.190297323548755      -0.191498485163192      -0.192699646777629     
 -0.193900808392066      -0.195101970006503      -0.196303131620940     
 -0.197504293235377      -0.198705454849814      -0.199906616464252     
 -0.187692007690489      -0.188893169304926      -0.190094330919363     
 -0.191295492533800      -0.192496654148237      -0.193697815762674     
 -0.194898977377111      -0.196100138991548      -0.197301300605985     
 -0.198502462220422      -0.199703623834859      -0.200904785449296     
 -0.202105947063733      -0.203307108678170      -0.204508270292607     
 -0.205709431907044      -0.206910593521481      -0.208111755135918     
 -0.209312916750355      -0.210514078364792      -0.211715239979229     
 -0.212916401593666      -0.214117563208103      -0.215318724822540     
 -0.216519886436977      -0.217721048051415      -0.205506439277652     
 -0.206707600892088      -0.207908762506525      -0.209109924120962     
 -0.210311085735400      -0.211512247349836      -0.212713408964274     
 -0.213914570578711      -0.215115732193147      -0.216316893807585     
 -0.217518055422022      -0.218719217036459      -0.219920378650896     
 -0.221121540265333      -0.222322701879770      -0.223523863494206     
 -0.224725025108644      -0.225926186723081      -0.227127348337518     
 -0.228328509951955      -0.229529671566392      -0.230730833180829     
 -0.231931994795266      -0.233133156409703      -0.234334318024140     
 -0.235535479638577      -0.223016061001264      -0.224217222615701     
 -0.225418384230138      -0.226619545844575      -0.227820707459013     
 -0.229021869073450      -0.230223030687887      -0.231424192302324     
 -0.232625353916761      -0.233826515531198      -0.235027677145634     
 -0.236228838760072      -0.237430000374509      -0.238631161988945     
 -0.239832323603383      -0.241033485217820      -0.242234646832257     
 -0.243435808446694      -0.244636970061131      -0.245838131675568     
 -0.247039293290004      -0.248240454904442      -0.249441616518879     
 -0.250642778133316      -0.251843939747753      -0.253045101362190     
 -0.239921278379052      -0.241122439993489      -0.242323601607926     
 -0.243524763222363      -0.244725924836800      -0.245927086451237     
 -0.247128248065674      -0.248329409680111      -0.249530571294548     
 -0.250731732908985      -0.251932894523423      -0.253134056137859     
 -0.254335217752296      -0.255536379366733      -0.256737540981171     
 -0.257938702595608      -0.259139864210045      -0.260341025824482     
 -0.261542187438919      -0.262743349053356      -0.263944510667793     
 -0.265145672282230      -0.266346833896667      -0.267547995511104     
 -0.268749157125541      -0.269950318739978      -0.255932838454669     
 -0.257134000069106      -0.258335161683543      -0.259536323297980     
 -0.260737484912417      -0.261938646526854      -0.263139808141291     
 -0.264340969755728      -0.265542131370165      -0.266743292984602     
 -0.267944454599039      -0.269145616213476      -0.270346777827913     
 -0.271547939442350      -0.272749101056787      -0.273950262671224     
 -0.275151424285661      -0.276352585900099      -0.277553747514535     
 -0.278754909128972      -0.279956070743409      -0.281157232357847     
 -0.282358393972283      -0.283559555586721      -0.284760717201158     
 -0.285961878815595      -0.270776778995978      -0.271977940610415     
 -0.273179102224852      -0.274380263839289      -0.275581425453726     
 -0.276782587068163      -0.277983748682600      -0.279184910297037     
 -0.280386071911474      -0.281587233525911      -0.282788395140348     
 -0.283989556754785      -0.285190718369223      -0.286391879983659     
 -0.287593041598097      -0.288794203212533      -0.289995364826970     
 -0.291196526441407      -0.292397688055844      -0.293598849670281     
 -0.294800011284718      -0.296001172899156      -0.297202334513593     
 -0.298403496128030      -0.299604657742467      -0.300805819356903     
 -0.284199116064799      -0.285400277679237      -0.286601439293674     
 -0.287802600908111      -0.289003762522548      -0.290204924136985     
 -0.291406085751422      -0.292607247365859      -0.293808408980296     
 -0.295009570594733      -0.296210732209170      -0.297411893823607     
 -0.298613055438044      -0.299814217052481      -0.301015378666918     
 -0.302216540281355      -0.303417701895792      -0.304618863510229     
 -0.305820025124666      -0.307021186739103      -0.308222348353540     
 -0.309423509967977      -0.310624671582414      -0.311825833196852     
 -0.313026994811289      -0.314228156425726      -0.295970189752512     
 -0.297171351366949      -0.298372512981385      -0.299573674595823     
 -0.300774836210259      -0.301975997824697      -0.303177159439133     
 -0.304378321053570      -0.305579482668007      -0.306780644282445     
 -0.307981805896882      -0.309182967511319      -0.310384129125756     
 -0.311585290740193      -0.312786452354630      -0.313987613969067     
 -0.315188775583504      -0.316389937197941      -0.317591098812378     
 -0.318792260426815      -0.319993422041252      -0.321194583655689     
 -0.322395745270126      -0.323596906884563      -0.324798068499000     
 -0.325999230113437      -0.305888593724758      -0.307089755339196     
 -0.308290916953633      -0.309492078568069      -0.310693240182507     
 -0.311894401796944      -0.313095563411380      -0.314296725025817     
 -0.315497886640254      -0.316699048254692      -0.317900209869128     
 -0.319101371483565      -0.320302533098003      -0.321503694712440     
 -0.322704856326877      -0.323906017941314      -0.325107179555751     
 -0.326308341170188      -0.327509502784625      -0.328710664399062     
 -0.329911826013499      -0.331112987627936      -0.332314149242373     
 -0.333515310856810      -0.334716472471247      -0.335917634085684     
 -0.313784621339674      -0.314985782954111      -0.316186944568548     
 -0.317388106182985      -0.318589267797423      -0.319790429411859     
 -0.320991591026296      -0.322192752640733      -0.323393914255170     
 -0.324595075869608      -0.325796237484045      -0.326997399098482     
 -0.328198560712919      -0.329399722327356      -0.330600883941793     
 -0.331802045556229      -0.333003207170667      -0.334204368785104     
 -0.335405530399541      -0.336606692013978      -0.337807853628415     
 -0.339009015242852      -0.340210176857289      -0.341411338471726     
 -0.342612500086163      -0.343813661700600      -0.319523169375576     
 -0.320724330990013      -0.321925492604450      -0.323126654218887     
 -0.324327815833324      -0.325528977447761      -0.326730139062197     
 -0.327931300676635      -0.329132462291071      -0.330333623905509     
 -0.331534785519946      -0.332735947134382      -0.333937108748820     
 -0.335138270363257      -0.336339431977694      -0.337540593592131     
 -0.338741755206568      -0.339942916821005      -0.341144078435442     
 -0.342345240049879      -0.343546401664316      -0.344747563278753     
 -0.345948724893190      -0.347149886507627      -0.348351048122064     
 -0.349552209736501      -0.323006049684542      -0.324207211298978     
 -0.325408372913416      -0.326609534527853      -0.327810696142290     
 -0.329011857756726      -0.330213019371164      -0.331414180985601     
 -0.332615342600037      -0.333816504214475      -0.335017665828912     
 -0.336218827443349      -0.337419989057786      -0.338621150672223     
 -0.339822312286660      -0.341023473901097      -0.342224635515534     
 -0.343425797129971      -0.344626958744408      -0.345828120358845     
 -0.347029281973282      -0.348230443587719      -0.349431605202156     
 -0.350632766816593      -0.351833928431030      -0.353035090045468     
 -0.324173669218849      -0.325374830833287      -0.326575992447723     
 -0.327777154062160      -0.328978315676597      -0.330179477291035     
 -0.331380638905471      -0.332581800519908      -0.333782962134345     
 -0.334984123748783      -0.336185285363220      -0.337386446977656     
 -0.338587608592094      -0.339788770206531      -0.340989931820968     
 -0.342191093435405      -0.343392255049842      -0.344593416664279     
 -0.345794578278716      -0.346995739893153      -0.348196901507590     
 -0.349398063122027      -0.350599224736464      -0.351800386350901     
 -0.353001547965338      -0.354202709579775     
 -0.111586291478636      -0.110378686793056      -0.109171082107475     
 -0.107963477421895      -0.106755872736315      -0.105548268050735     
 -0.104340663365155      -0.103133058679575      -0.101925453993995     
 -0.100717849308415      -9.951024462283463E-002 -9.830263993725462E-002
 -9.709503525167454E-002 -9.588743056609447E-002 -9.467982588051445E-002
 -9.347222119493423E-002 -9.226461650935416E-002 -9.105701182377401E-002
 -8.984940713819396E-002 -8.864180245261392E-002 -8.743419776703371E-002
 -8.622659308145367E-002 -8.501898839587363E-002 -8.381138371029341E-002
 -8.260377902471334E-002 -8.139617433913338E-002 -0.112747681279143     
 -0.111540076593563      -0.110332471907983      -0.109124867222403     
 -0.107917262536823      -0.106709657851242      -0.105502053165662     
 -0.104294448480082      -0.103086843794502      -0.101879239108922     
 -0.100671634423342      -9.946402973776185E-002 -9.825642505218170E-002
 -9.704882036660163E-002 -9.584121568102154E-002 -9.463361099544138E-002
 -9.342600630986145E-002 -9.221840162428128E-002 -9.101079693870112E-002
 -8.980319225312103E-002 -8.859558756754105E-002 -8.738798288196084E-002
 -8.618037819638076E-002 -8.497277351080068E-002 -8.376516882522059E-002
 -8.255756413964047E-002 -0.116211978979180      -0.115004374293600     
 -0.113796769608019      -0.112589164922439      -0.111381560236859     
 -0.110173955551279      -0.108966350865699      -0.107758746180119     
 -0.106551141494539      -0.105343536808959      -0.104135932123379     
 -0.102928327437798      -0.101720722752218      -0.100513118066638     
 -9.930551338105829E-002 -9.809790869547806E-002 -9.689030400989808E-002
 -9.568269932431783E-002 -9.447509463873785E-002 -9.326748995315778E-002
 -9.205988526757755E-002 -9.085228058199751E-002 -8.964467589641752E-002
 -8.843707121083742E-002 -8.722946652525723E-002 -8.602186183967724E-002
 -0.121919909484613      -0.120712304799033      -0.119504700113453     
 -0.118297095427873      -0.117089490742293      -0.115881886056713     
 -0.114674281371133      -0.113466676685553      -0.112259071999972     
 -0.111051467314393      -0.109843862628813      -0.108636257943232     
 -0.107428653257652      -0.106221048572072      -0.105013443886492     
 -0.103805839200912      -0.102598234515332      -0.101390629829752     
 -0.100183025144172      -9.897542045859159E-002 -9.776781577301154E-002
 -9.656021108743144E-002 -9.535260640185143E-002 -9.414500171627127E-002
 -9.293739703069126E-002 -9.172979234511108E-002 -0.129773808521959     
 -0.128566203836379      -0.127358599150799      -0.126150994465219     
 -0.124943389779639      -0.123735785094059      -0.122528180408478     
 -0.121320575722898      -0.120112971037318      -0.118905366351738     
 -0.117697761666158      -0.116490156980578      -0.115282552294998     
 -0.114074947609418      -0.112867342923838      -0.111659738238258     
 -0.110452133552678      -0.109244528867098      -0.108036924181517     
 -0.106829319495937      -0.105621714810357      -0.104414110124777     
 -0.103206505439197      -0.101998900753617      -0.100791296068037     
 -9.958369138245668E-002 -0.139639293701176      -0.138431689015595     
 -0.137224084330015      -0.136016479644435      -0.134808874958855     
 -0.133601270273275      -0.132393665587695      -0.131186060902115     
 -0.129978456216535      -0.128770851530955      -0.127563246845375     
 -0.126355642159794      -0.125148037474214      -0.123940432788634     
 -0.122732828103054      -0.121525223417474      -0.120317618731894     
 -0.119110014046314      -0.117902409360734      -0.116694804675154     
 -0.115487199989574      -0.114279595303994      -0.113071990618413     
 -0.111864385932833      -0.110656781247253      -0.109449176561673     
 -0.151347563835617      -0.150139959150037      -0.148932354464457     
 -0.147724749778877      -0.146517145093297      -0.145309540407716     
 -0.144101935722137      -0.142894331036556      -0.141686726350976     
 -0.140479121665396      -0.139271516979816      -0.138063912294236     
 -0.136856307608656      -0.135648702923076      -0.134441098237496     
 -0.133233493551916      -0.132025888866336      -0.130818284180755     
 -0.129610679495175      -0.128403074809595      -0.127195470124015     
 -0.125987865438435      -0.124780260752855      -0.123572656067275     
 -0.122365051381695      -0.121157446696115      -0.164698287177137     
 -0.163490682491558      -0.162283077805978      -0.161075473120397     
 -0.159867868434817      -0.158660263749237      -0.157452659063657     
 -0.156245054378077      -0.155037449692497      -0.153829845006917     
 -0.152622240321337      -0.151414635635756      -0.150207030950176     
 -0.148999426264596      -0.147791821579016      -0.146584216893436     
 -0.145376612207856      -0.144169007522276      -0.142961402836696     
 -0.141753798151116      -0.140546193465536      -0.139338588779956     
 -0.138130984094375      -0.136923379408795      -0.135715774723215     
 -0.134508170037635      -0.179463029147844      -0.178255424462264     
 -0.177047819776684      -0.175840215091103      -0.174632610405524     
 -0.173425005719943      -0.172217401034363      -0.171009796348783     
 -0.169802191663203      -0.168594586977623      -0.167386982292043     
 -0.166179377606463      -0.164971772920883      -0.163764168235303     
 -0.162556563549722      -0.161348958864142      -0.160141354178562     
 -0.158933749492982      -0.157726144807402      -0.156518540121822     
 -0.155310935436242      -0.154103330750662      -0.152895726065082     
 -0.151688121379502      -0.150480516693921      -0.149272912008342     
 -0.195389160919057      -0.194181556233477      -0.192973951547897     
 -0.191766346862317      -0.190558742176737      -0.189351137491157     
 -0.188143532805577      -0.186935928119996      -0.185728323434416     
 -0.184520718748836      -0.183313114063256      -0.182105509377676     
 -0.180897904692096      -0.179690300006516      -0.178482695320936     
 -0.177275090635356      -0.176067485949775      -0.174859881264196     
 -0.173652276578615      -0.172444671893035      -0.171237067207455     
 -0.170029462521875      -0.168821857836295      -0.167614253150715     
 -0.166406648465135      -0.165199043779555      -0.212204181960614     
 -0.210996577275034      -0.209788972589454      -0.208581367903874     
 -0.207373763218294      -0.206166158532714      -0.204958553847134     
 -0.203750949161554      -0.202543344475974      -0.201335739790393     
 -0.200128135104813      -0.198920530419233      -0.197712925733653     
 -0.196505321048073      -0.195297716362493      -0.194090111676913     
 -0.192882506991333      -0.191674902305753      -0.190467297620173     
 -0.189259692934592      -0.188052088249013      -0.186844483563432     
 -0.185636878877852      -0.184429274192272      -0.183221669506692     
 -0.182014064821112      -0.229620382600490      -0.228412777914910     
 -0.227205173229329      -0.225997568543749      -0.224789963858169     
 -0.223582359172589      -0.222374754487009      -0.221167149801429     
 -0.219959545115849      -0.218751940430269      -0.217544335744689     
 -0.216336731059109      -0.215129126373529      -0.213921521687948     
 -0.212713917002368      -0.211506312316788      -0.210298707631208     
 -0.209091102945628      -0.207883498260048      -0.206675893574468     
 -0.205468288888888      -0.204260684203307      -0.203053079517728     
 -0.201845474832148      -0.200637870146567      -0.199430265460987     
 -0.247339766817052      -0.246132162131472      -0.244924557445892     
 -0.243716952760312      -0.242509348074732      -0.241301743389151     
 -0.240094138703571      -0.238886534017991      -0.237678929332411     
 -0.236471324646831      -0.235263719961251      -0.234056115275671     
 -0.232848510590091      -0.231640905904511      -0.230433301218931     
 -0.229225696533350      -0.228018091847770      -0.226810487162190     
 -0.225602882476610      -0.224395277791030      -0.223187673105450     
 -0.221980068419870      -0.220772463734290      -0.219564859048710     
 -0.218357254363129      -0.217149649677549      -0.265059151033614     
 -0.263851546348034      -0.262643941662454      -0.261436336976874     
 -0.260228732291294      -0.259021127605713      -0.257813522920133     
 -0.256605918234553      -0.255398313548973      -0.254190708863393     
 -0.252983104177813      -0.251775499492233      -0.250567894806653     
 -0.249360290121073      -0.248152685435493      -0.246945080749912     
 -0.245737476064332      -0.244529871378753      -0.243322266693173     
 -0.242114662007592      -0.240907057322012      -0.239699452636432     
 -0.238491847950852      -0.237284243265272      -0.236076638579692     
 -0.234869033894112      -0.282475351673489      -0.281267746987909     
 -0.280060142302329      -0.278852537616749      -0.277644932931169     
 -0.276437328245589      -0.275229723560009      -0.274022118874429     
 -0.272814514188849      -0.271606909503269      -0.270399304817688     
 -0.269191700132108      -0.267984095446529      -0.266776490760948     
 -0.265568886075368      -0.264361281389788      -0.263153676704208     
 -0.261946072018627      -0.260738467333048      -0.259530862647467     
 -0.258323257961887      -0.257115653276307      -0.255908048590727     
 -0.254700443905147      -0.253492839219567      -0.252285234533987     
 -0.299290372715047      -0.298082768029466      -0.296875163343886     
 -0.295667558658306      -0.294459953972726      -0.293252349287146     
 -0.292044744601566      -0.290837139915986      -0.289629535230406     
 -0.288421930544825      -0.287214325859246      -0.286006721173665     
 -0.284799116488085      -0.283591511802505      -0.282383907116925     
 -0.281176302431345      -0.279968697745765      -0.278761093060185     
 -0.277553488374605      -0.276345883689025      -0.275138279003445     
 -0.273930674317864      -0.272723069632285      -0.271515464946704     
 -0.270307860261124      -0.269100255575544      -0.315216504486260     
 -0.314008899800680      -0.312801295115099      -0.311593690429520     
 -0.310386085743940      -0.309178481058360      -0.307970876372779     
 -0.306763271687199      -0.305555667001619      -0.304348062316039     
 -0.303140457630459      -0.301932852944879      -0.300725248259299     
 -0.299517643573719      -0.298310038888139      -0.297102434202558     
 -0.295894829516979      -0.294687224831398      -0.293479620145818     
 -0.292272015460238      -0.291064410774658      -0.289856806089078     
 -0.288649201403498      -0.287441596717918      -0.286233992032338     
 -0.285026387346758      -0.329981246456966      -0.328773641771386     
 -0.327566037085806      -0.326358432400226      -0.325150827714645     
 -0.323943223029066      -0.322735618343485      -0.321528013657905     
 -0.320320408972325      -0.319112804286745      -0.317905199601165     
 -0.316697594915585      -0.315489990230005      -0.314282385544425     
 -0.313074780858845      -0.311867176173265      -0.310659571487685     
 -0.309451966802104      -0.308244362116524      -0.307036757430944     
 -0.305829152745364      -0.304621548059784      -0.303413943374204     
 -0.302206338688624      -0.300998734003044      -0.299791129317464     
 -0.343331969798487      -0.342124365112907      -0.340916760427327     
 -0.339709155741746      -0.338501551056166      -0.337293946370586     
 -0.336086341685006      -0.334878736999426      -0.333671132313846     
 -0.332463527628266      -0.331255922942686      -0.330048318257105     
 -0.328840713571525      -0.327633108885946      -0.326425504200365     
 -0.325217899514785      -0.324010294829205      -0.322802690143625     
 -0.321595085458045      -0.320387480772465      -0.319179876086885     
 -0.317972271401305      -0.316764666715724      -0.315557062030145     
 -0.314349457344564      -0.313141852658984      -0.355040239932928     
 -0.353832635247348      -0.352625030561768      -0.351417425876188     
 -0.350209821190608      -0.349002216505028      -0.347794611819447     
 -0.346587007133868      -0.345379402448287      -0.344171797762707     
 -0.342964193077127      -0.341756588391547      -0.340548983705967     
 -0.339341379020387      -0.338133774334806      -0.336926169649227     
 -0.335718564963647      -0.334510960278066      -0.333303355592486     
 -0.332095750906907      -0.330888146221326      -0.329680541535746     
 -0.328472936850166      -0.327265332164586      -0.326057727479006     
 -0.324850122793426      -0.364905725112144      -0.363698120426565     
 -0.362490515740984      -0.361282911055404      -0.360075306369824     
 -0.358867701684244      -0.357660096998664      -0.356452492313084     
 -0.355244887627504      -0.354037282941924      -0.352829678256344     
 -0.351622073570763      -0.350414468885183      -0.349206864199603     
 -0.347999259514023      -0.346791654828443      -0.345584050142863     
 -0.344376445457283      -0.343168840771703      -0.341961236086122     
 -0.340753631400543      -0.339546026714962      -0.338338422029382     
 -0.337130817343802      -0.335923212658222      -0.334715607972642     
 -0.372759624149490      -0.371552019463910      -0.370344414778330     
 -0.369136810092750      -0.367929205407170      -0.366721600721590     
 -0.365513996036010      -0.364306391350429      -0.363098786664849     
 -0.361891181979269      -0.360683577293689      -0.359475972608109     
 -0.358268367922529      -0.357060763236949      -0.355853158551369     
 -0.354645553865789      -0.353437949180209      -0.352230344494629     
 -0.351022739809049      -0.349815135123468      -0.348607530437888     
 -0.347399925752308      -0.346192321066728      -0.344984716381148     
 -0.343777111695568      -0.342569507009988      -0.378467554654924     
 -0.377259949969344      -0.376052345283763      -0.374844740598184     