 Title = "Wing and Wake"
 VARIABLES = "X" "Y" "Z" "GAM"
 Zone I=   26 J=   25 K=1  T="Blade"
 DATAPACKING=BLOCK
 VARLOCATION=([4]=CELLCENTERED)
  1.143844649038317E-002  9.794426756992974E-003  8.150407023602702E-003
  6.506387290212525E-003  4.862367556822311E-003  3.218347823432183E-003
  1.574328090041901E-003 -6.969164334828595E-005 -1.713711376738536E-003
 -3.357731110128695E-003 -5.001750843518929E-003 -6.645770576909207E-003
 -8.289790310299293E-003 -9.933810043689571E-003 -1.157782977707973E-002
 -1.322184951047000E-002 -1.486586924386015E-002 -1.650988897725037E-002
 -1.815390871064054E-002 -1.979792844403081E-002 -2.144194817742099E-002
 -2.308596791081118E-002 -2.472998764420140E-002 -2.637400737759166E-002
 -2.801802711098184E-002 -2.966204684437207E-002  1.100788509181173E-002
  9.363865358421425E-003  7.719845625031245E-003  6.075825891641100E-003
  4.431806158250860E-003  2.787786424860703E-003  1.143766691470398E-003
 -5.002530419197543E-004 -2.144272775309917E-003 -3.788292508700271E-003
 -5.432312242090382E-003 -7.076331975480597E-003 -8.720351708870784E-003
 -1.036437144226100E-002 -1.200839117565123E-002 -1.365241090904145E-002
 -1.529643064243161E-002 -1.694045037582183E-002 -1.858447010921200E-002
 -2.022848984260225E-002 -2.187250957599246E-002 -2.351652930938271E-002
 -2.516054904277288E-002 -2.680456877616309E-002 -2.844858850955327E-002
 -3.009260824294357E-002  9.723567921001104E-003  8.079548187610990E-003
  6.435528454220685E-003  4.791508720830517E-003  3.147488987440253E-003
  1.503469254050139E-003 -1.405504793402077E-004 -1.784570212730329E-003
 -3.428589946120583E-003 -5.072609679510704E-003 -6.716629412900940E-003
 -8.360649146291173E-003 -1.000466887968135E-002 -1.164868861307155E-002
 -1.329270834646181E-002 -1.493672807985201E-002 -1.658074781324227E-002
 -1.822476754663238E-002 -1.986878728002262E-002 -2.151280701341283E-002
 -2.315682674680303E-002 -2.480084648019326E-002 -2.644486621358351E-002
 -2.808888594697365E-002 -2.973290568036380E-002 -3.137692541375405E-002
  7.607470000823905E-003  5.963450267433677E-003  4.319430534043489E-003
  2.675410800653211E-003  1.031391067263056E-003 -6.126286661270525E-004
 -2.256648399517341E-003 -3.900668132907538E-003 -5.544687866297799E-003
 -7.188707599687941E-003 -8.832727333078138E-003 -1.047674706646834E-002
 -1.212076679985861E-002 -1.376478653324882E-002 -1.540880626663901E-002
 -1.705282600002926E-002 -1.869684573341934E-002 -2.034086546680963E-002
 -2.198488520019985E-002 -2.362890493359008E-002 -2.527292466698023E-002
 -2.691694440037050E-002 -2.856096413376064E-002 -3.020498386715086E-002
 -3.184900360054113E-002 -3.349302333393134E-002  4.695798353387486E-003
  3.051778619997308E-003  1.407758886607152E-003 -2.362608467831558E-004
 -1.880280580173250E-003 -3.524300313563489E-003 -5.168320046953729E-003
 -6.812339780343947E-003 -8.456359513734215E-003 -1.010037924712432E-002
 -1.174439898051456E-002 -1.338841871390473E-002 -1.503243844729493E-002
 -1.667645818068520E-002 -1.832047791407530E-002 -1.996449764746558E-002
 -2.160851738085579E-002 -2.325253711424603E-002 -2.489655684763621E-002
 -2.654057658102644E-002 -2.818459631441663E-002 -2.982861604780681E-002
 -3.147263578119709E-002 -3.311665551458725E-002 -3.476067524797742E-002
 -3.640469498136768E-002  1.038372487847459E-003 -6.056472455427539E-004
 -2.249666978932888E-003 -3.893686712323121E-003 -5.537706445713499E-003
 -7.181726179103586E-003 -8.825745912493769E-003 -1.046976564588405E-002
 -1.211378537927419E-002 -1.375780511266447E-002 -1.540182484605458E-002
 -1.704584457944478E-002 -1.868986431283494E-002 -2.033388404622526E-002
 -2.197790377961538E-002 -2.362192351300557E-002 -2.526594324639576E-002
 -2.690996297978604E-002 -2.855398271317623E-002 -3.019800244656643E-002
 -3.184202217995661E-002 -3.348604191334695E-002 -3.513006164673704E-002
 -3.677408138012729E-002 -3.841810111351753E-002 -4.006212084690771E-002
 -3.302228025206803E-003 -4.946247758596926E-003 -6.590267491987088E-003
 -8.234287225377404E-003 -9.878306958767657E-003 -1.152232669215777E-002
 -1.316634642554798E-002 -1.481036615893822E-002 -1.645438589232840E-002
 -1.809840562571872E-002 -1.974242535910883E-002 -2.138644509249907E-002
 -2.303046482588923E-002 -2.467448455927948E-002 -2.631850429266973E-002
 -2.796252402605991E-002 -2.960654375945011E-002 -3.125056349284032E-002
 -3.289458322623050E-002 -3.453860295962075E-002 -3.618262269301104E-002
 -3.782664242640119E-002 -3.947066215979141E-002 -4.111468189318147E-002
 -4.275870162657171E-002 -4.440272135996202E-002 -8.251734307555171E-003
 -9.895754040945410E-003 -1.153977377433566E-002 -1.318379350772584E-002
 -1.482781324111603E-002 -1.647183297450624E-002 -1.811585270789635E-002
 -1.975987244128656E-002 -2.140389217467693E-002 -2.304791190806692E-002
 -2.469193164145739E-002 -2.633595137484740E-002 -2.797997110823757E-002
 -2.962399084162782E-002 -3.126801057501803E-002 -3.291203030840825E-002
 -3.455605004179852E-002 -3.620006977518868E-002 -3.784408950857888E-002
 -3.948810924196907E-002 -4.113212897535926E-002 -4.277614870874957E-002
 -4.442016844213972E-002 -4.606418817552994E-002 -4.770820790892014E-002
 -4.935222764231039E-002 -1.372545893444418E-002 -1.536947866783438E-002
 -1.701349840122452E-002 -1.865751813461481E-002 -2.030153786800504E-002
 -2.194555760139517E-002 -2.358957733478548E-002 -2.523359706817574E-002
 -2.687761680156598E-002 -2.852163653495614E-002 -3.016565626834618E-002
 -3.180967600173638E-002 -3.345369573512658E-002 -3.509771546851696E-002
 -3.674173520190700E-002 -3.838575493529731E-002 -4.002977466868752E-002
 -4.167379440207764E-002 -4.331781413546784E-002 -4.496183386885813E-002
 -4.660585360224825E-002 -4.824987333563859E-002 -4.989389306902867E-002
 -5.153791280241890E-002 -5.318193253580907E-002 -5.482595226919940E-002
 -1.962974495990468E-002 -2.127376469329481E-002 -2.291778442668503E-002
 -2.456180416007536E-002 -2.620582389346547E-002 -2.784984362685571E-002
 -2.949386336024592E-002 -3.113788309363609E-002 -3.278190282702635E-002
 -3.442592256041656E-002 -3.606994229380681E-002 -3.771396202719693E-002
 -3.935798176058715E-002 -4.100200149397733E-002 -4.264602122736758E-002
 -4.429004096075777E-002 -4.593406069414798E-002 -4.757808042753819E-002
 -4.922210016092842E-002 -5.086611989431864E-002 -5.251013962770880E-002
 -5.415415936109894E-002 -5.579817909448921E-002 -5.744219882787949E-002
 -5.908621856126970E-002 -6.073023829465979E-002 -2.586356841306359E-002
 -2.750758814645378E-002 -2.915160787984411E-002 -3.079562761323418E-002
 -3.243964734662456E-002 -3.408366708001466E-002 -3.572768681340488E-002
 -3.737170654679506E-002 -3.901572628018521E-002 -4.065974601357566E-002
 -4.230376574696566E-002 -4.394778548035599E-002 -4.559180521374605E-002
 -4.723582494713628E-002 -4.887984468052647E-002 -5.052386441391683E-002
 -5.216788414730709E-002 -5.381190388069710E-002 -5.545592361408727E-002
 -5.709994334747745E-002 -5.874396308086784E-002 -6.038798281425792E-002
 -6.203200254764817E-002 -6.367602228103843E-002 -6.532004201442859E-002
 -6.696406174781884E-002 -3.232026684629524E-002 -3.396428657968534E-002
 -3.560830631307547E-002 -3.725232604646570E-002 -3.889634577985591E-002
 -4.054036551324610E-002 -4.218438524663633E-002 -4.382840498002648E-002
 -4.547242471341668E-002 -4.711644444680700E-002 -4.876046418019720E-002
 -5.040448391358740E-002 -5.204850364697745E-002 -5.369252338036772E-002
 -5.533654311375798E-002 -5.698056284714834E-002 -5.862458258053854E-002
 -6.026860231392875E-002 -6.191262204731882E-002 -6.355664178070917E-002
 -6.520066151409919E-002 -6.684468124748934E-002 -6.848870098087963E-002
 -7.013272071426974E-002 -7.177674044766004E-002 -7.342076018105029E-002
 -3.888936435927155E-002 -4.053338409266179E-002 -4.217740382605188E-002
 -4.382142355944213E-002 -4.546544329283242E-002 -4.710946302622257E-002
 -4.875348275961272E-002 -5.039750249300299E-002 -5.204152222639335E-002
 -5.368554195978333E-002 -5.532956169317369E-002 -5.697358142656388E-002
 -5.861760115995397E-002 -6.026162089334426E-002 -6.190564062673437E-002
 -6.354966036012470E-002 -6.519368009351503E-002 -6.683769982690503E-002
 -6.848171956029525E-002 -7.012573929368550E-002 -7.176975902707579E-002
 -7.341377876046584E-002 -7.505779849385601E-002 -7.670181822724619E-002
 -7.834583796063650E-002 -7.998985769402699E-002 -4.545846187224792E-002
 -4.710248160563814E-002 -4.874650133902821E-002 -5.039052107241853E-002
 -5.203454080580868E-002 -5.367856053919889E-002 -5.532258027258902E-002
 -5.696660000597949E-002 -5.861061973936960E-002 -6.025463947275980E-002
 -6.189865920615001E-002 -6.354267893954023E-002 -6.518669867293038E-002
 -6.683071840632093E-002 -6.847473813971104E-002 -7.011875787310083E-002
 -7.176277760649109E-002 -7.340679733988134E-002 -7.505081707327151E-002
 -7.669483680666182E-002 -7.833885654005208E-002 -7.998287627344219E-002
 -8.162689600683236E-002 -8.327091574022255E-002 -8.491493547361291E-002
 -8.655895520700334E-002 -5.191516030547957E-002 -5.355918003886973E-002
 -5.520319977225966E-002 -5.684721950565005E-002 -5.849123923904035E-002
 -6.013525897243049E-002 -6.177927870582067E-002 -6.342329843921093E-002
 -6.506731817260103E-002 -6.671133790599139E-002 -6.835535763938144E-002
 -6.999937737277179E-002 -7.164339710616180E-002 -7.328741683955194E-002
 -7.493143657294238E-002 -7.657545630633227E-002 -7.821947603972258E-002
 -7.986349577311293E-002 -8.150751550650323E-002 -8.315153523989330E-002
 -8.479555497328339E-002 -8.643957470667382E-002 -8.808359444006414E-002
 -8.972761417345404E-002 -9.137163390684425E-002 -9.301565364023462E-002
 -5.814898375863856E-002 -5.979300349202857E-002 -6.143702322541873E-002
 -6.308104295880886E-002 -6.472506269219933E-002 -6.636908242558938E-002
 -6.801310215897963E-002 -6.965712189236972E-002 -7.130114162575972E-002
 -7.294516135915018E-002 -7.458918109254060E-002 -7.623320082593081E-002
 -7.787722055932077E-002 -7.952124029271099E-002 -8.116526002610133E-002
 -8.280927975949159E-002 -8.445329949288195E-002 -8.609731922627196E-002
 -8.774133895966214E-002 -8.938535869305247E-002 -9.102937842644251E-002
 -9.267339815983276E-002 -9.431741789322293E-002 -9.596143762661326E-002
 -9.760545736000342E-002 -9.924947709339368E-002 -6.405326978409882E-002
 -6.569728951748888E-002 -6.734130925087928E-002 -6.898532898426951E-002
 -7.062934871765947E-002 -7.227336845104974E-002 -7.391738818444039E-002
 -7.556140791783010E-002 -7.720542765122052E-002 -7.884944738461074E-002
 -8.049346711800104E-002 -8.213748685139100E-002 -8.378150658478123E-002
 -8.542552631817127E-002 -8.706954605156174E-002 -8.871356578495200E-002
 -9.035758551834205E-002 -9.200160525173245E-002 -9.364562498512262E-002
 -9.528964471851263E-002 -9.693366445190287E-002 -9.857768418529310E-002
 -0.100221703918683      -0.101865723652074      -0.103509743385464     
 -0.105153763118854      -6.952699441098770E-002 -7.117101414437836E-002
 -7.281503387776814E-002 -7.445905361115834E-002 -7.610307334454872E-002
 -7.774709307793894E-002 -7.939111281132918E-002 -8.103513254471940E-002
 -8.267915227810957E-002 -8.432317201149998E-002 -8.596719174488975E-002
 -8.761121147827991E-002 -8.925523121167037E-002 -9.089925094506063E-002
 -9.254327067845076E-002 -9.418729041184082E-002 -9.583131014523105E-002
 -9.747532987862143E-002 -9.911934961201166E-002 -0.100763369345402     
 -0.102407389078792      -0.104051408812182      -0.105695428545573     
 -0.107339448278963      -0.108983468012353      -0.110627487745743     
 -7.447650069333611E-002 -7.612052042672653E-002 -7.776454016011659E-002
 -7.940855989350688E-002 -8.105257962689727E-002 -8.269659936028723E-002
 -8.434061909367749E-002 -8.598463882706768E-002 -8.762865856045836E-002
 -8.927267829384777E-002 -9.091669802723840E-002 -9.256071776062848E-002
 -9.420473749401848E-002 -9.584875722740901E-002 -9.749277696079908E-002
 -9.913679669418937E-002 -0.100780816427580      -0.102424836160970     
 -0.104068855894360      -0.105712875627750      -0.107356895361140     
 -0.109000915094531      -0.110644934827921      -0.112288954561311     
 -0.113932974294702      -0.115576994028092      -7.881710120639074E-002
 -8.046112093978096E-002 -8.210514067317087E-002 -8.374916040656127E-002
 -8.539318013995133E-002 -8.703719987334162E-002 -8.868121960673173E-002
 -9.032523934012189E-002 -9.196925907351212E-002 -9.361327880690240E-002
 -9.525729854029268E-002 -9.690131827368284E-002 -9.854533800707301E-002
 -0.100189357740463      -0.101833377473854      -0.103477397207244     
 -0.105121416940634      -0.106765436674024      -0.108409456407414     
 -0.110053476140804      -0.111697495874195      -0.113341515607585     
 -0.114985535340975      -0.116629555074365      -0.118273574807755     
 -0.119917594541146      -8.247452707193061E-002 -8.411854680532092E-002
 -8.576256653871103E-002 -8.740658627210134E-002 -8.905060600549143E-002
 -9.069462573888140E-002 -9.233864547227172E-002 -9.398266520566199E-002
 -9.562668493905210E-002 -9.727070467244221E-002 -9.891472440583267E-002
 -0.100558744139223      -0.102202763872613      -0.103846783606003     
 -0.105490803339393      -0.107134823072784      -0.108778842806174     
 -0.110422862539564      -0.112066882272954      -0.113710902006345     
 -0.115354921739735      -0.116998941473125      -0.118642961206515     
 -0.120286980939905      -0.121931000673296      -0.123575020406686     
 -8.538619871936683E-002 -8.703021845275714E-002 -8.867423818614718E-002
 -9.031825791953761E-002 -9.196227765292789E-002 -9.360629738631801E-002
 -9.525031711970817E-002 -9.689433685309851E-002 -9.853835658648867E-002
 -0.100182376319879      -0.101826396053269      -0.103470415786659     
 -0.105114435520049      -0.106758455253440      -0.108402474986830     
 -0.110046494720220      -0.111690514453610      -0.113334534187001     
 -0.114978553920391      -0.116622573653781      -0.118266593387171     
 -0.119910613120561      -0.121554632853951      -0.123198652587342     
 -0.124842672320732      -0.126486692054122      -8.750229663954438E-002
 -8.914631637293431E-002 -9.079033610632468E-002 -9.243435583971511E-002
 -9.407837557310515E-002 -9.572239530649511E-002 -9.736641503988526E-002
 -9.901043477327579E-002 -0.100654454506666      -0.102298474240056     
 -0.103942493973446      -0.105586513706836      -0.107230533440226     
 -0.108874553173617      -0.110518572907007      -0.112162592640397     
 -0.113806612373788      -0.115450632107178      -0.117094651840568     
 -0.118738671573958      -0.120382691307348      -0.122026711040738     
 -0.123670730774129      -0.125314750507519      -0.126958770240909     
 -0.128602789974299      -8.878661381035487E-002 -9.043063354374481E-002
 -9.207465327713510E-002 -9.371867301052536E-002 -9.536269274391554E-002
 -9.700671247730572E-002 -9.865073221069585E-002 -0.100294751944086     
 -0.101938771677476      -0.103582791410867      -0.105226811144257     
 -0.106870830877647      -0.108514850611037      -0.110158870344427     
 -0.111802890077818      -0.113446909811208      -0.115090929544598     
 -0.116734949277988      -0.118378969011379      -0.120022988744769     
 -0.121667008478159      -0.123311028211549      -0.124955047944939     
 -0.126599067678330      -0.128243087411720      -0.129887107145110     
 -8.921717520892614E-002 -9.086119494231652E-002 -9.250521467570676E-002
 -9.414923440909667E-002 -9.579325414248674E-002 -9.743727387587722E-002
 -9.908129360926729E-002 -0.100725313342657      -0.102369333076048     
 -0.104013352809438      -0.105657372542828      -0.107301392276218     
 -0.108945412009609      -0.110589431742999      -0.112233451476389     
 -0.113877471209779      -0.115521490943170      -0.117165510676560     
 -0.118809530409950      -0.120453550143340      -0.122097569876730     
 -0.123741589610121      -0.125385609343511      -0.127029629076901     
 -0.128673648810291      -0.130317668543681     
 -0.122242226509037      -0.121796920527878      -0.121351614546720     
 -0.120906308565561      -0.120461002584403      -0.120015696603244     
 -0.119570390622086      -0.119125084640927      -0.118679778659769     
 -0.118234472678610      -0.117789166697451      -0.117343860716293     
 -0.116898554735134      -0.116453248753976      -0.116007942772817     
 -0.115562636791659      -0.115117330810500      -0.114672024829342     
 -0.114226718848183      -0.113781412867025      -0.113336106885866     
 -0.112890800904708      -0.112445494923549      -0.112000188942391     
 -0.111554882961232      -0.111109576980074      -0.123831810897385     
 -0.123386504916226      -0.122941198935068      -0.122495892953909     
 -0.122050586972751      -0.121605280991592      -0.121159975010434     
 -0.120714669029275      -0.120269363048117      -0.119824057066958     
 -0.119378751085800      -0.118933445104641      -0.118488139123482     
 -0.118042833142324      -0.117597527161165      -0.117152221180007     
 -0.116706915198848      -0.116261609217690      -0.115816303236531     
 -0.115370997255373      -0.114925691274214      -0.114480385293056     
 -0.114035079311897      -0.113589773330739      -0.113144467349580     
 -0.112699161368422      -0.128573365832828      -0.128128059851669     
 -0.127682753870511      -0.127237447889352      -0.126792141908194     
 -0.126346835927035      -0.125901529945877      -0.125456223964718     
 -0.125010917983560      -0.124565612002401      -0.124120306021243     
 -0.123675000040084      -0.123229694058926      -0.122784388077767     
 -0.122339082096609      -0.121893776115450      -0.121448470134291     
 -0.121003164153133      -0.120557858171974      -0.120112552190816     
 -0.119667246209657      -0.119221940228499      -0.118776634247340     
 -0.118331328266182      -0.117886022285023      -0.117440716303865     
 -0.136385761995813      -0.135940456014655      -0.135495150033496     
 -0.135049844052338      -0.134604538071179      -0.134159232090021     
 -0.133713926108862      -0.133268620127704      -0.132823314146545     
 -0.132378008165387      -0.131932702184228      -0.131487396203069     
 -0.131042090221911      -0.130596784240752      -0.130151478259594     
 -0.129706172278435      -0.129260866297277      -0.128815560316118     
 -0.128370254334960      -0.127924948353801      -0.127479642372643     
 -0.127034336391484      -0.126589030410326      -0.126143724429167     
 -0.125698418448009      -0.125253112466850      -0.147135327121987     
 -0.146690021140828      -0.146244715159670      -0.145799409178511     
 -0.145354103197353      -0.144908797216194      -0.144463491235036     
 -0.144018185253877      -0.143572879272719      -0.143127573291560     
 -0.142682267310402      -0.142236961329243      -0.141791655348085     
 -0.141346349366926      -0.140901043385768      -0.140455737404609     
 -0.140010431423451      -0.139565125442292      -0.139119819461133     
 -0.138674513479975      -0.138229207498817      -0.137783901517658     
 -0.137338595536500      -0.136893289555341      -0.136447983574182     
 -0.136002677593024      -0.160638133171697      -0.160192827190539     
 -0.159747521209380      -0.159302215228222      -0.158856909247063     
 -0.158411603265905      -0.157966297284746      -0.157520991303588     
 -0.157075685322429      -0.156630379341271      -0.156185073360112     
 -0.155739767378954      -0.155294461397795      -0.154849155416637     
 -0.154403849435478      -0.153958543454319      -0.153513237473161     
 -0.153067931492003      -0.152622625510844      -0.152177319529686     
 -0.151732013548527      -0.151286707567369      -0.150841401586210     
 -0.150396095605052      -0.149950789623893      -0.149505483642735     
 -0.176663143389749      -0.176217837408591      -0.175772531427432     
 -0.175327225446274      -0.174881919465115      -0.174436613483957     
 -0.173991307502798      -0.173546001521640      -0.173100695540481     
 -0.172655389559323      -0.172210083578164      -0.171764777597006     
 -0.171319471615847      -0.170874165634688      -0.170428859653530     
 -0.169983553672372      -0.169538247691213      -0.169092941710055     
 -0.168647635728896      -0.168202329747737      -0.167757023766579     
 -0.167311717785421      -0.166866411804262      -0.166421105823103     
 -0.165975799841945      -0.165530493860786      -0.194936165408340     
 -0.194490859427181      -0.194045553446023      -0.193600247464864     
 -0.193154941483705      -0.192709635502547      -0.192264329521388     
 -0.191819023540230      -0.191373717559071      -0.190928411577913     
 -0.190483105596754      -0.190037799615596      -0.189592493634437     
 -0.189147187653279      -0.188701881672120      -0.188256575690962     
 -0.187811269709803      -0.187365963728645      -0.186920657747486     
 -0.186475351766327      -0.186030045785169      -0.185584739804011     
 -0.185139433822852      -0.184694127841693      -0.184248821860535     
 -0.183803515879377      -0.215144542754491      -0.214699236773332     
 -0.214253930792174      -0.213808624811015      -0.213363318829857     
 -0.212918012848698      -0.212472706867540      -0.212027400886381     
 -0.211582094905223      -0.211136788924064      -0.210691482942906     
 -0.210246176961747      -0.209800870980589      -0.209355564999430     
 -0.208910259018271      -0.208464953037113      -0.208019647055954     
 -0.207574341074796      -0.207129035093637      -0.206683729112479     
 -0.206238423131320      -0.205793117150162      -0.205347811169003     
 -0.204902505187845      -0.204457199206686      -0.204011893225528     
 -0.236942504488990      -0.236497198507831      -0.236051892526673     
 -0.235606586545515      -0.235161280564356      -0.234715974583197     
 -0.234270668602039      -0.233825362620880      -0.233380056639722     
 -0.232934750658563      -0.232489444677405      -0.232044138696246     
 -0.231598832715088      -0.231153526733929      -0.230708220752771     
 -0.230262914771612      -0.229817608790453      -0.229372302809295     
 -0.228926996828137      -0.228481690846978      -0.228036384865820     
 -0.227591078884661      -0.227145772903503      -0.226700466922344     
 -0.226255160941186      -0.225809854960027      -0.259957081443023     
 -0.259511775461864      -0.259066469480706      -0.258621163499547     
 -0.258175857518389      -0.257730551537231      -0.257285245556072     
 -0.256839939574914      -0.256394633593755      -0.255949327612596     
 -0.255504021631438      -0.255058715650279      -0.254613409669121     
 -0.254168103687962      -0.253722797706804      -0.253277491725645     
 -0.252832185744487      -0.252386879763328      -0.251941573782170     
 -0.251496267801011      -0.251050961819853      -0.250605655838694     
 -0.250160349857536      -0.249715043876377      -0.249269737895218     
 -0.248824431914060      -0.283794487824060      -0.283349181842902     
 -0.282903875861743      -0.282458569880585      -0.282013263899426     
 -0.281567957918268      -0.281122651937109      -0.280677345955951     
 -0.280232039974792      -0.279786733993634      -0.279341428012475     
 -0.278896122031317      -0.278450816050158      -0.278005510069000     
 -0.277560204087841      -0.277114898106683      -0.276669592125524     
 -0.276224286144366      -0.275778980163207      -0.275333674182049     
 -0.274888368200890      -0.274443062219731      -0.273997756238573     
 -0.273552450257414      -0.273107144276256      -0.272661838295097     
 -0.308046858999945      -0.307601553018786      -0.307156247037628     
 -0.306710941056469      -0.306265635075311      -0.305820329094152     
 -0.305375023112993      -0.304929717131835      -0.304484411150677     
 -0.304039105169518      -0.303593799188359      -0.303148493207201     
 -0.302703187226042      -0.302257881244884      -0.301812575263726     
 -0.301367269282567      -0.300921963301409      -0.300476657320250     
 -0.300031351339091      -0.299586045357933      -0.299140739376775     
 -0.298695433395616      -0.298250127414457      -0.297804821433299     
 -0.297359515452140      -0.296914209470982      -0.332299230175829     
 -0.331853924194670      -0.331408618213512      -0.330963312232353     
 -0.330518006251195      -0.330072700270036      -0.329627394288878     
 -0.329182088307720      -0.328736782326560      -0.328291476345402     
 -0.327846170364244      -0.327400864383085      -0.326955558401927     
 -0.326510252420768      -0.326064946439610      -0.325619640458451     
 -0.325174334477292      -0.324729028496134      -0.324283722514976     
 -0.323838416533817      -0.323393110552659      -0.322947804571500     
 -0.322502498590341      -0.322057192609183      -0.321611886628025     
 -0.321166580646866      -0.356136636556866      -0.355691330575708     
 -0.355246024594549      -0.354800718613391      -0.354355412632232     
 -0.353910106651074      -0.353464800669915      -0.353019494688757     
 -0.352574188707598      -0.352128882726440      -0.351683576745281     
 -0.351238270764123      -0.350792964782964      -0.350347658801805     
 -0.349902352820647      -0.349457046839488      -0.349011740858330     
 -0.348566434877171      -0.348121128896013      -0.347675822914854     
 -0.347230516933696      -0.346785210952537      -0.346339904971379     
 -0.345894598990220      -0.345449293009062      -0.345003987027903     
 -0.379151213510899      -0.378705907529741      -0.378260601548583     
 -0.377815295567424      -0.377369989586266      -0.376924683605107     
 -0.376479377623948      -0.376034071642790      -0.375588765661631     
 -0.375143459680473      -0.374698153699315      -0.374252847718156     
 -0.373807541736997      -0.373362235755839      -0.372916929774680     
 -0.372471623793522      -0.372026317812363      -0.371581011831205     
 -0.371135705850046      -0.370690399868888      -0.370245093887729     
 -0.369799787906571      -0.369354481925412      -0.368909175944253     
 -0.368463869963095      -0.368018563981937      -0.400949175245399     
 -0.400503869264240      -0.400058563283081      -0.399613257301923     
 -0.399167951320764      -0.398722645339606      -0.398277339358448     
 -0.397832033377289      -0.397386727396131      -0.396941421414972     
 -0.396496115433814      -0.396050809452655      -0.395605503471496     
 -0.395160197490338      -0.394714891509179      -0.394269585528021     
 -0.393824279546862      -0.393378973565704      -0.392933667584545     
 -0.392488361603387      -0.392043055622228      -0.391597749641070     
 -0.391152443659911      -0.390707137678753      -0.390261831697594     
 -0.389816525716436      -0.421157552591550      -0.420712246610392     
 -0.420266940629233      -0.419821634648074      -0.419376328666916     
 -0.418931022685758      -0.418485716704599      -0.418040410723440     
 -0.417595104742282      -0.417149798761123      -0.416704492779965     
 -0.416259186798806      -0.415813880817648      -0.415368574836489     
 -0.414923268855331      -0.414477962874172      -0.414032656893014     
 -0.413587350911855      -0.413142044930697      -0.412696738949538     
 -0.412251432968380      -0.411806126987221      -0.411360821006063     
 -0.410915515024904      -0.410470209043746      -0.410024903062587     
 -0.439430574610140      -0.438985268628982      -0.438539962647823     
 -0.438094656666665      -0.437649350685506      -0.437204044704348     
 -0.436758738723189      -0.436313432742030      -0.435868126760872     
 -0.435422820779713      -0.434977514798555      -0.434532208817396     
 -0.434086902836238      -0.433641596855080      -0.433196290873921     
 -0.432750984892762      -0.432305678911604      -0.431860372930445     
 -0.431415066949287      -0.430969760968128      -0.430524454986970     
 -0.430079149005811      -0.429633843024653      -0.429188537043494     
 -0.428743231062336      -0.428297925081177      -0.455455584828192     
 -0.455010278847034      -0.454564972865875      -0.454119666884717     
 -0.453674360903558      -0.453229054922399      -0.452783748941241     
 -0.452338442960082      -0.451893136978924      -0.451447830997765     
 -0.451002525016607      -0.450557219035448      -0.450111913054290     
 -0.449666607073131      -0.449221301091973      -0.448775995110814     
 -0.448330689129656      -0.447885383148497      -0.447440077167339     
 -0.446994771186180      -0.446549465205021      -0.446104159223862     
 -0.445658853242705      -0.445213547261546      -0.444768241280388     
 -0.444322935299229      -0.468958390877902      -0.468513084896744     
 -0.468067778915585      -0.467622472934427      -0.467177166953268     
 -0.466731860972110      -0.466286554990951      -0.465841249009793     
 -0.465395943028634      -0.464950637047476      -0.464505331066317     
 -0.464060025085159      -0.463614719104000      -0.463169413122842     
 -0.462724107141683      -0.462278801160525      -0.461833495179366     
 -0.461388189198208      -0.460942883217049      -0.460497577235890     
 -0.460052271254732      -0.459606965273574      -0.459161659292415     
 -0.458716353311256      -0.458271047330098      -0.457825741348940     
 -0.479707956004076      -0.479262650022917      -0.478817344041759     
 -0.478372038060601      -0.477926732079442      -0.477481426098284     
 -0.477036120117125      -0.476590814135967      -0.476145508154808     
 -0.475700202173649      -0.475254896192491      -0.474809590211333     
 -0.474364284230174      -0.473918978249016      -0.473473672267857     
 -0.473028366286698      -0.472583060305540      -0.472137754324381     
 -0.471692448343223      -0.471247142362064      -0.470801836380906     
 -0.470356530399748      -0.469911224418589      -0.469465918437431     
 -0.469020612456272      -0.468575306475113      -0.487520352167062     
 -0.487075046185903      -0.486629740204744      -0.486184434223587     