 Title = "Wing and Wake"
 VARIABLES = "X" "Y" "Z" "GAM"
 Zone I=   26 J=   25 K=1  T="Blade"
 DATAPACKING=BLOCK
 VARLOCATION=([4]=CELLCENTERED)
  7.834402782595583E-002  7.919174141411932E-002  8.003945500228264E-002
  8.088716859044603E-002  8.173488217860952E-002  8.258259576677290E-002
  8.343030935493630E-002  8.427802294309969E-002  8.512573653126303E-002
  8.597345011942635E-002  8.682116370758965E-002  8.766887729575323E-002
  8.851659088391652E-002  8.936430447207998E-002  9.021201806024338E-002
  9.105973164840685E-002  9.190744523657009E-002  9.275515882473348E-002
  9.360287241289680E-002  9.445058600106038E-002  9.529829958922352E-002
  9.614601317738704E-002  9.699372676555039E-002  9.784144035371380E-002
  9.868915394187716E-002  9.953686753004064E-002  7.977243392635615E-002
  8.062014751451951E-002  8.146786110268295E-002  8.231557469084640E-002
  8.316328827900975E-002  8.401100186717299E-002  8.485871545533649E-002
  8.570642904349987E-002  8.655414263166322E-002  8.740185621982673E-002
  8.824956980798997E-002  8.909728339615346E-002  8.994499698431672E-002
  9.079271057248015E-002  9.164042416064354E-002  9.248813774880700E-002
  9.333585133697045E-002  9.418356492513363E-002  9.503127851329711E-002
  9.587899210146048E-002  9.672670568962398E-002  9.757441927778729E-002
  9.842213286595057E-002  9.926984645411410E-002  0.100117560042277     
  0.100965273630441       8.403321180314989E-002  8.488092539131321E-002
  8.572863897947675E-002  8.657635256763997E-002  8.742406615580336E-002
  8.827177974396680E-002  8.911949333213026E-002  8.996720692029350E-002
  9.081492050845699E-002  9.166263409662027E-002  9.251034768478375E-002
  9.335806127294709E-002  9.420577486111045E-002  9.505348844927390E-002
  9.590120203743742E-002  9.674891562560063E-002  9.759662921376407E-002
  9.844434280192722E-002  9.929205639009077E-002  0.100139769978254     
  0.100987483566418       0.101835197154581       0.102682910742745     
  0.103530624330908       0.104378337919071       0.105226051507234     
  9.105345836555451E-002  9.190117195371790E-002  9.274888554188122E-002
  9.359659913004455E-002  9.444431271820813E-002  9.529202630637126E-002
  9.613973989453470E-002  9.698745348269812E-002  9.783516707086148E-002
  9.868288065902493E-002  9.953059424718826E-002  0.100378307835352     
  0.101226021423515       0.102073735011678       0.102921448599842     
  0.103769162188005       0.104616875776168       0.105464589364332     
  0.106312302952495       0.107160016540659       0.108007730128822     
  0.108855443716986       0.109703157305149       0.110550870893312     
  0.111398584481476       0.112246298069639       0.100713055248507     
  0.101560768836670       0.102408482424834       0.103256196012997     
  0.104103909601161       0.104951623189324       0.105799336777487     
  0.106647050365651       0.107494763953814       0.108342477541977     
  0.109190191130141       0.110037904718304       0.110885618306468     
  0.111733331894631       0.112581045482795       0.113428759070958     
  0.114276472659121       0.115124186247285       0.115971899835448     
  0.116819613423611       0.117667327011775       0.118515040599938     
  0.119362754188102       0.120210467776265       0.121058181364428     
  0.121905894952591       0.112846724071194       0.113694437659357     
  0.114542151247521       0.115389864835684       0.116237578423848     
  0.117085292012011       0.117933005600174       0.118780719188338     
  0.119628432776501       0.120476146364665       0.121323859952828     
  0.122171573540991       0.123019287129155       0.123867000717318     
  0.124714714305481       0.125562427893645       0.126410141481808     
  0.127257855069972       0.128105568658135       0.128953282246298     
  0.129800995834461       0.130648709422625       0.131496423010788     
  0.132344136598952       0.133191850187115       0.134039563775279     
  0.127246854395971       0.128094567984134       0.128942281572298     
  0.129789995160461       0.130637708748624       0.131485422336787     
  0.132333135924951       0.133180849513114       0.134028563101278     
  0.134876276689441       0.135723990277605       0.136571703865768     
  0.137419417453931       0.138267131042095       0.139114844630258     
  0.139962558218422       0.140810271806585       0.141657985394748     
  0.142505698982912       0.143353412571075       0.144201126159239     
  0.145048839747402       0.145896553335565       0.146744266923728     
  0.147591980511892       0.148439694100055       0.143667056000510     
  0.144514769588674       0.145362483176837       0.146210196765000     
  0.147057910353164       0.147905623941327       0.148753337529490     
  0.149601051117654       0.150448764705817       0.151296478293980     
  0.152144191882144       0.152991905470307       0.153839619058470     
  0.154687332646634       0.155535046234797       0.156382759822961     
  0.157230473411124       0.158078186999287       0.158925900587451     
  0.159773614175614       0.160621327763778       0.161469041351941     
  0.162316754940105       0.163164468528268       0.164012182116431     
  0.164859895704595       0.161826374682818       0.162674088270981     
  0.163521801859145       0.164369515447308       0.165217229035472     
  0.166064942623635       0.166912656211798       0.167760369799962     
  0.168608083388125       0.169455796976289       0.170303510564452     
  0.171151224152615       0.171998937740779       0.172846651328942     
  0.173694364917105       0.174542078505269       0.175389792093432     
  0.176237505681595       0.177085219269759       0.177932932857922     
  0.178780646446086       0.179628360034249       0.180476073622412     
  0.181323787210576       0.182171500798739       0.183019214386903     
  0.181414099465526       0.182261813053689       0.183109526641853     
  0.183957240230016       0.184804953818180       0.185652667406343     
  0.186500380994506       0.187348094582670       0.188195808170833     
  0.189043521758997       0.189891235347160       0.190738948935323     
  0.191586662523487       0.192434376111650       0.193282089699814     
  0.194129803287977       0.194977516876140       0.195825230464304     
  0.196672944052467       0.197520657640630       0.198368371228794     
  0.199216084816957       0.200063798405121       0.200911511993284     
  0.201759225581447       0.202606939169611       0.202095078946859     
  0.202942792535022       0.203790506123186       0.204638219711349     
  0.205485933299513       0.206333646887676       0.207181360475839     
  0.208029074064003       0.208876787652166       0.209724501240330     
  0.210572214828493       0.211419928416656       0.212267642004820     
  0.213115355592983       0.213963069181147       0.214810782769310     
  0.215658496357474       0.216506209945637       0.217353923533800     
  0.218201637121963       0.219049350710127       0.219897064298290     
  0.220744777886454       0.221592491474617       0.222440205062780     
  0.223287918650944       0.223515455834041       0.224363169422204     
  0.225210883010367       0.226058596598530       0.226906310186694     
  0.227754023774857       0.228601737363021       0.229449450951184     
  0.230297164539347       0.231144878127511       0.231992591715674     
  0.232840305303838       0.233688018892001       0.234535732480164     
  0.235383446068328       0.236231159656491       0.237078873244655     
  0.237926586832818       0.238774300420981       0.239622014009145     
  0.240469727597308       0.241317441185471       0.242165154773635     
  0.243012868361798       0.243860581949962       0.244708295538125     
  0.245308721539680       0.246156435127844       0.247004148716007     
  0.247851862304170       0.248699575892334       0.249547289480497     
  0.250395003068660       0.251242716656824       0.252090430244987     
  0.252938143833150       0.253785857421314       0.254633571009477     
  0.255481284597641       0.256328998185804       0.257176711773967     
  0.258024425362131       0.258872138950295       0.259719852538457     
  0.260567566126621       0.261415279714784       0.262262993302948     
  0.263110706891111       0.263958420479274       0.264806134067438     
  0.265653847655601       0.266501561243765       0.267101987245320     
  0.267949700833483       0.268797414421646       0.269645128009810     
  0.270492841597973       0.271340555186136       0.272188268774300     
  0.273035982362464       0.273883695950626       0.274731409538790     
  0.275579123126954       0.276426836715117       0.277274550303280     
  0.278122263891444       0.278969977479607       0.279817691067770     
  0.280665404655934       0.281513118244097       0.282360831832261     
  0.283208545420424       0.284056259008587       0.284903972596750     
  0.285751686184914       0.286599399773077       0.287447113361241     
  0.288294826949405       0.288522364132501       0.289370077720664     
  0.290217791308828       0.291065504896991       0.291913218485155     
  0.292760932073318       0.293608645661482       0.294456359249645     
  0.295304072837808       0.296151786425972       0.296999500014134     
  0.297847213602298       0.298694927190462       0.299542640778624     
  0.300390354366788       0.301238067954952       0.302085781543115     
  0.302933495131278       0.303781208719442       0.304628922307605     
  0.305476635895768       0.306324349483932       0.307172063072096     
  0.308019776660259       0.308867490248422       0.309715203836586     
  0.309203343613834       0.310051057201997       0.310898770790161     
  0.311746484378324       0.312594197966488       0.313441911554651     
  0.314289625142814       0.315137338730977       0.315985052319141     
  0.316832765907304       0.317680479495469       0.318528193083631     
  0.319375906671794       0.320223620259958       0.321071333848121     
  0.321919047436285       0.322766761024448       0.323614474612611     
  0.324462188200775       0.325309901788938       0.326157615377101     
  0.327005328965265       0.327853042553429       0.328700756141592     
  0.329548469729755       0.330396183317919       0.328791068396542     
  0.329638781984705       0.330486495572868       0.331334209161032     
  0.332181922749196       0.333029636337359       0.333877349925522     
  0.334725063513685       0.335572777101849       0.336420490690012     
  0.337268204278176       0.338115917866339       0.338963631454503     
  0.339811345042666       0.340659058630829       0.341506772218993     
  0.342354485807156       0.343202199395320       0.344049912983483     
  0.344897626571646       0.345745340159810       0.346593053747973     
  0.347440767336136       0.348288480924300       0.349136194512463     
  0.349983908100627       0.346950387078850       0.347798100667014     
  0.348645814255177       0.349493527843340       0.350341241431504     
  0.351188955019667       0.352036668607830       0.352884382195994     
  0.353732095784157       0.354579809372320       0.355427522960483     
  0.356275236548647       0.357122950136811       0.357970663724974     
  0.358818377313138       0.359666090901301       0.360513804489464     
  0.361361518077628       0.362209231665791       0.363056945253954     
  0.363904658842117       0.364752372430281       0.365600086018445     
  0.366447799606608       0.367295513194771       0.368143226782934     
  0.363370588683389       0.364218302271553       0.365066015859716     
  0.365913729447879       0.366761443036043       0.367609156624206     
  0.368456870212369       0.369304583800533       0.370152297388697     
  0.371000010976859       0.371847724565023       0.372695438153186     
  0.373543151741349       0.374390865329513       0.375238578917677     
  0.376086292505840       0.376934006094004       0.377781719682166     
  0.378629433270330       0.379477146858494       0.380324860446657     
  0.381172574034820       0.382020287622984       0.382868001211147     
  0.383715714799311       0.384563428387474       0.377770719008166     
  0.378618432596330       0.379466146184493       0.380313859772656     
  0.381161573360819       0.382009286948983       0.382857000537146     
  0.383704714125309       0.384552427713473       0.385400141301636     
  0.386247854889800       0.387095568477964       0.387943282066127     
  0.388790995654290       0.389638709242454       0.390486422830617     
  0.391334136418780       0.392181850006944       0.393029563595107     
  0.393877277183271       0.394724990771434       0.395572704359597     
  0.396420417947760       0.397268131535924       0.398115845124087     
  0.398963558712250       0.389904387830853       0.390752101419017     
  0.391599815007180       0.392447528595343       0.393295242183507     
  0.394142955771670       0.394990669359833       0.395838382947996     
  0.396686096536160       0.397533810124323       0.398381523712487     
  0.399229237300650       0.400076950888814       0.400924664476977     
  0.401772378065140       0.402620091653304       0.403467805241467     
  0.404315518829631       0.405163232417794       0.406010946005957     
  0.406858659594121       0.407706373182284       0.408554086770447     
  0.409401800358611       0.410249513946774       0.411097227534938     
  0.399563984713805       0.400411698301969       0.401259411890132     
  0.402107125478296       0.402954839066459       0.403802552654622     
  0.404650266242786       0.405497979830949       0.406345693419113     
  0.407193407007276       0.408041120595439       0.408888834183603     
  0.409736547771767       0.410584261359930       0.411431974948093     
  0.412279688536256       0.413127402124420       0.413975115712583     
  0.414822829300747       0.415670542888910       0.416518256477073     
  0.417365970065237       0.418213683653400       0.419061397241564     
  0.419909110829727       0.420756824417890       0.406584231276211     
  0.407431944864374       0.408279658452537       0.409127372040701     
  0.409975085628863       0.410822799217027       0.411670512805190     
  0.412518226393354       0.413365939981517       0.414213653569680     
  0.415061367157844       0.415909080746007       0.416756794334170     
  0.417604507922334       0.418452221510498       0.419299935098661     
  0.420147648686824       0.420995362274988       0.421843075863151     
  0.422690789451314       0.423538503039478       0.424386216627641     
  0.425233930215805       0.426081643803968       0.426929357392131     
  0.427777070980295       0.410845009153004       0.411692722741167     
  0.412540436329331       0.413388149917494       0.414235863505657     
  0.415083577093821       0.415931290681984       0.416779004270148     
  0.417626717858311       0.418474431446475       0.419322145034637     
  0.420169858622801       0.421017572210965       0.421865285799128     
  0.422712999387291       0.423560712975455       0.424408426563618     
  0.425256140151781       0.426103853739945       0.426951567328108     
  0.427799280916271       0.428646994504435       0.429494708092598     
  0.430342421680762       0.431190135268925       0.432037848857089     
  0.412273415253404       0.413121128841568       0.413968842429731     
  0.414816556017894       0.415664269606058       0.416511983194221     
  0.417359696782384       0.418207410370547       0.419055123958711     
  0.419902837546875       0.420750551135038       0.421598264723201     
  0.422445978311365       0.423293691899528       0.424141405487692     
  0.424989119075855       0.425836832664018       0.426684546252181     
  0.427532259840345       0.428379973428508       0.429227687016672     
  0.430075400604835       0.430923114192999       0.431770827781162     
  0.432618541369325       0.433466254957489     
  9.453154660749948E-002  9.305422471533283E-002  9.157690282316595E-002
  9.009958093099929E-002  8.862225903883256E-002  8.714493714666581E-002
  8.566761525449904E-002  8.419029336233240E-002  8.271297147016561E-002
  8.123564957799892E-002  7.975832768583205E-002  7.828100579366534E-002
  7.680368390149864E-002  7.532636200933183E-002  7.384904011716517E-002
  7.237171822499830E-002  7.089439633283164E-002  6.941707444066487E-002
  6.793975254849817E-002  6.646243065633142E-002  6.498510876416462E-002
  6.350778687199791E-002  6.203046497983123E-002  6.055314308766437E-002
  5.907582119549765E-002  5.759849930333102E-002  9.535119144397371E-002
  9.387386955180692E-002  9.239654765964007E-002  9.091922576747351E-002
  8.944190387530675E-002  8.796458198314003E-002  8.648726009097317E-002
  8.500993819880648E-002  8.353261630663973E-002  8.205529441447297E-002
  8.057797252230625E-002  7.910065063013957E-002  7.762332873797277E-002
  7.614600684580605E-002  7.466868495363929E-002  7.319136306147249E-002
  7.171404116930589E-002  7.023671927713913E-002  6.875939738497233E-002
  6.728207549280557E-002  6.580475360063891E-002  6.432743170847212E-002
  6.285010981630539E-002  6.137278792413861E-002  5.989546603197188E-002
  5.841814413980507E-002  9.779610160299566E-002  9.631877971082893E-002
  9.484145781866218E-002  9.336413592649540E-002  9.188681403432859E-002
  9.040949214216193E-002  8.893217024999517E-002  8.745484835782845E-002
  8.597752646566176E-002  8.450020457349493E-002  8.302288268132825E-002
  8.154556078916145E-002  8.006823889699474E-002  7.859091700482795E-002
  7.711359511266128E-002  7.563627322049443E-002  7.415895132832778E-002
  7.268162943616094E-002  7.120430754399427E-002  6.972698565182754E-002
  6.824966375966070E-002  6.677234186749401E-002  6.529501997532734E-002
  6.381769808316060E-002  6.234037619099382E-002  6.086305429882716E-002
  0.101824443993887       0.100347122101721       9.886980020955391E-002
  9.739247831738698E-002  9.591515642522044E-002  9.443783453305366E-002
  9.296051264088687E-002  9.148319074872008E-002  9.000586885655323E-002
  8.852854696438668E-002  8.705122507221995E-002  8.557390318005323E-002
  8.409658128788638E-002  8.261925939571964E-002  8.114193750355297E-002
  7.966461561138630E-002  7.818729371921951E-002  7.670997182705275E-002
  7.523264993488599E-002  7.375532804271918E-002  7.227800615055249E-002
  7.080068425838580E-002  6.932336236621912E-002  6.784604047405224E-002
  6.636871858188563E-002  6.489139668971880E-002  0.107367292561473     
  0.105889970669306       0.104412648777140       0.102935326884973     
  0.101458004992806       9.998068310063944E-002  9.850336120847257E-002
  9.702603931630591E-002  9.554871742413905E-002  9.407139553197237E-002
  9.259407363980554E-002  9.111675174763910E-002  8.963942985547226E-002
  8.816210796330536E-002  8.668478607113883E-002  8.520746417897192E-002
  8.373014228680517E-002  8.225282039463852E-002  8.077549850247180E-002
  7.929817661030499E-002  7.782085471813832E-002  7.634353282597159E-002
  7.486621093380488E-002  7.338888904163815E-002  7.191156714947136E-002
  7.043424525730445E-002  0.114329807629994       0.112852485737827     
  0.111375163845660       0.109897841953493       0.108420520061327     
  0.106943198169160       0.105465876276993       0.103988554384826     
  0.102511232492659       0.101033910600493       9.955658870832622E-002
  9.807926681615950E-002  9.660194492399281E-002  9.512462303182591E-002
  9.364730113965924E-002  9.216997924749237E-002  9.069265735532582E-002
  8.921533546315913E-002  8.773801357099228E-002  8.626069167882559E-002
  8.478336978665880E-002  8.330604789449203E-002  8.182872600232523E-002
  8.035140411015855E-002  7.887408221799183E-002  7.739676032582515E-002
  0.122592858636253       0.121115536744086       0.119638214851919     
  0.118160892959752       0.116683571067586       0.115206249175419     
  0.113728927283252       0.112251605391085       0.110774283498919     
  0.109296961606752       0.107819639714585       0.106342317822419     
  0.104864995930252       0.103387674038085       0.101910352145918     
  0.100433030253751       9.895570836158481E-002  9.747838646941800E-002
  9.600106457725148E-002  9.452374268508461E-002  9.304642079291775E-002
  9.156909890075107E-002  9.009177700858438E-002  8.861445511641761E-002
  8.713713322425092E-002  8.565981133208399E-002  0.132015062486583     
  0.130537740594416       0.129060418702249       0.127583096810082     
  0.126105774917916       0.124628453025749       0.123151131133582     
  0.121673809241415       0.120196487349249       0.118719165457082     
  0.117241843564915       0.115764521672748       0.114287199780582     
  0.112809877888415       0.111332555996248       0.109855234104081     
  0.108377912211915       0.106900590319748       0.105423268427581     
  0.103945946535414       0.102468624643248       0.100991302751081     
  9.951398085891425E-002  9.803665896674753E-002  9.655933707458068E-002
  9.508201518241385E-002  0.142435202660776       0.140957880768609     
  0.139480558876442       0.138003236984275       0.136525915092109     
  0.135048593199942       0.133571271307775       0.132093949415608     
  0.130616627523442       0.129139305631275       0.127661983739108     
  0.126184661846942       0.124707339954775       0.123230018062608     
  0.121752696170441       0.120275374278275       0.118798052386108     
  0.117320730493941       0.115843408601774       0.114366086709608     
  0.112888764817441       0.111411442925274       0.109934121033107     
  0.108456799140941       0.106979477248774       0.105502155356607     
  0.153674987671443       0.152197665779276       0.150720343887109     
  0.149243021994943       0.147765700102776       0.146288378210609     
  0.144811056318442       0.143333734426276       0.141856412534109     
  0.140379090641942       0.138901768749776       0.137424446857609     
  0.135947124965442       0.134469803073275       0.132992481181109     
  0.131515159288942       0.130037837396775       0.128560515504608     
  0.127083193612441       0.125605871720275       0.124128549828108     
  0.122651227935941       0.121173906043775       0.119696584151608     
  0.118219262259441       0.116741940367274       0.165542101680795     
  0.164064779788628       0.162587457896461       0.161110136004295     
  0.159632814112128       0.158155492219961       0.156678170327794     
  0.155200848435628       0.153723526543461       0.152246204651294     
  0.150768882759127       0.149291560866961       0.147814238974794     
  0.146336917082627       0.144859595190460       0.143382273298293     
  0.141904951406127       0.140427629513960       0.138950307621794     
  0.137472985729627       0.135995663837460       0.134518341945293     
  0.133041020053127       0.131563698160959       0.130086376268793     
  0.128609054376626       0.177833495077945       0.176356173185779     
  0.174878851293612       0.173401529401445       0.171924207509279     
  0.170446885617112       0.168969563724945       0.167492241832778     
  0.166014919940612       0.164537598048445       0.163060276156278     
  0.161582954264111       0.160105632371945       0.158628310479778     
  0.157150988587611       0.155673666695444       0.154196344803278     
  0.152719022911111       0.151241701018944       0.149764379126777     
  0.148287057234611       0.146809735342444       0.145332413450277     
  0.143855091558111       0.142377769665944       0.140900447773777     
  0.190338858714052       0.188861536821885       0.187384214929719     
  0.185906893037552       0.184429571145385       0.182952249253218     
  0.181474927361051       0.179997605468885       0.178520283576718     
  0.177042961684551       0.175565639792385       0.174088317900218     
  0.172610996008051       0.171133674115884       0.169656352223718     
  0.168179030331551       0.166701708439384       0.165224386547217     
  0.163747064655050       0.162269742762884       0.160792420870717     
  0.159315098978550       0.157837777086384       0.156360455194217     
  0.154883133302050       0.153405811409883       0.202844222350158     
  0.201366900457991       0.199889578565825       0.198412256673658     
  0.196934934781491       0.195457612889324       0.193980290997158     
  0.192502969104991       0.191025647212824       0.189548325320658     
  0.188071003428491       0.186593681536324       0.185116359644157     
  0.183639037751991       0.182161715859824       0.180684393967657     
  0.179207072075490       0.177729750183324       0.176252428291157     
  0.174775106398990       0.173297784506823       0.171820462614657     
  0.170343140722490       0.168865818830323       0.167388496938156     
  0.165911175045990       0.215135615747309       0.213658293855142     
  0.212180971962976       0.210703650070808       0.209226328178642     
  0.207749006286475       0.206271684394309       0.204794362502142     
  0.203317040609975       0.201839718717808       0.200362396825641     
  0.198885074933475       0.197407753041308       0.195930431149141     
  0.194453109256975       0.192975787364808       0.191498465472641     
  0.190021143580474       0.188543821688307       0.187066499796141     
  0.185589177903974       0.184111856011807       0.182634534119641     
  0.181157212227474       0.179679890335307       0.178202568443140     
  0.227002729756661       0.225525407864494       0.224048085972328     
  0.222570764080161       0.221093442187994       0.219616120295827     
  0.218138798403660       0.216661476511493       0.215184154619327     
  0.213706832727160       0.212229510834994       0.210752188942827     
  0.209274867050660       0.207797545158493       0.206320223266327     
  0.204842901374160       0.203365579481993       0.201888257589826     
  0.200410935697660       0.198933613805493       0.197456291913326     
  0.195978970021159       0.194501648128993       0.193024326236825     
  0.191547004344659       0.190069682452492       0.238242514767328     
  0.236765192875161       0.235287870982994       0.233810549090828     
  0.232333227198661       0.230855905306494       0.229378583414327     
  0.227901261522161       0.226423939629994       0.224946617737827     
  0.223469295845660       0.221991973953494       0.220514652061327     
  0.219037330169160       0.217560008276993       0.216082686384827     
  0.214605364492660       0.213128042600494       0.211650720708326     
  0.210173398816160       0.208696076923993       0.207218755031826     
  0.205741433139660       0.204264111247493       0.202786789355326     
  0.201309467463160       0.248662654941521       0.247185333049355     
  0.245708011157188       0.244230689265021       0.242753367372854     
  0.241276045480687       0.239798723588520       0.238321401696354     
  0.236844079804187       0.235366757912020       0.233889436019853     
  0.232412114127687       0.230934792235520       0.229457470343353     
  0.227980148451187       0.226502826559020       0.225025504666853     
  0.223548182774686       0.222070860882520       0.220593538990353     
  0.219116217098186       0.217638895206020       0.216161573313853     
  0.214684251421686       0.213206929529519       0.211729607637353     
  0.258084858791851       0.256607536899684       0.255130215007518     
  0.253652893115351       0.252175571223184       0.250698249331017     
  0.249220927438850       0.247743605546684       0.246266283654517     
  0.244788961762350       0.243311639870184       0.241834317978017     
  0.240356996085850       0.238879674193683       0.237402352301516     
  0.235925030409350       0.234447708517183       0.232970386625016     
  0.231493064732850       0.230015742840683       0.228538420948516     
  0.227061099056349       0.225583777164183       0.224106455272016     
  0.222629133379849       0.221151811487682       0.266347909798110     
  0.264870587905943       0.263393266013776       0.261915944121610     
  0.260438622229443       0.258961300337276       0.257483978445109     
  0.256006656552943       0.254529334660776       0.253052012768609     
  0.251574690876443       0.250097368984276       0.248620047092109     
  0.247142725199942       0.245665403307775       0.244188081415609     
  0.242710759523442       0.241233437631275       0.239756115739109     
  0.238278793846942       0.236801471954775       0.235324150062608     
  0.233846828170442       0.232369506278275       0.230892184386108     
  0.229414862493941       0.273310424866630       0.271833102974464     
  0.270355781082297       0.268878459190130       0.267401137297963     
  0.265923815405797       0.264446493513630       0.262969171621463     
  0.261491849729297       0.260014527837130       0.258537205944963     
  0.257059884052797       0.255582562160630       0.254105240268463     
  0.252627918376296       0.251150596484129       0.249673274591963     
  0.248195952699796       0.246718630807629       0.245241308915462     
  0.243763987023296       0.242286665131129       0.240809343238962     
  0.239332021346795       0.237854699454629       0.236377377562462     
  0.278853273434216       0.277375951542049       0.275898629649883     
  0.274421307757716       0.272943985865549       0.271466663973383     
  0.269989342081216       0.268512020189049       0.267034698296882     
  0.265557376404715       0.264080054512549       0.262602732620382     
  0.261125410728216       0.259648088836049       0.258170766943882     
  0.256693445051715       0.255216123159548       0.253738801267382     
  0.252261479375215       0.250784157483048       0.249306835590881     
  0.247829513698715       0.246352191806548       0.244874869914381     
  0.243397548022214       0.241920226130048       0.282881615825108     
  0.281404293932941       0.279926972040774       0.278449650148608     