 Title = "Wing and Wake"
 VARIABLES = "X" "Y" "Z" "GAM"
 Zone I=   26 J=   25 K=1  T="Blade"
 DATAPACKING=BLOCK
 VARLOCATION=([4]=CELLCENTERED)
 -4.268515166294581E-002 -4.098189696168830E-002 -3.927864226043076E-002
 -3.757538755917324E-002 -3.587213285791574E-002 -3.416887815665829E-002
 -3.246562345540071E-002 -3.076236875414319E-002 -2.905911405288565E-002
 -2.735585935162818E-002 -2.565260465037067E-002 -2.394934994911306E-002
 -2.224609524785563E-002 -2.054284054659808E-002 -1.883958584534061E-002
 -1.713633114408308E-002 -1.543307644282562E-002 -1.372982174156808E-002
 -1.202656704031059E-002 -1.032331233905301E-002 -8.620057637795504E-003
 -6.916802936538030E-003 -5.213548235280537E-003 -3.510293534022986E-003
 -1.807038832765480E-003 -1.037841315079459E-004 -4.268064516451515E-002
 -4.097739046325759E-002 -3.927413576200010E-002 -3.757088106074262E-002
 -3.586762635948511E-002 -3.416437165822761E-002 -3.246111695697006E-002
 -3.075786225571255E-002 -2.905460755445508E-002 -2.735135285319749E-002
 -2.564809815194001E-002 -2.394484345068250E-002 -2.224158874942504E-002
 -2.053833404816750E-002 -1.883507934690996E-002 -1.713182464565243E-002
 -1.542856994439496E-002 -1.372531524313746E-002 -1.202206054187996E-002
 -1.031880584062241E-002 -8.615551139364915E-003 -6.912296438107363E-003
 -5.209041736849853E-003 -3.505787035592347E-003 -1.802532334334848E-003
 -9.927763307730322E-005 -4.266720277666084E-002 -4.096394807540340E-002
 -3.926069337414582E-002 -3.755743867288838E-002 -3.585418397163078E-002
 -3.415092927037334E-002 -3.244767456911574E-002 -3.074441986785829E-002
 -2.904116516660075E-002 -2.733791046534327E-002 -2.563465576408576E-002
 -2.393140106282822E-002 -2.222814636157072E-002 -2.052489166031324E-002
 -1.882163695905566E-002 -1.711838225779819E-002 -1.541512755654062E-002
 -1.371187285528318E-002 -1.200861815402564E-002 -1.030536345276814E-002
 -8.602108751510597E-003 -6.898854050253078E-003 -5.195599348995552E-003
 -3.492344647738093E-003 -1.789089946480594E-003 -8.583524522306369E-005
 -4.264505450236603E-002 -4.094179980110849E-002 -3.923854509985100E-002
 -3.753529039859343E-002 -3.583203569733596E-002 -3.412878099607847E-002
 -3.242552629482090E-002 -3.072227159356343E-002 -2.901901689230589E-002
 -2.731576219104841E-002 -2.561250748979092E-002 -2.390925278853341E-002
 -2.220599808727585E-002 -2.050274338601833E-002 -1.879948868476083E-002
 -1.709623398350331E-002 -1.539297928224586E-002 -1.368972458098833E-002
 -1.198646987973079E-002 -1.028321517847323E-002 -8.579960477215745E-003
 -6.876705775958246E-003 -5.173451074700767E-003 -3.470196373443230E-003
 -1.766941672185707E-003 -6.368697092821119E-005 -4.261457930474446E-002
 -4.091132460348700E-002 -3.920806990222949E-002 -3.750481520097190E-002
 -3.580156049971444E-002 -3.409830579845693E-002 -3.239505109719940E-002
 -3.069179639594186E-002 -2.898854169468433E-002 -2.728528699342687E-002
 -2.558203229216932E-002 -2.387877759091185E-002 -2.217552288965437E-002
 -2.047226818839680E-002 -1.876901348713930E-002 -1.706575878588182E-002
 -1.536250408462430E-002 -1.365924938336674E-002 -1.195599468210921E-002
 -1.025273998085173E-002 -8.549485279594220E-003 -6.846230578336716E-003
 -5.142975877079207E-003 -3.439721175821686E-003 -1.736466474564180E-003
 -3.321177330663167E-005 -4.257629862287683E-002 -4.087304392161932E-002
 -3.916978922036184E-002 -3.746653451910426E-002 -3.576327981784670E-002
 -3.406002511658923E-002 -3.235677041533177E-002 -3.065351571407427E-002
 -2.895026101281670E-002 -2.724700631155922E-002 -2.554375161030175E-002
 -2.384049690904421E-002 -2.213724220778674E-002 -2.043398750652912E-002
 -1.873073280527168E-002 -1.702747810401416E-002 -1.532422340275670E-002
 -1.362096870149914E-002 -1.191771400024162E-002 -1.021445929898409E-002
 -8.511204597726620E-003 -6.807949896469054E-003 -5.104695195211575E-003
 -3.401440493954069E-003 -1.698185792696541E-003  5.068908560971414E-006
 -4.253086744984336E-002 -4.082761274858583E-002 -3.912435804732834E-002
 -3.742110334607078E-002 -3.571784864481326E-002 -3.401459394355574E-002
 -3.231133924229831E-002 -3.060808454104078E-002 -2.890482983978332E-002
 -2.720157513852571E-002 -2.549832043726822E-002 -2.379506573601065E-002
 -2.209181103475317E-002 -2.038855633349563E-002 -1.868530163223810E-002
 -1.698204693098060E-002 -1.527879222972314E-002 -1.357553752846563E-002
 -1.187228282720813E-002 -1.016902812595057E-002 -8.465773424693032E-003
 -6.762518723435575E-003 -5.059264022178033E-003 -3.356009320920617E-003
 -1.652754619663083E-003  5.050008159448630E-005 -4.247906312561040E-002
 -4.077580842435286E-002 -3.907255372309539E-002 -3.736929902183782E-002
 -3.566604432058037E-002 -3.396278961932283E-002 -3.225953491806534E-002
 -3.055628021680784E-002 -2.885302551555022E-002 -2.714977081429282E-002
 -2.544651611303518E-002 -2.374326141177777E-002 -2.204000671052025E-002
 -2.033675200926275E-002 -1.863349730800519E-002 -1.693024260674773E-002
 -1.522698790549016E-002 -1.352373320423267E-002 -1.182047850297511E-002
 -1.011722380171763E-002 -8.413969100460146E-003 -6.710714399202568E-003
 -5.007459697945117E-003 -3.304204996687584E-003 -1.600950295429993E-003
  1.023044058274282E-004 -4.242177203652857E-002 -4.071851733527111E-002
 -3.901526263401355E-002 -3.731200793275599E-002 -3.560875323149853E-002
 -3.390549853024104E-002 -3.220224382898346E-002 -3.049898912772592E-002
 -2.879573442646834E-002 -2.709247972521086E-002 -2.538922502395344E-002
 -2.368597032269595E-002 -2.198271562143844E-002 -2.027946092018084E-002
 -1.857620621892345E-002 -1.687295151766585E-002 -1.516969681640837E-002
 -1.346644211515085E-002 -1.176318741389338E-002 -1.005993271263581E-002
 -8.356678011378307E-003 -6.653423310120768E-003 -4.950168608863295E-003
 -3.246913907605818E-003 -1.543659206348325E-003  1.595954949092570E-004
 -4.235997444901606E-002 -4.065671974775855E-002 -3.895346504650105E-002
 -3.725021034524353E-002 -3.554695564398610E-002 -3.384370094272852E-002
 -3.214044624147100E-002 -3.043719154021351E-002 -2.873393683895597E-002
 -2.703068213769843E-002 -2.532742743644097E-002 -2.362417273518351E-002
 -2.192091803392594E-002 -2.021766333266842E-002 -1.851440863141092E-002
 -1.681115393015340E-002 -1.510789922889581E-002 -1.340464452763838E-002
 -1.170138982638088E-002 -9.998135125123321E-003 -8.294880423865865E-003
 -6.591625722608317E-003 -4.888371021350854E-003 -3.185116320093235E-003
 -1.481861618835736E-003  2.213930824217089E-004 -4.229472773692891E-002
 -4.059147303567132E-002 -3.888821833441380E-002 -3.718496363315632E-002
 -3.548170893189876E-002 -3.377845423064132E-002 -3.207519952938375E-002
 -3.037194482812632E-002 -2.866869012686878E-002 -2.696543542561114E-002
 -2.526218072435380E-002 -2.355892602309612E-002 -2.185567132183873E-002
 -2.015241662058113E-002 -1.844916191932362E-002 -1.674590721806607E-002
 -1.504265251680868E-002 -1.333939781555113E-002 -1.163614311429366E-002
 -9.932888413036113E-003 -8.229633711778652E-003 -6.526379010521131E-003
 -4.823124309263596E-003 -3.119869608006082E-003 -1.416614906748492E-003
  2.866397945090490E-004 -4.222714828960042E-002 -4.052389358834292E-002
 -3.882063888708547E-002 -3.711738418582797E-002 -3.541412948457048E-002
 -3.371087478331300E-002 -3.200762008205543E-002 -3.030436538079792E-002
 -2.860111067954041E-002 -2.689785597828284E-002 -2.519460127702542E-002
 -2.349134657576782E-002 -2.178809187451047E-002 -2.008483717325285E-002
 -1.838158247199528E-002 -1.667832777073774E-002 -1.497507306948026E-002
 -1.327181836822265E-002 -1.156856366696517E-002 -9.865308965707663E-003
 -8.162054264450208E-003 -6.458799563192738E-003 -4.755544861935198E-003
 -3.052290160677767E-003 -1.349035459420239E-003  3.542192418372588E-004
 -4.215839241011128E-002 -4.045513770885375E-002 -3.875188300759633E-002
 -3.704862830633876E-002 -3.534537360508119E-002 -3.364211890382373E-002
 -3.193886420256618E-002 -3.023560950130859E-002 -2.853235480005115E-002
 -2.682910009879378E-002 -2.512584539753607E-002 -2.342259069627857E-002
 -2.171933599502115E-002 -2.001608129376373E-002 -1.831282659250614E-002
 -1.660957189124857E-002 -1.490631718999097E-002 -1.320306248873360E-002
 -1.149980778747594E-002 -9.796553086218514E-003 -8.093298384961044E-003
 -6.390043683703613E-003 -4.686788982446058E-003 -2.983534281188586E-003
 -1.280279579930890E-003  4.229751213267314E-004 -4.208963653062214E-002
 -4.038638182936460E-002 -3.868312712810727E-002 -3.697987242684959E-002
 -3.527661772559210E-002 -3.357336302433461E-002 -3.187010832307716E-002
 -3.016685362181950E-002 -2.846359892056203E-002 -2.676034421930458E-002
 -2.505708951804704E-002 -2.335383481678954E-002 -2.165058011553202E-002
 -1.994732541427436E-002 -1.824407071301689E-002 -1.654081601175954E-002
 -1.483756131050207E-002 -1.313430660924443E-002 -1.143105190798704E-002
 -9.727797206729429E-003 -8.024542505471957E-003 -6.321287804214472E-003
 -4.618033102956985E-003 -2.914778401699402E-003 -1.211523700441891E-003
  4.917310008157588E-004 -4.202205708329377E-002 -4.031880238203618E-002
 -3.861554768077881E-002 -3.691229297952125E-002 -3.520903827826365E-002
 -3.350578357700629E-002 -3.180252887574875E-002 -3.009927417449118E-002
 -2.839601947323373E-002 -2.669276477197619E-002 -2.498951007071863E-002
 -2.328625536946123E-002 -2.158300066820360E-002 -1.987974596694606E-002
 -1.817649126568856E-002 -1.647323656443117E-002 -1.476998186317370E-002
 -1.306672716191601E-002 -1.136347246065852E-002 -9.660217759401079E-003
 -7.956963058143633E-003 -6.253708356885970E-003 -4.550453655628556E-003
 -2.847198954371055E-003 -1.143944253113583E-003  5.593104481440410E-004
 -4.195681037120640E-002 -4.025355566994903E-002 -3.855030096869148E-002
 -3.684704626743408E-002 -3.514379156617651E-002 -3.344053686491904E-002
 -3.173728216366147E-002 -3.003402746240397E-002 -2.833077276114664E-002
 -2.662751805988893E-002 -2.492426335863139E-002 -2.322100865737388E-002
 -2.151775395611632E-002 -1.981449925485893E-002 -1.811124455360142E-002
 -1.640798985234381E-002 -1.470473515108617E-002 -1.300148044982888E-002
 -1.129822574857131E-002 -9.594971047313655E-003 -7.891716346056211E-003
 -6.188461644798768E-003 -4.485206943541312E-003 -2.781952242283699E-003
 -1.078697541026244E-003  6.245571602313789E-004 -4.189501278369401E-002
 -4.019175808243655E-002 -3.848850338117901E-002 -3.678524867992150E-002
 -3.508199397866411E-002 -3.337873927740655E-002 -3.167548457614892E-002
 -2.997222987489157E-002 -2.826897517363395E-002 -2.656572047237650E-002
 -2.486246577111888E-002 -2.315921106986167E-002 -2.145595636860398E-002
 -1.975270166734651E-002 -1.804944696608891E-002 -1.634619226483134E-002
 -1.464293756357387E-002 -1.293968286231634E-002 -1.123642816105891E-002
 -9.533173459801318E-003 -7.829918758543943E-003 -6.126664057286388E-003
 -4.423409356028861E-003 -2.720154654771126E-003 -1.016899953513680E-003
  6.863547477437079E-004 -4.183772169461236E-002 -4.013446699335468E-002
 -3.843121229209728E-002 -3.672795759083975E-002 -3.502470288958215E-002
 -3.332144818832470E-002 -3.161819348706706E-002 -2.991493878580966E-002
 -2.821168408455197E-002 -2.650842938329453E-002 -2.480517468203718E-002
 -2.310191998077972E-002 -2.139866527952210E-002 -1.969541057826451E-002
 -1.799215587700704E-002 -1.628890117574969E-002 -1.458564647449218E-002
 -1.288239177323445E-002 -1.117913707197690E-002 -9.475882370719439E-003
 -7.772627669461983E-003 -6.069372968204538E-003 -4.366118266946999E-003
 -2.662863565689515E-003 -9.596088644318883E-004  7.436458368255168E-004
 -4.178591737037935E-002 -4.008266266912184E-002 -3.837940796786431E-002
 -3.667615326660659E-002 -3.497289856534906E-002 -3.326964386409184E-002
 -3.156638916283425E-002 -2.986313446157676E-002 -2.815987976031894E-002
 -2.645662505906186E-002 -2.475337035780415E-002 -2.305011565654661E-002
 -2.134686095528922E-002 -1.964360625403168E-002 -1.794035155277418E-002
 -1.623709685151666E-002 -1.453384215025903E-002 -1.283058744900161E-002
 -1.112733274774409E-002 -9.424078046486324E-003 -7.720823345229074E-003
 -6.017568643971507E-003 -4.314313942713993E-003 -2.611059241456577E-003
 -9.078045401987580E-004  7.954501610585484E-004 -4.174048619734574E-002
 -4.003723149608821E-002 -3.833397679483079E-002 -3.663072209357310E-002
 -3.492746739231557E-002 -3.322421269105804E-002 -3.152095798980071E-002
 -2.981770328854329E-002 -2.811444858728571E-002 -2.641119388602807E-002
 -2.470793918477056E-002 -2.300468448351314E-002 -2.130142978225564E-002
 -1.959817508099808E-002 -1.789492037974048E-002 -1.619166567848304E-002
 -1.448841097722534E-002 -1.278515627596793E-002 -1.108190157471051E-002
 -9.378646873453233E-003 -7.675392172195579E-003 -5.972137470937937E-003
 -4.268882769680610E-003 -2.565628068422986E-003 -8.623733671654999E-004
  8.408813340920133E-004 -4.170220551547815E-002 -3.999895081422050E-002
 -3.829569611296314E-002 -3.659244141170539E-002 -3.488918671044813E-002
 -3.318593200919065E-002 -3.148267730793315E-002 -2.977942260667556E-002
 -2.807616790541824E-002 -2.637291320416059E-002 -2.466965850290297E-002
 -2.296640380164548E-002 -2.126314910038794E-002 -1.955989439913052E-002
 -1.785663969787304E-002 -1.615338499661530E-002 -1.445013029535776E-002
 -1.274687559410043E-002 -1.104362089284298E-002 -9.340366191585301E-003
 -7.637111490327914E-003 -5.933856789070444E-003 -4.230602087812914E-003
 -2.527347386555429E-003 -8.240926852979172E-004  8.791620159596228E-004
 -4.167173031785668E-002 -3.996847561659912E-002 -3.826522091534157E-002
 -3.656196621408409E-002 -3.485871151282632E-002 -3.315545681156907E-002
 -3.145220211031160E-002 -2.974894740905394E-002 -2.804569270779641E-002
 -2.634243800653882E-002 -2.463918330528125E-002 -2.293592860402396E-002
 -2.123267390276644E-002 -1.952941920150895E-002 -1.782616450025135E-002
 -1.612290979899409E-002 -1.441965509773646E-002 -1.271640039647878E-002
 -1.101314569522144E-002 -9.309890993963895E-003 -7.606636292706301E-003
 -5.903381591448817E-003 -4.200126890191246E-003 -2.496872188933804E-003
 -7.936174876763029E-004  9.096372135812796E-004 -4.164958204356173E-002
 -3.994632734230431E-002 -3.824307264104664E-002 -3.653981793978910E-002
 -3.483656323853157E-002 -3.313330853727433E-002 -3.143005383601688E-002
 -2.972679913475908E-002 -2.802354443350160E-002 -2.632028973224419E-002
 -2.461703503098654E-002 -2.291378032972914E-002 -2.121052562847161E-002
 -1.950727092721402E-002 -1.780401622595644E-002 -1.610076152469917E-002
 -1.439750682344164E-002 -1.269425212218410E-002 -1.099099742092654E-002
 -9.287742719669098E-003 -7.584488018411585E-003 -5.881233317154168E-003
 -4.177978615896195E-003 -2.474723914638892E-003 -7.714692133814757E-004
  9.317854878760508E-004 -4.163613965570745E-002 -3.993288495445001E-002
 -3.822963025319256E-002 -3.652637555193498E-002 -3.482312085067747E-002
 -3.311986614941985E-002 -3.141661144816256E-002 -2.971335674690483E-002
 -2.801010204564749E-002 -2.630684734438984E-002 -2.460359264313231E-002
 -2.290033794187491E-002 -2.119708324061724E-002 -1.949382853935979E-002
 -1.779057383810237E-002 -1.608731913684478E-002 -1.438406443558718E-002
 -1.268080973432999E-002 -1.097755503307222E-002 -9.274300331814821E-003
 -7.571045630557180E-003 -5.867790929299626E-003 -4.164536228042322E-003
 -2.461281526784698E-003 -7.580268255270718E-004  9.452278757304504E-004
 -4.163163315727691E-002 -3.992837845601921E-002 -3.822512375476174E-002
 -3.652186905350439E-002 -3.481861435224692E-002 -3.311535965098929E-002
 -3.141210494973182E-002 -2.970885024847431E-002 -2.800559554721675E-002
 -2.630234084595927E-002 -2.459908614470179E-002 -2.289583144344416E-002
 -2.119257674218684E-002 -1.948932204092921E-002 -1.778606733967158E-002
 -1.608281263841415E-002 -1.437955793715676E-002 -1.267630323589920E-002
 -1.097304853464168E-002 -9.269793833384063E-003 -7.566539132126399E-003
 -5.863284430869068E-003 -4.160029729611387E-003 -2.456775028353942E-003
 -7.535203270964293E-004  9.497343741610695E-004
  0.115117235145357       0.115112574321809       0.115107913498261     
  0.115103252674713       0.115098591851165       0.115093931027618     
  0.115089270204070       0.115084609380522       0.115079948556974     
  0.115075287733426       0.115070626909878       0.115065966086331     
  0.115061305262783       0.115056644439235       0.115051983615687     
  0.115047322792139       0.115042661968592       0.115038001145044     
  0.115033340321496       0.115028679497948       0.115024018674400     
  0.115019357850853       0.115014697027305       0.115010036203757     
  0.115005375380209       0.115000714556661       0.116764093165069     
  0.116759432341521       0.116754771517973       0.116750110694426     
  0.116745449870878       0.116740789047330       0.116736128223782     
  0.116731467400234       0.116726806576687       0.116722145753139     
  0.116717484929591       0.116712824106043       0.116708163282495     
  0.116703502458948       0.116698841635400       0.116694180811852     
  0.116689519988304       0.116684859164756       0.116680198341208     
  0.116675537517661       0.116670876694113       0.116666215870565     
  0.116661555047017       0.116656894223469       0.116652233399922     
  0.116647572576374       0.121676489026894       0.121671828203346     
  0.121667167379798       0.121662506556250       0.121657845732702     
  0.121653184909155       0.121648524085607       0.121643863262059     
  0.121639202438511       0.121634541614963       0.121629880791416     
  0.121625219967868       0.121620559144320       0.121615898320772     
  0.121611237497224       0.121606576673677       0.121601915850129     
  0.121597255026581       0.121592594203033       0.121587933379485     
  0.121583272555937       0.121578611732390       0.121573950908842     
  0.121569290085294       0.121564629261746       0.121559968438199     
  0.129770370275661       0.129765709452114       0.129761048628566     
  0.129756387805018       0.129751726981470       0.129747066157922     
  0.129742405334375       0.129737744510827       0.129733083687279     
  0.129728422863731       0.129723762040183       0.129719101216636     
  0.129714440393088       0.129709779569540       0.129705118745992     
  0.129700457922444       0.129695797098896       0.129691136275349     
  0.129686475451801       0.129681814628253       0.129677153804705     
  0.129672492981157       0.129667832157610       0.129663171334062     
  0.129658510510514       0.129653849686966       0.140907248359158     
  0.140902587535610       0.140897926712062       0.140893265888515     
  0.140888605064967       0.140883944241419       0.140879283417871     
  0.140874622594323       0.140869961770775       0.140865300947228     
  0.140860640123680       0.140855979300132       0.140851318476584     
  0.140846657653036       0.140841996829489       0.140837336005941     
  0.140832675182393       0.140828014358845       0.140823353535297     
  0.140818692711750       0.140814031888202       0.140809371064654     
  0.140804710241106       0.140800049417558       0.140795388594011     
  0.140790727770463       0.154896568205649       0.154891907382101     
  0.154887246558553       0.154882585735005       0.154877924911457     
  0.154873264087910       0.154868603264362       0.154863942440814     
  0.154859281617266       0.154854620793718       0.154849959970171     
  0.154845299146623       0.154840638323075       0.154835977499527     
  0.154831316675979       0.154826655852431       0.154821995028884     
  0.154817334205336       0.154812673381788       0.154808012558240     
  0.154803351734692       0.154798690911145       0.154794030087597     
  0.154789369264049       0.154784708440501       0.154780047616953     
  0.171498968673988       0.171494307850440       0.171489647026892     
  0.171484986203344       0.171480325379797       0.171475664556249     
  0.171471003732701       0.171466342909153       0.171461682085605     
  0.171457021262058       0.171452360438510       0.171447699614962     
  0.171443038791414       0.171438377967866       0.171433717144318     
  0.171429056320771       0.171424395497223       0.171419734673675     
  0.171415073850127       0.171410413026579       0.171405752203032     
  0.171401091379484       0.171396430555936       0.171391769732388     
  0.171387108908840       0.171382448085293       0.190430378089107     
  0.190425717265560       0.190421056442012       0.190416395618464     
  0.190411734794916       0.190407073971368       0.190402413147820     
  0.190397752324273       0.190393091500725       0.190388430677177     
  0.190383769853629       0.190379109030081       0.190374448206533     
  0.190369787382986       0.190365126559438       0.190360465735890     
  0.190355804912342       0.190351144088794       0.190346483265247     
  0.190341822441699       0.190337161618151       0.190332500794603     
  0.190327839971055       0.190323179147508       0.190318518323960     
  0.190313857500412       0.211366874787136       0.211362213963588     
  0.211357553140040       0.211352892316493       0.211348231492945     
  0.211343570669397       0.211338909845849       0.211334249022301     
  0.211329588198754       0.211324927375206       0.211320266551658     
  0.211315605728110       0.211310944904562       0.211306284081014     
  0.211301623257467       0.211296962433919       0.211292301610371     
  0.211287640786823       0.211282979963275       0.211278319139728     
  0.211273658316180       0.211268997492632       0.211264336669084     
  0.211259675845536       0.211255015021988       0.211250354198441     
  0.233950229504877       0.233945568681329       0.233940907857781     
  0.233936247034234       0.233931586210686       0.233926925387138     
  0.233922264563590       0.233917603740042       0.233912942916495     
  0.233908282092947       0.233903621269399       0.233898960445851     
  0.233894299622303       0.233889638798756       0.233884977975208     
  0.233880317151660       0.233875656328112       0.233870995504564     
  0.233866334681017       0.233861673857469       0.233857013033921     
  0.233852352210373       0.233847691386825       0.233843030563277     
  0.233838369739730       0.233833708916182       0.257794034781821     
  0.257789373958273       0.257784713134726       0.257780052311178     
  0.257775391487630       0.257770730664082       0.257766069840534     
  0.257761409016987       0.257756748193439       0.257752087369891     
  0.257747426546343       0.257742765722795       0.257738104899247     
  0.257733444075699       0.257728783252152       0.257724122428604     
  0.257719461605057       0.257714800781508       0.257710139957961     
  0.257705479134413       0.257700818310865       0.257696157487317     
  0.257691496663769       0.257686835840221       0.257682175016674     
  0.257677514193126       0.282490316498928       0.282485655675381     
  0.282480994851832       0.282476334028285       0.282471673204737     
  0.282467012381189       0.282462351557641       0.282457690734093     
  0.282453029910546       0.282448369086998       0.282443708263450     
  0.282439047439902       0.282434386616354       0.282429725792807     
  0.282425064969259       0.282420404145711       0.282415743322163     
  0.282411082498616       0.282406421675068       0.282401760851520     
  0.282397100027972       0.282392439204424       0.282387778380876     
  0.282383117557328       0.282378456733781       0.282373795910233     
  0.307616514428915       0.307611853605368       0.307607192781820     
  0.307602531958272       0.307597871134724       0.307593210311176     
  0.307588549487628       0.307583888664081       0.307579227840533     
  0.307574567016985       0.307569906193437       0.307565245369889     
  0.307560584546342       0.307555923722794       0.307551262899246     
  0.307546602075698       0.307541941252151       0.307537280428603     
  0.307532619605055       0.307527958781507       0.307523297957959     
  0.307518637134411       0.307513976310864       0.307509315487316     
  0.307504654663768       0.307499993840220       0.332742712358903     
  0.332738051535355       0.332733390711807       0.332728729888259     
  0.332724069064711       0.332719408241163       0.332714747417616     
  0.332710086594068       0.332705425770520       0.332700764946972     
  0.332696104123424       0.332691443299877       0.332686782476329     
  0.332682121652781       0.332677460829233       0.332672800005685     
  0.332668139182137       0.332663478358590       0.332658817535042     
  0.332654156711494       0.332649495887946       0.332644835064398     
  0.332640174240850       0.332635513417303       0.332630852593755     
  0.332626191770208       0.357438994076009       0.357434333252462     
  0.357429672428914       0.357425011605366       0.357420350781818     
  0.357415689958270       0.357411029134723       0.357406368311175     
  0.357401707487627       0.357397046664079       0.357392385840531     
  0.357387725016984       0.357383064193436       0.357378403369888     
  0.357373742546340       0.357369081722792       0.357364420899244     
  0.357359760075697       0.357355099252149       0.357350438428601     
  0.357345777605053       0.357341116781505       0.357336455957958     
  0.357331795134410       0.357327134310862       0.357322473487314     
  0.381282799352954       0.381278138529406       0.381273477705858     
  0.381268816882310       0.381264156058763       0.381259495235215     
  0.381254834411667       0.381250173588119       0.381245512764571     
  0.381240851941023       0.381236191117476       0.381231530293928     
  0.381226869470380       0.381222208646832       0.381217547823285     
  0.381212886999736       0.381208226176189       0.381203565352641     
  0.381198904529093       0.381194243705545       0.381189582881997     
  0.381184922058450       0.381180261234902       0.381175600411354     
  0.381170939587806       0.381166278764259       0.403866154070695     
  0.403861493247147       0.403856832423599       0.403852171600051     
  0.403847510776503       0.403842849952956       0.403838189129408     
  0.403833528305860       0.403828867482312       0.403824206658764     
  0.403819545835217       0.403814885011669       0.403810224188121     
  0.403805563364573       0.403800902541025       0.403796241717478     
  0.403791580893930       0.403786920070382       0.403782259246834     
  0.403777598423286       0.403772937599738       0.403768276776191     
  0.403763615952643       0.403758955129095       0.403754294305547     
  0.403749633481999       0.424802650768723       0.424797989945176     
  0.424793329121628       0.424788668298080       0.424784007474532     
  0.424779346650985       0.424774685827436       0.424770025003889     
  0.424765364180341       0.424760703356793       0.424756042533245     
  0.424751381709697       0.424746720886150       0.424742060062602     
  0.424737399239054       0.424732738415506       0.424728077591958     
  0.424723416768410       0.424718755944863       0.424714095121315     
  0.424709434297767       0.424704773474219       0.424700112650672     
  0.424695451827124       0.424690791003576       0.424686130180028     
  0.443734060183843       0.443729399360295       0.443724738536747     
  0.443720077713200       0.443715416889652       0.443710756066104     
  0.443706095242556       0.443701434419008       0.443696773595461     
  0.443692112771912       0.443687451948365       0.443682791124817     
  0.443678130301269       0.443673469477722       0.443668808654174     
  0.443664147830626       0.443659487007078       0.443654826183530     
  0.443650165359982       0.443645504536435       0.443640843712887     
  0.443636182889339       0.443631522065791       0.443626861242243     
  0.443622200418696       0.443617539595148       0.460336460652183     
  0.460331799828635       0.460327139005086       0.460322478181539     
  0.460317817357991       0.460313156534443       0.460308495710895     
  0.460303834887347       0.460299174063799       0.460294513240252     
  0.460289852416704       0.460285191593156       0.460280530769608     
  0.460275869946061       0.460271209122513       0.460266548298965     
  0.460261887475417       0.460257226651869       0.460252565828322     
  0.460247905004774       0.460243244181226       0.460238583357677     
  0.460233922534130       0.460229261710582       0.460224600887035     
  0.460219940063487       0.474325780498673       0.474321119675125     
  0.474316458851577       0.474311798028029       0.474307137204482     
  0.474302476380933       0.474297815557386       0.474293154733838     
  0.474288493910290       0.474283833086742       0.474279172263195     
  0.474274511439647       0.474269850616099       0.474265189792551     
  0.474260528969004       0.474255868145456       0.474251207321908     
  0.474246546498360       0.474241885674812       0.474237224851264     
  0.474232564027717       0.474227903204169       0.474223242380621     
  0.474218581557073       0.474213920733525       0.474209259909978     
  0.485462658582169       0.485457997758621       0.485453336935074     
  0.485448676111526       0.485444015287978       0.485439354464430     
  0.485434693640882       0.485430032817334       0.485425371993787     
  0.485420711170239       0.485416050346691       0.485411389523143     
  0.485406728699596       0.485402067876048       0.485397407052500     
  0.485392746228952       0.485388085405404       0.485383424581856     
  0.485378763758309       0.485374102934761       0.485369442111213     
  0.485364781287665       0.485360120464117       0.485355459640570     
  0.485350798817022       0.485346137993474       0.493556539830937     
  0.493551879007390       0.493547218183841       0.493542557360294     