 Title = "Wing and Wake"
 VARIABLES = "X" "Y" "Z" "GAM"
 Zone I=   26 J=   25 K=1  T="Blade"
 DATAPACKING=BLOCK
 VARLOCATION=([4]=CELLCENTERED)
  0.115111861888610       0.115107415436408       0.115102968984206     
  0.115098522532004       0.115094076079803       0.115089629627601     
  0.115085183175399       0.115080736723197       0.115076290270996     
  0.115071843818794       0.115067397366592       0.115062950914390     
  0.115058504462188       0.115054058009987       0.115049611557785     
  0.115045165105583       0.115040718653381       0.115036272201179     
  0.115031825748978       0.115027379296776       0.115022932844574     
  0.115018486392372       0.115014039940171       0.115009593487969     
  0.115005147035767       0.115000700583565       0.116758720462466     
  0.116754274010264       0.116749827558062       0.116745381105860     
  0.116740934653658       0.116736488201457       0.116732041749255     
  0.116727595297053       0.116723148844851       0.116718702392650     
  0.116714255940448       0.116709809488246       0.116705363036044     
  0.116700916583842       0.116696470131641       0.116692023679439     
  0.116687577227237       0.116683130775035       0.116678684322834     
  0.116674237870632       0.116669791418430       0.116665344966228     
  0.116660898514026       0.116656452061825       0.116652005609623     
  0.116647559157421       0.121671117977239       0.121666671525037     
  0.121662225072835       0.121657778620633       0.121653332168432     
  0.121648885716230       0.121644439264028       0.121639992811826     
  0.121635546359625       0.121631099907423       0.121626653455221     
  0.121622207003019       0.121617760550817       0.121613314098616     
  0.121608867646414       0.121604421194212       0.121599974742010     
  0.121595528289808       0.121591081837607       0.121586635385405     
  0.121582188933203       0.121577742481001       0.121573296028800     
  0.121568849576598       0.121564403124396       0.121559956672194     
  0.129765001949478       0.129760555497276       0.129756109045074     
  0.129751662592872       0.129747216140671       0.129742769688469     
  0.129738323236267       0.129733876784065       0.129729430331863     
  0.129724983879662       0.129720537427460       0.129716090975258     
  0.129711644523056       0.129707198070854       0.129702751618653     
  0.129698305166451       0.129693858714249       0.129689412262047     
  0.129684965809846       0.129680519357644       0.129676072905442     
  0.129671626453240       0.129667180001039       0.129662733548837     
  0.129658287096635       0.129653840644433       0.140901883780369     
  0.140897437328167       0.140892990875965       0.140888544423764     
  0.140884097971562       0.140879651519360       0.140875205067158     
  0.140870758614956       0.140866312162754       0.140861865710553     
  0.140857419258351       0.140852972806149       0.140848526353948     
  0.140844079901746       0.140839633449544       0.140835186997342     
  0.140830740545140       0.140826294092939       0.140821847640737     
  0.140817401188535       0.140812954736333       0.140808508284131     
  0.140804061831930       0.140799615379728       0.140795168927526     
  0.140790722475324       0.154891208334059       0.154886761881857     
  0.154882315429655       0.154877868977453       0.154873422525251     
  0.154868976073049       0.154864529620848       0.154860083168646     
  0.154855636716444       0.154851190264243       0.154846743812041     
  0.154842297359839       0.154837850907637       0.154833404455435     
  0.154828958003234       0.154824511551031       0.154820065098830     
  0.154815618646628       0.154811172194426       0.154806725742225     
  0.154802279290023       0.154797832837821       0.154793386385619     
  0.154788939933417       0.154784493481216       0.154780047029014     
  0.171493614388860       0.171489167936658       0.171484721484456     
  0.171480275032254       0.171475828580053       0.171471382127850     
  0.171466935675649       0.171462489223447       0.171458042771246     
  0.171453596319044       0.171449149866842       0.171444703414640     
  0.171440256962438       0.171435810510236       0.171431364058034     
  0.171426917605833       0.171422471153631       0.171418024701429     
  0.171413578249228       0.171409131797026       0.171404685344824     
  0.171400238892622       0.171395792440420       0.171391345988218     
  0.171386899536017       0.171382453083815       0.190425030174118     
  0.190420583721917       0.190416137269715       0.190411690817513     
  0.190407244365311       0.190402797913110       0.190398351460907     
  0.190393905008706       0.190389458556504       0.190385012104302     
  0.190380565652100       0.190376119199898       0.190371672747697     
  0.190367226295495       0.190362779843293       0.190358333391091     
  0.190353886938889       0.190349440486688       0.190344994034486     
  0.190340547582284       0.190336101130082       0.190331654677881     
  0.190327208225679       0.190322761773477       0.190318315321275     
  0.190313868869073       0.211361533916968       0.211357087464766     
  0.211352641012564       0.211348194560363       0.211343748108161     
  0.211339301655959       0.211334855203757       0.211330408751556     
  0.211325962299354       0.211321515847152       0.211317069394950     
  0.211312622942748       0.211308176490546       0.211303730038345     
  0.211299283586143       0.211294837133941       0.211290390681740     
  0.211285944229537       0.211281497777336       0.211277051325134     
  0.211272604872932       0.211268158420731       0.211263711968529     
  0.211259265516327       0.211254819064125       0.211250372611924     
  0.233944896233673       0.233940449781472       0.233936003329270     
  0.233931556877068       0.233927110424866       0.233922663972665     
  0.233918217520463       0.233913771068261       0.233909324616059     
  0.233904878163857       0.233900431711656       0.233895985259454     
  0.233891538807252       0.233887092355050       0.233882645902849     
  0.233878199450647       0.233873752998445       0.233869306546243     
  0.233864860094041       0.233860413641840       0.233855967189638     
  0.233851520737436       0.233847074285234       0.233842627833032     
  0.233838181380831       0.233833734928629       0.257788709533705     
  0.257784263081503       0.257779816629302       0.257775370177100     
  0.257770923724899       0.257766477272696       0.257762030820494     
  0.257757584368293       0.257753137916091       0.257748691463889     
  0.257744245011687       0.257739798559486       0.257735352107284     
  0.257730905655082       0.257726459202880       0.257722012750678     
  0.257717566298477       0.257713119846275       0.257708673394073     
  0.257704226941871       0.257699780489670       0.257695334037468     
  0.257690887585266       0.257686441133064       0.257681994680862     
  0.257677548228661       0.282484999560745       0.282480553108543     
  0.282476106656342       0.282471660204140       0.282467213751938     
  0.282462767299736       0.282458320847534       0.282453874395332     
  0.282449427943131       0.282444981490929       0.282440535038728     
  0.282436088586526       0.282431642134324       0.282427195682121     
  0.282422749229920       0.282418302777719       0.282413856325517     
  0.282409409873315       0.282404963421113       0.282400516968911     
  0.282396070516709       0.282391624064507       0.282387177612306     
  0.282382731160104       0.282378284707902       0.282373838255701     
  0.307611205945326       0.307606759493124       0.307602313040923     
  0.307597866588721       0.307593420136519       0.307588973684318     
  0.307584527232115       0.307580080779913       0.307575634327712     
  0.307571187875510       0.307566741423308       0.307562294971106     
  0.307557848518904       0.307553402066703       0.307548955614501     
  0.307544509162299       0.307540062710098       0.307535616257896     
  0.307531169805694       0.307526723353492       0.307522276901290     
  0.307517830449088       0.307513383996887       0.307508937544685     
  0.307504491092483       0.307500044640282       0.332737412329907     
  0.332732965877705       0.332728519425503       0.332724072973302     
  0.332719626521100       0.332715180068897       0.332710733616697     
  0.332706287164495       0.332701840712292       0.332697394260091     
  0.332692947807889       0.332688501355688       0.332684054903485     
  0.332679608451284       0.332675161999082       0.332670715546880     
  0.332666269094679       0.332661822642477       0.332657376190275     
  0.332652929738073       0.332648483285872       0.332644036833669     
  0.332639590381468       0.332635143929266       0.332630697477064     
  0.332626251024862       0.357433702356947       0.357429255904745     
  0.357424809452544       0.357420363000342       0.357415916548140     
  0.357411470095938       0.357407023643737       0.357402577191535     
  0.357398130739333       0.357393684287132       0.357389237834928     
  0.357384791382728       0.357380344930526       0.357375898478323     
  0.357371452026122       0.357367005573920       0.357362559121719     
  0.357358112669516       0.357353666217315       0.357349219765113     
  0.357344773312911       0.357340326860709       0.357335880408508     
  0.357331433956306       0.357326987504104       0.357322541051903     
  0.381277515656979       0.381273069204776       0.381268622752575     
  0.381264176300373       0.381259729848172       0.381255283395970     
  0.381250836943768       0.381246390491566       0.381241944039364     
  0.381237497587162       0.381233051134962       0.381228604682759     
  0.381224158230556       0.381219711778356       0.381215265326154     
  0.381210818873952       0.381206372421750       0.381201925969549     
  0.381197479517347       0.381193033065145       0.381188586612943     
  0.381184140160741       0.381179693708540       0.381175247256338     
  0.381170800804136       0.381166354351935       0.403860877973684     
  0.403856431521482       0.403851985069280       0.403847538617079     
  0.403843092164877       0.403838645712675       0.403834199260473     
  0.403829752808271       0.403825306356070       0.403820859903868     
  0.403816413451666       0.403811966999465       0.403807520547263     
  0.403803074095060       0.403798627642859       0.403794181190658     
  0.403789734738456       0.403785288286254       0.403780841834052     
  0.403776395381850       0.403771948929648       0.403767502477447     
  0.403763056025245       0.403758609573043       0.403754163120842     
  0.403749716668640       0.424797381716534       0.424792935264333     
  0.424788488812130       0.424784042359929       0.424779595907727     
  0.424775149455525       0.424770703003323       0.424766256551122     
  0.424761810098920       0.424757363646718       0.424752917194515     
  0.424748470742314       0.424744024290113       0.424739577837911     
  0.424735131385709       0.424730684933508       0.424726238481306     
  0.424721792029103       0.424717345576902       0.424712899124700     
  0.424708452672498       0.424704006220296       0.424699559768095     
  0.424695113315893       0.424690666863691       0.424686220411489     
  0.443728797501792       0.443724351049591       0.443719904597389     
  0.443715458145188       0.443711011692985       0.443706565240784     
  0.443702118788582       0.443697672336380       0.443693225884179     
  0.443688779431976       0.443684332979775       0.443679886527572     
  0.443675440075371       0.443670993623170       0.443666547170967     
  0.443662100718766       0.443657654266564       0.443653207814362     
  0.443648761362160       0.443644314909959       0.443639868457757     
  0.443635422005555       0.443630975553354       0.443626529101152     
  0.443622082648950       0.443617636196748       0.460331203556594     
  0.460326757104392       0.460322310652190       0.460317864199989     
  0.460313417747786       0.460308971295585       0.460304524843383     
  0.460300078391181       0.460295631938979       0.460291185486777     
  0.460286739034576       0.460282292582375       0.460277846130173     
  0.460273399677971       0.460268953225769       0.460264506773567     
  0.460260060321366       0.460255613869164       0.460251167416962     
  0.460246720964760       0.460242274512558       0.460237828060356     
  0.460233381608155       0.460228935155952       0.460224488703751     
  0.460220042251549       0.474320528110284       0.474316081658082     
  0.474311635205880       0.474307188753677       0.474302742301476     
  0.474298295849275       0.474293849397073       0.474289402944871     
  0.474284956492669       0.474280510040468       0.474276063588266     
  0.474271617136063       0.474267170683862       0.474262724231660     
  0.474258277779459       0.474253831327256       0.474249384875055     
  0.474244938422853       0.474240491970652       0.474236045518449     
  0.474231599066248       0.474227152614046       0.474222706161844     
  0.474218259709642       0.474213813257440       0.474209366805239     
  0.485457409941174       0.485452963488972       0.485448517036771     
  0.485444070584569       0.485439624132367       0.485435177680165     
  0.485430731227964       0.485426284775762       0.485421838323560     
  0.485417391871358       0.485412945419157       0.485408498966955     
  0.485404052514754       0.485399606062551       0.485395159610349     
  0.485390713158148       0.485386266705946       0.485381820253744     
  0.485377373801543       0.485372927349340       0.485368480897139     
  0.485364034444937       0.485359587992735       0.485355141540534     
  0.485350695088331       0.485346248636130       0.493551293913414     
  0.493546847461212       0.493542401009010       0.493537954556809     
  0.493533508104606       0.493529061652405       0.493524615200203     
  0.493520168748001       0.493515722295799       0.493511275843597     
  0.493506829391396       0.493502382939194       0.493497936486992     
  0.493493490034790       0.493489043582589       0.493484597130387     
  0.493480150678185       0.493475704225983       0.493471257773781     
  0.493466811321579       0.493462364869377       0.493457918417176     
  0.493453471964974       0.493449025512772       0.493444579060570     
  0.493440132608369       0.498463691428187       0.498459244975984     
  0.498454798523784       0.498450352071581       0.498445905619379     
  0.498441459167178       0.498437012714976       0.498432566262774     
  0.498428119810572       0.498423673358371       0.498419226906169     
  0.498414780453967       0.498410334001765       0.498405887549564     
  0.498401441097362       0.498396994645160       0.498392548192958     
  0.498388101740756       0.498383655288555       0.498379208836353     
  0.498374762384151       0.498370315931949       0.498365869479747     
  0.498361423027546       0.498356976575344       0.498352530123143     
  0.500110550002043       0.500106103549841       0.500101657097639     
  0.500097210645437       0.500092764193235       0.500088317741033     
  0.500083871288831       0.500079424836630       0.500074978384428     
  0.500070531932226       0.500066085480025       0.500061639027823     
  0.500057192575621       0.500052746123419       0.500048299671218     
  0.500043853219016       0.500039406766814       0.500034960314612     
  0.500030513862410       0.500026067410208       0.500021620958007     
  0.500017174505805       0.500012728053603       0.500008281601401     
  0.500003835149200       0.499999388696997     
  4.269963995793916E-002  4.099638468356172E-002  3.929312940918417E-002
  3.758987413480668E-002  3.588661886042917E-002  3.418336358605165E-002
  3.248010831167409E-002  3.077685303729671E-002  2.907359776291921E-002
  2.737034248854173E-002  2.566708721416424E-002  2.396383193978661E-002
  2.226057666540920E-002  2.055732139103161E-002  1.885406611665416E-002
  1.715081084227647E-002  1.544755556789914E-002  1.374430029352165E-002
  1.204104501914418E-002  1.033778974476658E-002  8.634534470389161E-003
  6.931279196011593E-003  5.228023921634112E-003  3.524768647256549E-003
  1.821513372879087E-003  1.182580985016269E-004  4.269534073277786E-002
  4.099208545840037E-002  3.928883018402275E-002  3.758557490964539E-002
  3.588231963526788E-002  3.417906436089039E-002  3.247580908651278E-002
  3.077255381213535E-002  2.906929853775781E-002  2.736604326338023E-002
  2.566278798900282E-002  2.395953271462537E-002  2.225627744024784E-002
  2.055302216587029E-002  1.884976689149282E-002  1.714651161711521E-002
  1.544325634273780E-002  1.374000106836041E-002  1.203674579398278E-002
  1.033349051960533E-002  8.630235245227788E-003  6.926979970850218E-003
  5.223724696472864E-003  3.520469422095208E-003  1.817214147717792E-003
  1.139588733401505E-004  4.268251661822835E-002  4.097926134385099E-002
  3.927600606947337E-002  3.757275079509591E-002  3.586949552071830E-002
  3.416624024634093E-002  3.246298497196336E-002  3.075972969758588E-002
  2.905647442320839E-002  2.735321914883087E-002  2.564996387445337E-002
  2.394670860007589E-002  2.224345332569839E-002  2.054019805132080E-002
  1.883694277694329E-002  1.713368750256582E-002  1.543043222818834E-002
  1.372717695381083E-002  1.202392167943334E-002  1.032066640505587E-002
  8.617411130678300E-003  6.914155856300810E-003  5.210900581923255E-003
  3.507645307545854E-003  1.804390033168404E-003  1.011347587909173E-004
  4.266138703844622E-002  4.095813176406869E-002  3.925487648969121E-002
  3.755162121531364E-002  3.584836594093619E-002  3.414511066655872E-002
  3.244185539218115E-002  3.073860011780369E-002  2.903534484342601E-002
  2.733208956904867E-002  2.562883429467120E-002  2.392557902029375E-002
  2.222232374591617E-002  2.051906847153861E-002  1.881581319716119E-002
  1.711255792278369E-002  1.540930264840623E-002  1.370604737402857E-002
  1.200279209965114E-002  1.029953682527365E-002  8.596281550896161E-003
  6.893026276518672E-003  5.189771002141167E-003  3.486515727763670E-003
  1.783260453386213E-003  8.000517900866358E-005  4.263231352639957E-002
  4.092905825202207E-002  3.922580297764477E-002  3.752254770326705E-002
  3.581929242888963E-002  3.411603715451213E-002  3.241278188013463E-002
  3.070952660575718E-002  2.900627133137948E-002  2.730301605700207E-002
  2.559976078262462E-002  2.389650550824710E-002  2.219325023386967E-002
  2.048999495949206E-002  1.878673968511466E-002  1.708348441073705E-002
  1.538022913635961E-002  1.367697386198203E-002  1.197371858760458E-002
  1.027046331322699E-002  8.567208038849540E-003  6.863952764472173E-003
  5.160697490094617E-003  3.457442215717114E-003  1.754186941339613E-003
  5.093166696206832E-005  4.259579353794044E-002  4.089253826356290E-002
  3.918928298918557E-002  3.748602771480795E-002  3.578277244043048E-002
  3.407951716605287E-002  3.237626189167551E-002  3.067300661729792E-002
  2.896975134292034E-002  2.726649606854281E-002  2.556324079416548E-002
  2.385998551978800E-002  2.215673024541055E-002  2.045347497103279E-002
  1.875021969665546E-002  1.704696442227783E-002  1.534370914790052E-002
  1.364045387352300E-002  1.193719859914546E-002  1.023394332476797E-002
  8.530688050390530E-003  6.827432776012809E-003  5.124177501635339E-003
  3.420922227257885E-003  1.717666952880504E-003  1.441167850283706E-005
  4.255245194019644E-002  4.084919666581905E-002  3.914594139144161E-002
  3.744268611706398E-002  3.573943084268656E-002  3.403617556830910E-002
  3.233292029393170E-002  3.062966501955399E-002  2.892640974517652E-002
  2.722315447079897E-002  2.551989919642163E-002  2.381664392204412E-002
  2.211338864766630E-002  2.041013337328906E-002  1.870687809891127E-002
  1.700362282453393E-002  1.530036755015647E-002  1.359711227577884E-002
  1.189385700140161E-002  1.019060172702397E-002  8.487346452646274E-003
  6.784091178268879E-003  5.080835903891579E-003  3.377580629514089E-003
  1.674325355136515E-003 -2.892991924119515E-005  4.250303031992184E-002
  4.079977504554423E-002  3.909651977116665E-002  3.739326449678899E-002
  3.569000922241163E-002  3.398675394803412E-002  3.228349867365690E-002
  3.058024339927938E-002  2.887698812490169E-002  2.717373285052434E-002
  2.547047757614658E-002  2.376722230176924E-002  2.206396702739175E-002
  2.036071175301439E-002  1.865745647863672E-002  1.695420120425921E-002
  1.525094592988165E-002  1.354769065550424E-002  1.184443538112659E-002
  1.014118010674903E-002  8.437924832371815E-003  6.734669557994254E-003
  5.031414283616625E-003  3.328159009239177E-003  1.624903734861754E-003
 -7.835153951592230E-005  4.244837429474148E-002  4.074511902036383E-002
  3.904186374598628E-002  3.733860847160882E-002  3.563535319723158E-002
  3.393209792285375E-002  3.222884264847606E-002  3.052558737409885E-002
  2.882233209972110E-002  2.711907682534364E-002  2.541582155096625E-002
  2.371256627658887E-002  2.200931100221131E-002  2.030605572783382E-002
  1.860280045345623E-002  1.689954517907862E-002  1.519628990470104E-002
  1.349303463032379E-002  1.178977935594633E-002  1.008652408156893E-002
  8.383268807191412E-003  6.680013532813623E-003  4.976758258436395E-003
  3.273502984058766E-003  1.570247709681297E-003 -1.330075646962889E-004
  4.238941904439941E-002  4.068616377002211E-002  3.898290849564456E-002
  3.727965322126692E-002  3.557639794688940E-002  3.387314267251224E-002
  3.216988739813446E-002  3.046663212375702E-002  2.876337684937937E-002
  2.706012157500195E-002  2.535686630062454E-002  2.365361102624714E-002
  2.195035575186939E-002  2.024710047749197E-002  1.854384520311454E-002
  1.684058992873708E-002  1.513733465435936E-002  1.343407937998209E-002
  1.173082410560447E-002  1.002756883122697E-002  8.324313556849414E-003
  6.621058282471959E-003  4.917803008094486E-003  3.214547733716936E-003
  1.511292459339490E-003 -1.919628150380362E-004  4.232717330957541E-002
  4.062391803519778E-002  3.892066276082017E-002  3.721740748644291E-002
  3.551415221206514E-002  3.381089693768774E-002  3.210764166331025E-002
  3.040438638893288E-002  2.870113111455511E-002  2.699787584017763E-002
  2.529462056580027E-002  2.359136529142275E-002  2.188811001704531E-002
  2.018485474266775E-002  1.848159946829022E-002  1.677834419391264E-002
  1.507508891953522E-002  1.337183364515786E-002  1.166857837078047E-002
  9.965323096402693E-003  8.262067822025196E-003  6.558812547647705E-003
  4.855557273270291E-003  3.152301998892551E-003  1.449046724515212E-003
 -2.542085498623296E-004  4.226270213204900E-002  4.055944685767164E-002
  3.885619158329422E-002  3.715293630891664E-002  3.544968103453938E-002
  3.374642576016159E-002  3.204317048578413E-002  3.033991521140678E-002
  2.863665993702937E-002  2.693340466265146E-002  2.523014938827409E-002
  2.352689411389643E-002  2.182363883951920E-002  2.012038356514183E-002
  1.841712829076408E-002  1.671387301638651E-002  1.501061774200888E-002
  1.330736246763139E-002  1.160410719325414E-002  9.900851918876555E-003
  8.197596644499346E-003  6.494341370121748E-003  4.791086095744092E-003
  3.087830821366765E-003  1.384575546989018E-003 -3.186797273883585E-004
  4.219710863154352E-002  4.049385335716585E-002  3.879059808278867E-002
  3.708734280841099E-002  3.538408753403335E-002  3.368083225965601E-002
  3.197757698527839E-002  3.027432171090109E-002  2.857106643652319E-002
  2.686781116214598E-002  2.516455588776851E-002  2.346130061339086E-002
  2.175804533901353E-002  2.005479006463572E-002  1.835153479025867E-002
  1.664827951588078E-002  1.494502424150313E-002  1.324176896712603E-002
  1.153851369274832E-002  9.835258418370789E-003  8.132003143993273E-003
  6.428747869615675E-003  4.725492595238523E-003  3.022237320860982E-003
  1.318982046483386E-003 -3.842732278948647E-004  4.213151513103783E-002
  4.042825985666008E-002  3.872500458228310E-002  3.702174930790525E-002
  3.531849403352798E-002  3.361523875915025E-002  3.191198348477261E-002
  3.020872821039526E-002  2.850547293601747E-002  2.680221766164034E-002
  2.509896238726242E-002  2.339570711288525E-002  2.169245183850779E-002
  1.998919656412987E-002  1.828594128975264E-002  1.658268601537548E-002
  1.487943074099765E-002  1.317617546662035E-002  1.147292019224290E-002
  9.769664917865207E-003  8.066409643487723E-003  6.363154369110308E-003
  4.659899094732810E-003  2.956643820355052E-003  1.253388545977594E-003
 -4.498667283999085E-004  4.206704395351155E-002  4.036378867913388E-002
  3.866053340475689E-002  3.695727813037910E-002  3.525402285600112E-002
  3.355076758162408E-002  3.184751230724663E-002  3.014425703286932E-002
  2.844100175849178E-002  2.673774648411392E-002  2.503449120973667E-002
  2.333123593535882E-002  2.162798066098176E-002  1.992472538660434E-002
  1.822147011222667E-002  1.651821483784928E-002  1.481495956347172E-002
  1.311170428909402E-002  1.140844901471633E-002  9.705193740339336E-003
  8.001938465961750E-003  6.298683191584076E-003  4.595427917206459E-003
  2.892172642829209E-003  1.188917368451666E-003 -5.143379059259388E-004
  4.200479821868720E-002  4.030154294430954E-002  3.859828766993233E-002
  3.689503239555498E-002  3.519177712117730E-002  3.348852184679975E-002
  3.178526657242210E-002  3.008201129804492E-002  2.837875602366777E-002
  2.667550074928994E-002  2.497224547491209E-002  2.326899020053476E-002
  2.156573492615755E-002  1.986247965178007E-002  1.815922437740228E-002
  1.645596910302475E-002  1.475271382864705E-002  1.304945855426981E-002
  1.134620327989214E-002  9.642948005514877E-003  7.939692731137088E-003
  6.236437456759508E-003  4.533182182382212E-003  2.829926908004424E-003
  1.126671633627166E-003 -5.765836407503574E-004  4.194584296834545E-002
  4.024258769396815E-002  3.853933241959061E-002  3.683607714521302E-002
  3.513282187083587E-002  3.342956659645809E-002  3.172631132208041E-002
  3.002305604770327E-002  2.831980077332560E-002  2.661654549894796E-002
  2.491329022457050E-002  2.321003495019325E-002  2.150677967581538E-002
  1.980352440143819E-002  1.810026912706045E-002  1.639701385268307E-002
  1.469375857830583E-002  1.299050330392818E-002  1.128724802955043E-002
  9.583992755172995E-003  7.880737480795454E-003  6.177482206418142E-003
  4.474226932040507E-003  2.770971657663085E-003  1.067716383285423E-003
 -6.355388910920489E-004  4.189118694316513E-002  4.018793166878775E-002
  3.848467639441015E-002  3.678142112003285E-002  3.507816584565500E-002
  3.337491057127723E-002  3.167165529689955E-002  2.996840002252259E-002
  2.826514474814504E-002  2.656188947376745E-002  2.485863419938992E-002
  2.315537892501270E-002  2.145212365063485E-002  1.974886837625724E-002
  1.804561310188005E-002  1.634235782750268E-002  1.463910255312495E-002
  1.293584727874753E-002  1.123259200437010E-002  9.529336729992996E-003
  7.826081455615400E-003  6.122826181237535E-003  4.419570906859862E-003
  2.716315632482546E-003  1.013060358105153E-003 -6.901949162720305E-004
  4.184176532289038E-002  4.013851004851279E-002  3.843525477413549E-002
  3.673199949975769E-002  3.502874422537986E-002  3.332548895100270E-002
  3.162223367662534E-002  2.991897840224761E-002  2.821572312786984E-002
  2.651246785349270E-002  2.480921257911526E-002  2.310595730473778E-002
  2.140270203036068E-002  1.969944675598269E-002  1.799619148160523E-002
  1.629293620722780E-002  1.458968093285038E-002  1.288642565847293E-002
  1.118317038409529E-002  9.479915109717688E-003  7.776659835340064E-003
  6.073404560962778E-003  4.370149286585115E-003  2.666894012207948E-003
  9.636387378298180E-004 -7.396165365474846E-004  4.179842372514615E-002
  4.009516845076853E-002  3.839191317639130E-002  3.668865790201401E-002
  3.498540262763650E-002  3.328214735325878E-002  3.157889207888124E-002
  2.987563680450416E-002  2.817238153012637E-002  2.646912625574897E-002
  2.476587098137139E-002  2.306261570699400E-002  2.135936043261608E-002
  1.965610515823880E-002  1.795284988386088E-002  1.624959460948388E-002
  1.454633933510643E-002  1.284308406072850E-002  1.113982878635148E-002
  9.436573511973835E-003  7.733318237596396E-003  6.030062963218782E-003
  4.326807688841542E-003  2.623552414463715E-003  9.202971400864293E-004
 -7.829581342910367E-004  4.176190373668705E-002  4.005864846230958E-002
  3.835539318793196E-002  3.665213791355455E-002  3.494888263917717E-002
  3.324562736479955E-002  3.154237209042243E-002  2.983911681604468E-002
  2.813586154166739E-002  2.643260626728977E-002  2.472935099291262E-002
  2.302609571853487E-002  2.132284044415704E-002  1.961958516977945E-002
  1.791632989540225E-002  1.621307462102443E-002  1.450981934664705E-002
  1.280656407226963E-002  1.110330879789236E-002  9.400053523514555E-003
  7.696798249137073E-003  5.993542974759516E-003  4.290287700382015E-003
  2.587032426004809E-003  8.837771516270524E-004 -8.194781227504324E-004
  4.173283022464057E-002  4.002957495026264E-002  3.832631967588561E-002
  3.662306440150830E-002  3.491980912713061E-002  3.321655385275339E-002
  3.151329857837584E-002  2.981004330399821E-002  2.810678802962061E-002
  2.640353275524263E-002  2.470027748086534E-002  2.299702220648814E-002
  2.129376693211067E-002  1.959051165773348E-002  1.788725638335576E-002
  1.618400110897816E-002  1.448074583460059E-002  1.277749056022296E-002
  1.107423528584540E-002  9.370980011468357E-003  7.667724737090667E-003
  5.964469462712829E-003  4.261214188335757E-003  2.557958913958112E-003
  8.547036395804582E-004 -8.485516347969092E-004  4.171170064485819E-002
  4.000844537048102E-002  3.830519009610315E-002  3.660193482172538E-002