 Title = "Wing and Wake"
 VARIABLES = "X" "Y" "Z" "GAM" "skew"
 Zone I=   17 J=   20 K=1  T="Blade 01"
 DATAPACKING=BLOCK
 VARLOCATION=([4]=CELLCENTERED,[5]=CELLCENTERED)
  0.430513849156729       0.429910303135934       0.428359101540891     
  0.426024476763532       0.422821316475763       0.418619247491487     
  0.413384201101009       0.407273511463085       0.400654849541473     
  0.394046760918680       0.387962931959865       0.382762736931117     
  0.378601189324502       0.375432782772238       0.373116208866840     
  0.371472061902648       0.370337574347186       0.438573982141875     
  0.437970436121081       0.436419234526038       0.434084609748680     
  0.430881449460911       0.426679380476635       0.421444334086157     
  0.415333644448233       0.408714982526620       0.402106893903827     
  0.396023064945014       0.390822869916264       0.386661322309650     
  0.383492915757386       0.381176341851987       0.379532194887795     
  0.378397707332336       0.449972847415616       0.449369301394820     
  0.447818099799779       0.445483475022419       0.442280314734650     
  0.438078245750374       0.432843199359896       0.426732509721973     
  0.420113847800360       0.413505759177566       0.407421930218753     
  0.402221735190004       0.398060187583388       0.394891781031125     
  0.392575207125726       0.390931060161534       0.389796572606075     
  0.465886074784705       0.465282528763909       0.463731327168867     
  0.461396702391507       0.458193542103739       0.453991473119464     
  0.448756426728985       0.442645737091061       0.436027075169447     
  0.429418986546654       0.423335157587841       0.418134962559092     
  0.413973414952476       0.410805008400215       0.408488434494815     
  0.406844287530622       0.405709799975164       0.487704880984105     
  0.487101334963310       0.485550133368268       0.483215508590908     
  0.480012348303138       0.475810279318863       0.470575232928385     
  0.464464543290462       0.457845881368849       0.451237792746055     
  0.445153963787242       0.439953768758492       0.435792221151877     
  0.432623814599614       0.430307240694216       0.428663093730023     
  0.427528606174564       0.516893284434776       0.516289738413981     
  0.514738536818938       0.512403912041579       0.509200751753810     
  0.504998682769535       0.499763636379055       0.493652946741133     
  0.487034284819519       0.480426196196725       0.474342367237913     
  0.469142172209163       0.464980624602549       0.461812218050283     
  0.459495644144885       0.457851497180694       0.456717009625235     
  0.554680271533984       0.554076725513189       0.552525523918147     
  0.550190899140786       0.546987738853018       0.542785669868742     
  0.537550623478263       0.531439933840340       0.524821271918727     
  0.518213183295935       0.512129354337121       0.506929159308369     
  0.502767611701757       0.499599205149493       0.497282631244095     
  0.495638484279903       0.494503996724444       0.601574420769446     
  0.600970874748650       0.599419673153608       0.597085048376251     
  0.593881888088482       0.589679819104207       0.584444772713725     
  0.578334083075803       0.571715421154189       0.565107332531395     
  0.559023503572585       0.553823308543836       0.549661760937217     
  0.546493354384957       0.544176780479558       0.542532633515364     
  0.541398145959908       0.656811361407038       0.656207815386244     
  0.654656613791202       0.652321989013842       0.649118828726072     
  0.644916759741797       0.639681713351320       0.633571023713396     
  0.626952361791783       0.620344273168989       0.614260444210174     
  0.609060249181425       0.604898701574811       0.601730295022549     
  0.599413721117149       0.597769574152957       0.596635086597496     
  0.718012967662674       0.717409421641877       0.715858220046834     
  0.713523595269476       0.710320434981707       0.706118365997431     
  0.700883319606954       0.694772629969029       0.688153968047416     
  0.681545879424623       0.675462050465810       0.670261855437060     
  0.666100307830445       0.662931901278182       0.660615327372783     
  0.658971180408590       0.657836692853132       0.781391579173726     
  0.780788033152934       0.779236831557889       0.776902206780532     
  0.773699046492762       0.769496977508486       0.764261931118008     
  0.758151241480084       0.751532579558469       0.744924490935676     
  0.738840661976863       0.733640466948116       0.729478919341499     
  0.726310512789239       0.723993938883837       0.722349791919645     
  0.721215304364185       0.842593185429363       0.841989639408567     
  0.840438437813524       0.838103813036166       0.834900652748398     
  0.830698583764122       0.825463537373642       0.819352847735719     
  0.812734185814105       0.806126097191313       0.800042268232499     
  0.794842073203746       0.790680525597134       0.787512119044871     
  0.785195545139473       0.783551398175281       0.782416910619820     
  0.897830126066955       0.897226580046159       0.895675378451115     
  0.893340753673758       0.890137593385988       0.885935524401711     
  0.880700478011232       0.874589788373311       0.867971126451698     
  0.861363037828901       0.855279208870092       0.850079013841340     
  0.845917466234724       0.842749059682463       0.840432485777065     
  0.838788338812871       0.837653851257411       0.944724275302413     
  0.944120729281622       0.942569527686580       0.940234902909218     
  0.937031742621450       0.932829673637175       0.927594627246697     
  0.921483937608773       0.914865275687159       0.908257187064367     
  0.902173358105554       0.896973163076804       0.892811615470189     
  0.889643208917925       0.887326635012527       0.885682488048334     
  0.884548000492877       0.982511262401623       0.981907716380830     
  0.980356514785785       0.978021890008426       0.974818729720662     
  0.970616660736384       0.965381614345903       0.959270924707982     
  0.952652262786369       0.946044174163575       0.939960345204761     
  0.934760150176013       0.930598602569397       0.927430196017134     
  0.925113622111734       0.923469475147542       0.922334987592084     
   1.01169966585229        1.01109611983150        1.00954491823646     
   1.00721029345910        1.00400713317133       0.999805064187054     
  0.994570017796572       0.988459328158655       0.981840666237034     
  0.975232577614247       0.969148748655431       0.963948553626682     
  0.959787006020067       0.956618599467803       0.954302025562408     
  0.952657878598215       0.951523391042756        1.03351847205170     
   1.03291492603090        1.03136372443586        1.02902909965850     
   1.02582593937073        1.02162387038646        1.01638882399597     
   1.01027813435805        1.00365947243644       0.997051383813646     
  0.990967554854829       0.985767359826082       0.981605812219466     
  0.978437405667205       0.976120831761803       0.974476684797616     
  0.973342197242152        1.04943169942078        1.04882815339999     
   1.04727695180494        1.04494232702759        1.04173916673982     
   1.03753709775554        1.03230205136507        1.02619136172714     
   1.01957269980553        1.01296461118274        1.00688078222392     
   1.00168058719517       0.997519039588556       0.994350633036295     
  0.992034059130896       0.990389912166705       0.989255424611243     
   1.06083056469452        1.06022701867373        1.05867581707868     
   1.05634119230133        1.05313803201356        1.04893596302928     
   1.04370091663880        1.03759022700088        1.03097156507927     
   1.02436347645647        1.01827964749766        1.01307945246891     
   1.00891790486229        1.00574949831003        1.00343292440463     
   1.00178877744044        1.00065428988498        1.06889069767967     
   1.06828715165888        1.06673595006383        1.06440132528648     
   1.06119816499871        1.05699609601443        1.05176104962395     
   1.04565035998603        1.03903169806441        1.03242360944162     
   1.02633978048281        1.02113958545406        1.01697803784744     
   1.01380963129518        1.01149305738978        1.00984891042559     
   1.00871442287013     
 -6.127486936345780E-002 -6.292834912121628E-002 -6.717803406525540E-002
 -7.357399175252821E-002 -8.234939663335074E-002 -9.386142018551891E-002
 -0.108203397332824      -0.124944294089874      -0.143076835990202     
 -0.161180411192102      -0.177847720206612      -0.192094218270031     
 -0.203495229114947      -0.212175422369505      -0.218521927736048     
 -0.223026246595598      -0.226134298249904      -6.421694420134627E-002
 -6.587042395910635E-002 -7.012010890314532E-002 -7.651606659041840E-002
 -8.529147147124116E-002 -9.680349502340783E-002 -0.111145472170712     
 -0.127886368927764      -0.146018910828090      -0.164122486029992     
 -0.180789795044503      -0.195036293107920      -0.206437303952837     
 -0.215117497207395      -0.221464002573937      -0.225968321433489     
 -0.229076373087795      -6.837770864086253E-002 -7.003118839862124E-002
 -7.428087334265943E-002 -8.067683102993298E-002 -8.945223591075444E-002
 -0.100964259462924      -0.115306236610228      -0.132047133367279     
 -0.150179675267606      -0.168283250469507      -0.184950559484017     
 -0.199197057547436      -0.210598068392352      -0.219278261646909     
 -0.225624767013453      -0.230129085873002      -0.233237137527311     
 -7.418628598300843E-002 -7.583976574076752E-002 -8.008945068480580E-002
 -8.648540837207876E-002 -9.526081325290228E-002 -0.106772836805070     
 -0.121114813952374      -0.137855710709425      -0.155988252609751     
 -0.174091827811653      -0.190759136826163      -0.205005634889581     
 -0.216406645734498      -0.225086838989057      -0.231433344355598     
 -0.235937663215150      -0.239045714869456      -8.215049213572793E-002
 -8.380397189348658E-002 -8.805365683752545E-002 -9.444961452479785E-002
 -0.103225019405621      -0.114737042957789      -0.129079020105093     
 -0.145819916862144      -0.163952458762472      -0.182056033964372     
 -0.198723342978883      -0.212969841042301      -0.224370851887218     
 -0.233051045141775      -0.239397550508318      -0.243901869367868     
 -0.247009921022176      -9.280471676311697E-002 -9.445819652087625E-002
 -9.870788146491465E-002 -0.105103839152188      -0.113879244033010     
 -0.125391267585179      -0.139733244732483      -0.156474141489534     
 -0.174606683389860      -0.192710258591760      -0.209377567606272     
 -0.223624065669691      -0.235025076514607      -0.243705269769164     
 -0.250051775135706      -0.254556093995258      -0.257664145649565     
 -0.106597559157790      -0.108251038915549      -0.112500723859587     
 -0.118896681546860      -0.127672086427684      -0.139184109979850     
 -0.153526087127155      -0.170266983884205      -0.188399525784533     
 -0.206503100986435      -0.223170410000944      -0.237416908064361     
 -0.248817918909280      -0.257498112163837      -0.263844617530380     
 -0.268348936389932      -0.271456988044238      -0.123714658436936     
 -0.125368138194696      -0.129617823138734      -0.136013780826007     
 -0.144789185706830      -0.156301209258999      -0.170643186406300     
 -0.187384083163354      -0.205516625063680      -0.223620200265579     
 -0.240287509280092      -0.254534007343510      -0.265935018188425     
 -0.274615211442984      -0.280961716809527      -0.285466035669076     
 -0.288574087323385      -0.143877007305290      -0.145530487063049     
 -0.149780172007089      -0.156176129694359      -0.164951534575184     
 -0.176463558127352      -0.190805535274656      -0.207546432031707     
 -0.225678973932035      -0.243782549133934      -0.260449858148444     
 -0.274696356211861      -0.286097367056779      -0.294777560311338     
 -0.301124065677880      -0.305628384537430      -0.308736436191738     
 -0.166216552587598      -0.167870032345358      -0.172119717289396     
 -0.178515674976669      -0.187291079857492      -0.198803103409659     
 -0.213145080556965      -0.229885977314015      -0.248018519214342     
 -0.266122094416243      -0.282789403430754      -0.297035901494172     
 -0.308436912339088      -0.317117105593648      -0.323463610960187     
 -0.327967929819740      -0.331075981474048      -0.189350738900733     
 -0.191004218658495      -0.195253903602533      -0.201649861289806     
 -0.210425266170628      -0.221937289722797      -0.236279266870101     
 -0.253020163627151      -0.271152705527477      -0.289256280729379     
 -0.305923589743890      -0.320170087807308      -0.331571098652224     
 -0.340251291906783      -0.346597797273324      -0.351102116132876     
 -0.354210167787183      -0.211690284183044      -0.213343763940803     
 -0.217593448884843      -0.223989406572113      -0.232764811452938     
 -0.244276835005105      -0.258618812152409      -0.275359708909459     
 -0.293492250809788      -0.311595826011690      -0.328263135026198     
 -0.342509633089616      -0.353910643934534      -0.362590837189092     
 -0.368937342555633      -0.373441661415184      -0.376549713069493     
 -0.231852633051398      -0.233506112809156      -0.237755797753194     
 -0.244151755440468      -0.252927160321293      -0.264439183873459     
 -0.278781161020762      -0.295522057777815      -0.313654599678141     
 -0.331758174880038      -0.348425483894552      -0.362671981957969     
 -0.374072992802885      -0.382753186057444      -0.389099691423987     
 -0.393604010283536      -0.396712061937844      -0.248969732330544     
 -0.250623212088304      -0.254872897032341      -0.261268854719614     
 -0.270044259600437      -0.281556283152605      -0.295898260299911     
 -0.312639157056958      -0.330771698957288      -0.348875274159187     
 -0.365542583173699      -0.379789081237117      -0.391190092082033     
 -0.399870285336591      -0.406216790703134      -0.410721109562683     
 -0.413829161216993      -0.262762574725216      -0.264416054482975     
 -0.268665739427014      -0.275061697114287      -0.283837101995111     
 -0.295349125547279      -0.309691102694582      -0.326431999451634     
 -0.344564541351962      -0.362668116553861      -0.379335425568372     
 -0.393581923631789      -0.404982934476707      -0.413663127731266     
 -0.420009633097806      -0.424513951957357      -0.427622003611665     
 -0.273416799352604      -0.275070279110366      -0.279319964054404     
 -0.285715921741676      -0.294491326622500      -0.306003350174666     
 -0.320345327321970      -0.337086224079024      -0.355218765979346     
 -0.373322341181250      -0.389989650195761      -0.404236148259178     
 -0.415637159104095      -0.424317352358652      -0.430663857725196     
 -0.435168176584747      -0.438276228239057      -0.281381005505326     
 -0.283034485263085      -0.287284170207124      -0.293680127894395     
 -0.302455532775218      -0.313967556327389      -0.328309533474691     
 -0.345050430231742      -0.363182972132070      -0.381286547333970     
 -0.397953856348477      -0.412200354411899      -0.423601365256815     
 -0.432281558511373      -0.438628063877913      -0.443132382737468     
 -0.446240434391773      -0.287189582847473      -0.288843062605231     
 -0.293092747549269      -0.299488705236543      -0.308264110117362     
 -0.319776133669535      -0.334118110816837      -0.350859007573888     
 -0.368991549474216      -0.387095124676116      -0.403762433690627     
 -0.418008931754045      -0.429409942598961      -0.438090135853521     
 -0.444436641220061      -0.448940960079613      -0.452049011733919     
 -0.291350347286986      -0.293003827044746      -0.297253511988784     
 -0.303649469676058      -0.312424874556879      -0.323936898109049     
 -0.338278875256352      -0.355019772013402      -0.373152313913731     
 -0.391255889115631      -0.407923198130142      -0.422169696193558     
 -0.433570707038474      -0.442250900293032      -0.448597405659576     
 -0.453101724519128      -0.456209776173435      -0.294292422124876     
 -0.295945901882636      -0.300195586826674      -0.306591544513947     
 -0.315366949394771      -0.326878972946938      -0.341220950094242     
 -0.357961846851292      -0.376094388751619      -0.394197963953521     
 -0.410865272968031      -0.425111771031450      -0.436512781876364     
 -0.445192975130924      -0.451539480497465      -0.456043799357018     
 -0.459151851011325     
  0.000000000000000E+000 -2.059343134687265E-004 -5.967154644315922E-004
 -1.288783171780619E-003 -2.918895425121374E-003 -5.573396522451829E-003
 -9.167771110016921E-003 -1.357217217812317E-002 -1.838427778900438E-002
 -2.320014315178548E-002 -2.763890288787426E-002 -3.143970394449276E-002
 -3.447539076661003E-002 -3.679168976136481E-002 -3.848528426515805E-002
 -3.968682183911389E-002 -4.051708164825068E-002  0.000000000000000E+000
 -2.059343134687265E-004 -5.967154644315922E-004 -1.288783171780619E-003
 -2.918895425121374E-003 -5.573396522451829E-003 -9.167771110016921E-003
 -1.357217217812317E-002 -1.838427778900438E-002 -2.320014315178548E-002
 -2.763890288787426E-002 -3.143970394449276E-002 -3.447539076661003E-002
 -3.679168976136481E-002 -3.848528426515805E-002 -3.968682183911389E-002
 -4.051708164825068E-002  0.000000000000000E+000 -2.059343134687265E-004
 -5.967154644315922E-004 -1.288783171780619E-003 -2.918895425121374E-003
 -5.573396522451829E-003 -9.167771110016921E-003 -1.357217217812317E-002
 -1.838427778900438E-002 -2.320014315178548E-002 -2.763890288787426E-002
 -3.143970394449276E-002 -3.447539076661003E-002 -3.679168976136481E-002
 -3.848528426515805E-002 -3.968682183911389E-002 -4.051708164825068E-002
  0.000000000000000E+000 -2.059343134687265E-004 -5.967154644315922E-004
 -1.288783171780619E-003 -2.918895425121374E-003 -5.573396522451829E-003
 -9.167771110016921E-003 -1.357217217812317E-002 -1.838427778900438E-002
 -2.320014315178548E-002 -2.763890288787426E-002 -3.143970394449276E-002
 -3.447539076661003E-002 -3.679168976136481E-002 -3.848528426515805E-002
 -3.968682183911389E-002 -4.051708164825068E-002  0.000000000000000E+000
 -2.059343134687265E-004 -5.967154644315922E-004 -1.288783171780619E-003
 -2.918895425121374E-003 -5.573396522451829E-003 -9.167771110016921E-003
 -1.357217217812317E-002 -1.838427778900438E-002 -2.320014315178548E-002
 -2.763890288787426E-002 -3.143970394449276E-002 -3.447539076661003E-002
 -3.679168976136481E-002 -3.848528426515805E-002 -3.968682183911389E-002
 -4.051708164825068E-002  0.000000000000000E+000 -2.059343134687265E-004
 -5.967154644315922E-004 -1.288783171780619E-003 -2.918895425121374E-003
 -5.573396522451829E-003 -9.167771110016921E-003 -1.357217217812317E-002
 -1.838427778900438E-002 -2.320014315178548E-002 -2.763890288787426E-002
 -3.143970394449276E-002 -3.447539076661003E-002 -3.679168976136481E-002
 -3.848528426515805E-002 -3.968682183911389E-002 -4.051708164825068E-002
  0.000000000000000E+000 -2.059343134687265E-004 -5.967154644315922E-004
 -1.288783171780619E-003 -2.918895425121374E-003 -5.573396522451829E-003
 -9.167771110016921E-003 -1.357217217812317E-002 -1.838427778900438E-002
 -2.320014315178548E-002 -2.763890288787426E-002 -3.143970394449276E-002
 -3.447539076661003E-002 -3.679168976136481E-002 -3.848528426515805E-002
 -3.968682183911389E-002 -4.051708164825068E-002  0.000000000000000E+000
 -2.059343134687265E-004 -5.967154644315922E-004 -1.288783171780619E-003
 -2.918895425121374E-003 -5.573396522451829E-003 -9.167771110016921E-003
 -1.357217217812317E-002 -1.838427778900438E-002 -2.320014315178548E-002
 -2.763890288787426E-002 -3.143970394449276E-002 -3.447539076661003E-002
 -3.679168976136481E-002 -3.848528426515805E-002 -3.968682183911389E-002
 -4.051708164825068E-002  0.000000000000000E+000 -2.059343134687265E-004
 -5.967154644315922E-004 -1.288783171780619E-003 -2.918895425121374E-003
 -5.573396522451829E-003 -9.167771110016921E-003 -1.357217217812317E-002
 -1.838427778900438E-002 -2.320014315178548E-002 -2.763890288787426E-002
 -3.143970394449276E-002 -3.447539076661003E-002 -3.679168976136481E-002
 -3.848528426515805E-002 -3.968682183911389E-002 -4.051708164825068E-002
  0.000000000000000E+000 -2.059343134687265E-004 -5.967154644315922E-004
 -1.288783171780619E-003 -2.918895425121374E-003 -5.573396522451829E-003
 -9.167771110016921E-003 -1.357217217812317E-002 -1.838427778900438E-002
 -2.320014315178548E-002 -2.763890288787426E-002 -3.143970394449276E-002
 -3.447539076661003E-002 -3.679168976136481E-002 -3.848528426515805E-002
 -3.968682183911389E-002 -4.051708164825068E-002  0.000000000000000E+000
 -2.059343134687265E-004 -5.967154644315922E-004 -1.288783171780619E-003
 -2.918895425121374E-003 -5.573396522451829E-003 -9.167771110016921E-003
 -1.357217217812317E-002 -1.838427778900438E-002 -2.320014315178548E-002
 -2.763890288787426E-002 -3.143970394449276E-002 -3.447539076661003E-002
 -3.679168976136481E-002 -3.848528426515805E-002 -3.968682183911389E-002
 -4.051708164825068E-002  0.000000000000000E+000 -2.059343134687265E-004
 -5.967154644315922E-004 -1.288783171780619E-003 -2.918895425121374E-003
 -5.573396522451829E-003 -9.167771110016921E-003 -1.357217217812317E-002
 -1.838427778900438E-002 -2.320014315178548E-002 -2.763890288787426E-002
 -3.143970394449276E-002 -3.447539076661003E-002 -3.679168976136481E-002
 -3.848528426515805E-002 -3.968682183911389E-002 -4.051708164825068E-002
  0.000000000000000E+000 -2.059343134687265E-004 -5.967154644315922E-004
 -1.288783171780619E-003 -2.918895425121374E-003 -5.573396522451829E-003
 -9.167771110016921E-003 -1.357217217812317E-002 -1.838427778900438E-002
 -2.320014315178548E-002 -2.763890288787426E-002 -3.143970394449276E-002
 -3.447539076661003E-002 -3.679168976136481E-002 -3.848528426515805E-002
 -3.968682183911389E-002 -4.051708164825068E-002  0.000000000000000E+000
 -2.059343134687265E-004 -5.967154644315922E-004 -1.288783171780619E-003
 -2.918895425121374E-003 -5.573396522451829E-003 -9.167771110016921E-003
 -1.357217217812317E-002 -1.838427778900438E-002 -2.320014315178548E-002
 -2.763890288787426E-002 -3.143970394449276E-002 -3.447539076661003E-002
 -3.679168976136481E-002 -3.848528426515805E-002 -3.968682183911389E-002
 -4.051708164825068E-002  0.000000000000000E+000 -2.059343134687265E-004
 -5.967154644315922E-004 -1.288783171780619E-003 -2.918895425121374E-003
 -5.573396522451829E-003 -9.167771110016921E-003 -1.357217217812317E-002
 -1.838427778900438E-002 -2.320014315178548E-002 -2.763890288787426E-002
 -3.143970394449276E-002 -3.447539076661003E-002 -3.679168976136481E-002
 -3.848528426515805E-002 -3.968682183911389E-002 -4.051708164825068E-002
  0.000000000000000E+000 -2.059343134687265E-004 -5.967154644315922E-004
 -1.288783171780619E-003 -2.918895425121374E-003 -5.573396522451829E-003
 -9.167771110016921E-003 -1.357217217812317E-002 -1.838427778900438E-002
 -2.320014315178548E-002 -2.763890288787426E-002 -3.143970394449276E-002
 -3.447539076661003E-002 -3.679168976136481E-002 -3.848528426515805E-002
 -3.968682183911389E-002 -4.051708164825068E-002  0.000000000000000E+000
 -2.059343134687265E-004 -5.967154644315922E-004 -1.288783171780619E-003
 -2.918895425121374E-003 -5.573396522451829E-003 -9.167771110016921E-003
 -1.357217217812317E-002 -1.838427778900438E-002 -2.320014315178548E-002
 -2.763890288787426E-002 -3.143970394449276E-002 -3.447539076661003E-002
 -3.679168976136481E-002 -3.848528426515805E-002 -3.968682183911389E-002
 -4.051708164825068E-002  0.000000000000000E+000 -2.059343134687265E-004
 -5.967154644315922E-004 -1.288783171780619E-003 -2.918895425121374E-003
 -5.573396522451829E-003 -9.167771110016921E-003 -1.357217217812317E-002
 -1.838427778900438E-002 -2.320014315178548E-002 -2.763890288787426E-002
 -3.143970394449276E-002 -3.447539076661003E-002 -3.679168976136481E-002
 -3.848528426515805E-002 -3.968682183911389E-002 -4.051708164825068E-002
  0.000000000000000E+000 -2.059343134687265E-004 -5.967154644315922E-004
 -1.288783171780619E-003 -2.918895425121374E-003 -5.573396522451829E-003
 -9.167771110016921E-003 -1.357217217812317E-002 -1.838427778900438E-002
 -2.320014315178548E-002 -2.763890288787426E-002 -3.143970394449276E-002
 -3.447539076661003E-002 -3.679168976136481E-002 -3.848528426515805E-002
 -3.968682183911389E-002 -4.051708164825068E-002  0.000000000000000E+000
 -2.059343134687265E-004 -5.967154644315922E-004 -1.288783171780619E-003
 -2.918895425121374E-003 -5.573396522451829E-003 -9.167771110016921E-003
 -1.357217217812317E-002 -1.838427778900438E-002 -2.320014315178548E-002
 -2.763890288787426E-002 -3.143970394449276E-002 -3.447539076661003E-002
 -3.679168976136481E-002 -3.848528426515805E-002 -3.968682183911389E-002
 -4.051708164825068E-002
 -0.246531481798981      -0.483637104107799      -0.536598428970303     
 -0.333584886449890      -9.861451802719716E-002  9.359109378874893E-002
  0.249676045721558       0.344822003601203       0.404519586720192     
  0.438942078766081       0.454904496126366       0.455091344229235     
  0.450316846659104       0.441479803438978       0.433356101681222     
  0.429015183223608      -0.282727529422815      -0.565447936469061     
 -0.641268425434484      -0.397115382131134      -7.105648327855098E-002
  0.222133113624974       0.468208524063941       0.627353073053805     
  0.729987271282111       0.791441419250695       0.822901971001655     
  0.830841285982423       0.831004667010472       0.826361362553795     
  0.821977104044754       0.819714652058109      -0.273453204410968     
 -0.547642175066742      -0.608290134983532      -0.325834525495931     
  6.510541937582758E-002  0.440086276685568       0.767847088700287     
  0.993327553020304        1.14460472370548        1.23954591864352     
   1.29321499000822        1.31583988871095        1.32619119048984     
   1.32793395788626        1.32655669718985        1.32520105255943     
 -0.232393481680681      -0.462909926925536      -0.475607347224557     
 -0.129184015098737       0.338179795701426       0.798741323840675     
   1.21365834981140        1.51542998737268        1.72713583947026     
   1.86662322708343        1.95161811044139        1.99514115815969     
   2.01851474108777        2.02713178969601        2.02881161706667     
   2.02869220523020      -0.158760235015347      -0.310339695045039     
 -0.240063810465239       0.207055267660478       0.783331684213876     
   1.35465115140138        1.87718887068212        2.27371383814126     
   2.56286302386076        2.76102073379285        2.88740337955525     
   2.95764586658692        2.99691730313194        3.01400051285003     
   3.01997606870740        3.02186357504378      -4.676985894103741E-002
 -7.807098821295116E-002  0.116748923258636       0.710733890471573     
   1.44215831503173        2.16632636241614        2.83255313338532     
   3.35304900689668        3.74279260699561        4.01675888629776     
   4.19597381078779        4.29984038633362        4.35927346456141     
   4.38765868288108        4.39972682757005        4.40443925216207     
  0.110863455248051       0.248941439949543       0.617498064316350     
   1.41318424503903        2.35609806731807        3.28678757056178     
   4.14452816885142        4.82780890851421        5.34772205048517     
   5.71856266162494        5.96471820841559        6.11126983771579     
   6.19679827582731        6.24020155608120        6.26036812991410     
   6.26871169400146       0.319836115020104       0.682395623266360     
   1.27928512702013        2.33670916142497        3.55278621919942     
   4.74925514196029        5.85194804868299        6.74185652296177     
   7.42541117517158        7.91697656843912        8.24619449905772     
   8.44589123566005        8.56415512281259        8.62639740902156     
   8.65654842757172        8.66925339207870       0.581243244777198     
   1.22437423826655        2.10420527482071        3.48192094947513     
   5.03063443716673        6.54966202227302        7.94816825038582     
   9.08617114848564        9.96466782345790        10.5989020052100     
   11.0256956514836        11.2876262665439        11.4440526310714     
   11.5280276503722        11.5695070354328        11.5870805206203     
  0.889503150748468        1.86310267381941        3.07317901996507     
   4.81980734771391        6.74940893298071        8.63615000018093     
   10.3697935100734        11.7867540097914        12.8820664571919     
   13.6728116070527        14.2049359331276        14.5328208686563     
   14.7288567429430        14.8348744442480        14.8875960969474     
   14.9099282650132        1.23717033405161        2.58295142480479     
   4.16099919600077        6.31214209533166        8.65627303116587     
   10.9409731842954        13.0348415823340        14.7497643063734     
   16.0749568438582        17.0300259327383        17.6708561503659     
   18.0647577401034        18.2986598502650        18.4246107615630     
   18.4869703638327        18.5132406988067        1.63649499235030     
   3.40769562710360        5.39745113704813        7.98754817918761     
   10.7737867452507        13.4779084595439        15.9491737159932     
   17.9799837126754        19.5583618992863        20.7078201715942     
   21.4908548023770        21.9821752554112        22.2789610907246     
   22.4419997921838        22.5240352881779        22.5588489664748     
   2.07557744131082        4.30859387646320        6.72913861893442     
   9.75614252471667        12.9647469467946        16.0550472416722     
   18.8653123662879        21.1822152931350        23.0040654292543     
   24.3630475915922        25.3238565854265        25.9583272116721     