 Title = "Wing and Wake"
 VARIABLES = "X" "Y" "Z" "GAM" "skew"
 Zone I=   17 J=   20 K=1  T="Blade 01"
 DATAPACKING=BLOCK
 VARLOCATION=([4]=CELLCENTERED,[5]=CELLCENTERED)
  0.430513849156728       0.429910303135933       0.428359101540891     
  0.426024476763531       0.422821316475762       0.418619247491487     
  0.413384201101009       0.407273511463084       0.400654849541472     
  0.394046760918679       0.387962931959866       0.382762736931116     
  0.378601189324501       0.375432782772238       0.373116208866840     
  0.371472061902647       0.370337574347187       0.438573982141875     
  0.437970436121080       0.436419234526037       0.434084609748679     
  0.430881449460910       0.426679380476634       0.421444334086156     
  0.415333644448232       0.408714982526619       0.402106893903826     
  0.396023064945013       0.390822869916263       0.386661322309649     
  0.383492915757386       0.381176341851987       0.379532194887794     
  0.378397707332335       0.449972847415615       0.449369301394820     
  0.447818099799777       0.445483475022418       0.442280314734649     
  0.438078245750374       0.432843199359895       0.426732509721972     
  0.420113847800359       0.413505759177565       0.407421930218752     
  0.402221735190003       0.398060187583388       0.394891781031125     
  0.392575207125726       0.390931060161534       0.389796572606075     
  0.465886074784703       0.465282528763908       0.463731327168866     
  0.461396702391507       0.458193542103738       0.453991473119462     
  0.448756426728984       0.442645737091060       0.436027075169447     
  0.429418986546654       0.423335157587841       0.418134962559092     
  0.413973414952477       0.410805008400213       0.408488434494815     
  0.406844287530623       0.405709799975163       0.487704880984103     
  0.487101334963308       0.485550133368266       0.483215508590907     
  0.480012348303138       0.475810279318862       0.470575232928385     
  0.464464543290461       0.457845881368848       0.451237792746054     
  0.445153963787241       0.439953768758492       0.435792221151877     
  0.432623814599614       0.430307240694215       0.428663093730023     
  0.427528606174563       0.516893284434774       0.516289738413980     
  0.514738536818937       0.512403912041578       0.509200751753809     
  0.504998682769534       0.499763636379055       0.493652946741132     
  0.487034284819518       0.480426196196725       0.474342367237912     
  0.469142172209163       0.464980624602548       0.461812218050284     
  0.459495644144886       0.457851497180693       0.456717009625235     
  0.554680271533982       0.554076725513188       0.552525523918145     
  0.550190899140786       0.546987738853017       0.542785669868742     
  0.537550623478263       0.531439933840339       0.524821271918727     
  0.518213183295934       0.512129354337121       0.506929159308371     
  0.502767611701756       0.499599205149493       0.497282631244094     
  0.495638484279902       0.494503996724443       0.601574420769445     
  0.600970874748650       0.599419673153608       0.597085048376249     
  0.593881888088481       0.589679819104204       0.584444772713726     
  0.578334083075802       0.571715421154189       0.565107332531396     
  0.559023503572584       0.553823308543834       0.549661760937218     
  0.546493354384955       0.544176780479558       0.542532633515364     
  0.541398145959905       0.656811361407036       0.656207815386242     
  0.654656613791200       0.652321989013841       0.649118828726072     
  0.644916759741796       0.639681713351318       0.633571023713394     
  0.626952361791781       0.620344273168988       0.614260444210175     
  0.609060249181425       0.604898701574810       0.601730295022547     
  0.599413721117148       0.597769574152957       0.596635086597497     
  0.718012967662671       0.717409421641876       0.715858220046834     
  0.713523595269476       0.710320434981706       0.706118365997431     
  0.700883319606952       0.694772629969028       0.688153968047415     
  0.681545879424622       0.675462050465809       0.670261855437060     
  0.666100307830445       0.662931901278182       0.660615327372782     
  0.658971180408590       0.657836692853132       0.781391579173725     
  0.780788033152930       0.779236831557888       0.776902206780530     
  0.773699046492760       0.769496977508485       0.764261931118006     
  0.758151241480083       0.751532579558469       0.744924490935676     
  0.738840661976864       0.733640466948114       0.729478919341499     
  0.726310512789236       0.723993938883838       0.722349791919644     
  0.721215304364185       0.842593185429361       0.841989639408566     
  0.840438437813522       0.838103813036164       0.834900652748395     
  0.830698583764119       0.825463537373640       0.819352847735716     
  0.812734185814105       0.806126097191311       0.800042268232497     
  0.794842073203748       0.790680525597133       0.787512119044870     
  0.785195545139471       0.783551398175279       0.782416910619820     
  0.897830126066952       0.897226580046156       0.895675378451114     
  0.893340753673756       0.890137593385987       0.885935524401711     
  0.880700478011232       0.874589788373309       0.867971126451695     
  0.861363037828902       0.855279208870089       0.850079013841339     
  0.845917466234725       0.842749059682461       0.840432485777063     
  0.838788338812871       0.837653851257411       0.944724275302413     
  0.944120729281619       0.942569527686577       0.940234902909218     
  0.937031742621448       0.932829673637173       0.927594627246695     
  0.921483937608771       0.914865275687158       0.908257187064365     
  0.902173358105551       0.896973163076802       0.892811615470188     
  0.889643208917925       0.887326635012526       0.885682488048333     
  0.884548000492874       0.982511262401623       0.981907716380827     
  0.980356514785785       0.978021890008426       0.974818729720657     
  0.970616660736382       0.965381614345904       0.959270924707980     
  0.952652262786366       0.946044174163574       0.939960345204759     
  0.934760150176009       0.930598602569395       0.927430196017134     
  0.925113622111732       0.923469475147541       0.922334987592082     
   1.01169966585229        1.01109611983150        1.00954491823646     
   1.00721029345910        1.00400713317133       0.999805064187054     
  0.994570017796573       0.988459328158651       0.981840666237036     
  0.975232577614244       0.969148748655430       0.963948553626681     
  0.959787006020065       0.956618599467803       0.954302025562405     
  0.952657878598213       0.951523391042754        1.03351847205169     
   1.03291492603090        1.03136372443586        1.02902909965850     
   1.02582593937073        1.02162387038645        1.01638882399597     
   1.01027813435805        1.00365947243644       0.997051383813645     
  0.990967554854830       0.985767359826081       0.981605812219466     
  0.978437405667203       0.976120831761806       0.974476684797615     
  0.973342197242153        1.04943169942078        1.04882815339999     
   1.04727695180494        1.04494232702759        1.04173916673982     
   1.03753709775554        1.03230205136506        1.02619136172714     
   1.01957269980553        1.01296461118273        1.00688078222392     
   1.00168058719517       0.997519039588555       0.994350633036293     
  0.992034059130895       0.990389912166701       0.989255424611242     
   1.06083056469452        1.06022701867373        1.05867581707868     
   1.05634119230133        1.05313803201356        1.04893596302928     
   1.04370091663880        1.03759022700088        1.03097156507927     
   1.02436347645647        1.01827964749766        1.01307945246891     
   1.00891790486229        1.00574949831003        1.00343292440463     
   1.00178877744044        1.00065428988498        1.06889069767967     
   1.06828715165887        1.06673595006383        1.06440132528647     
   1.06119816499870        1.05699609601443        1.05176104962395     
   1.04565035998603        1.03903169806441        1.03242360944162     
   1.02633978048281        1.02113958545406        1.01697803784744     
   1.01380963129518        1.01149305738978        1.00984891042559     
   1.00871442287013     
 -6.127486936345535E-002 -6.292834912121430E-002 -6.717803406525283E-002
 -7.357399175252576E-002 -8.234939663334871E-002 -9.386142018551630E-002
 -0.108203397332821      -0.124944294089872      -0.143076835990199     
 -0.161180411192099      -0.177847720206610      -0.192094218270028     
 -0.203495229114945      -0.212175422369503      -0.218521927736045     
 -0.223026246595596      -0.226134298249903      -6.421694420134445E-002
 -6.587042395910343E-002 -7.012010890314263E-002 -7.651606659041531E-002
 -8.529147147123825E-002 -9.680349502340607E-002 -0.111145472170710     
 -0.127886368927761      -0.146018910828088      -0.164122486029989     
 -0.180789795044499      -0.195036293107918      -0.206437303952835     
 -0.215117497207392      -0.221464002573934      -0.225968321433486     
 -0.229076373087792      -6.837770864085969E-002 -7.003118839861865E-002
 -7.428087334265754E-002 -8.067683102993031E-002 -8.945223591075280E-002
 -0.100964259462921      -0.115306236610225      -0.132047133367276     
 -0.150179675267603      -0.168283250469504      -0.184950559484015     
 -0.199197057547433      -0.210598068392349      -0.219278261646907     
 -0.225624767013449      -0.230129085873000      -0.233237137527307     
 -7.418628598300590E-002 -7.583976574076505E-002 -8.008945068480318E-002
 -8.648540837207634E-002 -9.526081325289948E-002 -0.106772836805067     
 -0.121114813952371      -0.137855710709422      -0.155988252609749     
 -0.174091827811650      -0.190759136826161      -0.205005634889579     
 -0.216406645734495      -0.225086838989053      -0.231433344355595     
 -0.235937663215147      -0.239045714869454      -8.215049213572470E-002
 -8.380397189348369E-002 -8.805365683752252E-002 -9.444961452479571E-002
 -0.103225019405618      -0.114737042957786      -0.129079020105091     
 -0.145819916862141      -0.163952458762469      -0.182056033964369     
 -0.198723342978880      -0.212969841042298      -0.224370851887214     
 -0.233051045141773      -0.239397550508314      -0.243901869367866     
 -0.247009921022173      -9.280471676311397E-002 -9.445819652087296E-002
 -9.870788146491170E-002 -0.105103839152185      -0.113879244033007     
 -0.125391267585175      -0.139733244732479      -0.156474141489531     
 -0.174606683389858      -0.192710258591758      -0.209377567606269     
 -0.223624065669687      -0.235025076514603      -0.243705269769161     
 -0.250051775135704      -0.254556093995255      -0.257664145649562     
 -0.106597559157786      -0.108251038915546      -0.112500723859584     
 -0.118896681546857      -0.127672086427680      -0.139184109979848     
 -0.153526087127152      -0.170266983884203      -0.188399525784530     
 -0.206503100986431      -0.223170410000941      -0.237416908064359     
 -0.248817918909276      -0.257498112163834      -0.263844617530376     
 -0.268348936389927      -0.271456988044234      -0.123714658436933     
 -0.125368138194692      -0.129617823138731      -0.136013780826004     
 -0.144789185706827      -0.156301209258995      -0.170643186406299     
 -0.187384083163350      -0.205516625063677      -0.223620200265577     
 -0.240287509280088      -0.254534007343507      -0.265935018188423     
 -0.274615211442981      -0.280961716809523      -0.285466035669074     
 -0.288574087323381      -0.143877007305286      -0.145530487063045     
 -0.149780172007084      -0.156176129694357      -0.164951534575180     
 -0.176463558127347      -0.190805535274651      -0.207546432031702     
 -0.225678973932030      -0.243782549133931      -0.260449858148441     
 -0.274696356211859      -0.286097367056775      -0.294777560311334     
 -0.301124065677876      -0.305628384537427      -0.308736436191734     
 -0.166216552587594      -0.167870032345353      -0.172119717289392     
 -0.178515674976665      -0.187291079857488      -0.198803103409656     
 -0.213145080556960      -0.229885977314011      -0.248018519214338     
 -0.266122094416239      -0.282789403430750      -0.297035901494168     
 -0.308436912339084      -0.317117105593643      -0.323463610960184     
 -0.327967929819736      -0.331075981474043      -0.189350738900730     
 -0.191004218658490      -0.195253903602528      -0.201649861289801     
 -0.210425266170624      -0.221937289722791      -0.236279266870096     
 -0.253020163627147      -0.271152705527473      -0.289256280729374     
 -0.305923589743886      -0.320170087807303      -0.331571098652220     
 -0.340251291906778      -0.346597797273320      -0.351102116132871     
 -0.354210167787179      -0.211690284183039      -0.213343763940797     
 -0.217593448884836      -0.223989406572109      -0.232764811452933     
 -0.244276835005100      -0.258618812152404      -0.275359708909455     
 -0.293492250809783      -0.311595826011683      -0.328263135026194     
 -0.342509633089611      -0.353910643934528      -0.362590837189087     
 -0.368937342555629      -0.373441661415180      -0.376549713069486     
 -0.231852633051392      -0.233506112809150      -0.237755797753190     
 -0.244151755440462      -0.252927160321286      -0.264439183873453     
 -0.278781161020758      -0.295522057777808      -0.313654599678136     
 -0.331758174880036      -0.348425483894546      -0.362671981957965     
 -0.374072992802881      -0.382753186057438      -0.389099691423981     
 -0.393604010283532      -0.396712061937840      -0.248969732330538     
 -0.250623212088298      -0.254872897032336      -0.261268854719609     
 -0.270044259600432      -0.281556283152599      -0.295898260299904     
 -0.312639157056955      -0.330771698957282      -0.348875274159183     
 -0.365542583173693      -0.379789081237112      -0.391190092082028     
 -0.399870285336586      -0.406216790703128      -0.410721109562679     
 -0.413829161216986      -0.262762574725211      -0.264416054482970     
 -0.268665739427009      -0.275061697114282      -0.283837101995104     
 -0.295349125547272      -0.309691102694577      -0.326431999451628     
 -0.344564541351955      -0.362668116553856      -0.379335425568365     
 -0.393581923631783      -0.404982934476700      -0.413663127731259     
 -0.420009633097800      -0.424513951957352      -0.427622003611658     
 -0.273416799352600      -0.275070279110359      -0.279319964054398     
 -0.285715921741671      -0.294491326622494      -0.306003350174661     
 -0.320345327321965      -0.337086224079017      -0.355218765979344     
 -0.373322341181244      -0.389989650195755      -0.404236148259172     
 -0.415637159104089      -0.424317352358647      -0.430663857725190     
 -0.435168176584740      -0.438276228239049      -0.281381005505320     
 -0.283034485263078      -0.287284170207117      -0.293680127894390     
 -0.302455532775213      -0.313967556327380      -0.328309533474684     
 -0.345050430231736      -0.363182972132063      -0.381286547333963     
 -0.397953856348474      -0.412200354411892      -0.423601365256809     
 -0.432281558511366      -0.438628063877909      -0.443132382737461     
 -0.446240434391767      -0.287189582847466      -0.288843062605224     
 -0.293092747549262      -0.299488705236536      -0.308264110117359     
 -0.319776133669526      -0.334118110816832      -0.350859007573882     
 -0.368991549474209      -0.387095124676110      -0.403762433690621     
 -0.418008931754038      -0.429409942598954      -0.438090135853513     
 -0.444436641220056      -0.448940960079605      -0.452049011733913     
 -0.291350347286980      -0.293003827044739      -0.297253511988778     
 -0.303649469676051      -0.312424874556875      -0.323936898109042     
 -0.338278875256346      -0.355019772013397      -0.373152313913724     
 -0.391255889115625      -0.407923198130136      -0.422169696193553     
 -0.433570707038470      -0.442250900293028      -0.448597405659569     
 -0.453101724519121      -0.456209776173427      -0.294292422124870     
 -0.295945901882629      -0.300195586826668      -0.306591544513940     
 -0.315366949394763      -0.326878972946931      -0.341220950094236     
 -0.357961846851286      -0.376094388751614      -0.394197963953514     
 -0.410865272968024      -0.425111771031443      -0.436512781876359     
 -0.445192975130917      -0.451539480497459      -0.456043799357011     
 -0.459151851011317     
  0.000000000000000E+000 -2.059343134687265E-004 -5.967154644315922E-004
 -1.288783171780619E-003 -2.918895425121374E-003 -5.573396522451829E-003
 -9.167771110016921E-003 -1.357217217812317E-002 -1.838427778900438E-002
 -2.320014315178548E-002 -2.763890288787426E-002 -3.143970394449276E-002
 -3.447539076661003E-002 -3.679168976136481E-002 -3.848528426515805E-002
 -3.968682183911389E-002 -4.051708164825068E-002  0.000000000000000E+000
 -2.059343134687265E-004 -5.967154644315922E-004 -1.288783171780619E-003
 -2.918895425121374E-003 -5.573396522451829E-003 -9.167771110016921E-003
 -1.357217217812317E-002 -1.838427778900438E-002 -2.320014315178548E-002
 -2.763890288787426E-002 -3.143970394449276E-002 -3.447539076661003E-002
 -3.679168976136481E-002 -3.848528426515805E-002 -3.968682183911389E-002
 -4.051708164825068E-002  0.000000000000000E+000 -2.059343134687265E-004
 -5.967154644315922E-004 -1.288783171780619E-003 -2.918895425121374E-003
 -5.573396522451829E-003 -9.167771110016921E-003 -1.357217217812317E-002
 -1.838427778900438E-002 -2.320014315178548E-002 -2.763890288787426E-002
 -3.143970394449276E-002 -3.447539076661003E-002 -3.679168976136481E-002
 -3.848528426515805E-002 -3.968682183911389E-002 -4.051708164825068E-002
  0.000000000000000E+000 -2.059343134687265E-004 -5.967154644315922E-004
 -1.288783171780619E-003 -2.918895425121374E-003 -5.573396522451829E-003
 -9.167771110016921E-003 -1.357217217812317E-002 -1.838427778900438E-002
 -2.320014315178548E-002 -2.763890288787426E-002 -3.143970394449276E-002
 -3.447539076661003E-002 -3.679168976136481E-002 -3.848528426515805E-002
 -3.968682183911389E-002 -4.051708164825068E-002  0.000000000000000E+000
 -2.059343134687265E-004 -5.967154644315922E-004 -1.288783171780619E-003
 -2.918895425121374E-003 -5.573396522451829E-003 -9.167771110016921E-003
 -1.357217217812317E-002 -1.838427778900438E-002 -2.320014315178548E-002
 -2.763890288787426E-002 -3.143970394449276E-002 -3.447539076661003E-002
 -3.679168976136481E-002 -3.848528426515805E-002 -3.968682183911389E-002
 -4.051708164825068E-002  0.000000000000000E+000 -2.059343134687265E-004
 -5.967154644315922E-004 -1.288783171780619E-003 -2.918895425121374E-003
 -5.573396522451829E-003 -9.167771110016921E-003 -1.357217217812317E-002
 -1.838427778900438E-002 -2.320014315178548E-002 -2.763890288787426E-002
 -3.143970394449276E-002 -3.447539076661003E-002 -3.679168976136481E-002
 -3.848528426515805E-002 -3.968682183911389E-002 -4.051708164825068E-002
  0.000000000000000E+000 -2.059343134687265E-004 -5.967154644315922E-004
 -1.288783171780619E-003 -2.918895425121374E-003 -5.573396522451829E-003
 -9.167771110016921E-003 -1.357217217812317E-002 -1.838427778900438E-002
 -2.320014315178548E-002 -2.763890288787426E-002 -3.143970394449276E-002
 -3.447539076661003E-002 -3.679168976136481E-002 -3.848528426515805E-002
 -3.968682183911389E-002 -4.051708164825068E-002  0.000000000000000E+000
 -2.059343134687265E-004 -5.967154644315922E-004 -1.288783171780619E-003
 -2.918895425121374E-003 -5.573396522451829E-003 -9.167771110016921E-003
 -1.357217217812317E-002 -1.838427778900438E-002 -2.320014315178548E-002
 -2.763890288787426E-002 -3.143970394449276E-002 -3.447539076661003E-002
 -3.679168976136481E-002 -3.848528426515805E-002 -3.968682183911389E-002
 -4.051708164825068E-002  0.000000000000000E+000 -2.059343134687265E-004
 -5.967154644315922E-004 -1.288783171780619E-003 -2.918895425121374E-003
 -5.573396522451829E-003 -9.167771110016921E-003 -1.357217217812317E-002
 -1.838427778900438E-002 -2.320014315178548E-002 -2.763890288787426E-002
 -3.143970394449276E-002 -3.447539076661003E-002 -3.679168976136481E-002
 -3.848528426515805E-002 -3.968682183911389E-002 -4.051708164825068E-002
  0.000000000000000E+000 -2.059343134687265E-004 -5.967154644315922E-004
 -1.288783171780619E-003 -2.918895425121374E-003 -5.573396522451829E-003
 -9.167771110016921E-003 -1.357217217812317E-002 -1.838427778900438E-002
 -2.320014315178548E-002 -2.763890288787426E-002 -3.143970394449276E-002
 -3.447539076661003E-002 -3.679168976136481E-002 -3.848528426515805E-002
 -3.968682183911389E-002 -4.051708164825068E-002  0.000000000000000E+000
 -2.059343134687265E-004 -5.967154644315922E-004 -1.288783171780619E-003
 -2.918895425121374E-003 -5.573396522451829E-003 -9.167771110016921E-003
 -1.357217217812317E-002 -1.838427778900438E-002 -2.320014315178548E-002
 -2.763890288787426E-002 -3.143970394449276E-002 -3.447539076661003E-002
 -3.679168976136481E-002 -3.848528426515805E-002 -3.968682183911389E-002
 -4.051708164825068E-002  0.000000000000000E+000 -2.059343134687265E-004
 -5.967154644315922E-004 -1.288783171780619E-003 -2.918895425121374E-003
 -5.573396522451829E-003 -9.167771110016921E-003 -1.357217217812317E-002
 -1.838427778900438E-002 -2.320014315178548E-002 -2.763890288787426E-002
 -3.143970394449276E-002 -3.447539076661003E-002 -3.679168976136481E-002
 -3.848528426515805E-002 -3.968682183911389E-002 -4.051708164825068E-002
  0.000000000000000E+000 -2.059343134687265E-004 -5.967154644315922E-004
 -1.288783171780619E-003 -2.918895425121374E-003 -5.573396522451829E-003
 -9.167771110016921E-003 -1.357217217812317E-002 -1.838427778900438E-002
 -2.320014315178548E-002 -2.763890288787426E-002 -3.143970394449276E-002
 -3.447539076661003E-002 -3.679168976136481E-002 -3.848528426515805E-002
 -3.968682183911389E-002 -4.051708164825068E-002  0.000000000000000E+000
 -2.059343134687265E-004 -5.967154644315922E-004 -1.288783171780619E-003
 -2.918895425121374E-003 -5.573396522451829E-003 -9.167771110016921E-003
 -1.357217217812317E-002 -1.838427778900438E-002 -2.320014315178548E-002
 -2.763890288787426E-002 -3.143970394449276E-002 -3.447539076661003E-002
 -3.679168976136481E-002 -3.848528426515805E-002 -3.968682183911389E-002
 -4.051708164825068E-002  0.000000000000000E+000 -2.059343134687265E-004
 -5.967154644315922E-004 -1.288783171780619E-003 -2.918895425121374E-003
 -5.573396522451829E-003 -9.167771110016921E-003 -1.357217217812317E-002
 -1.838427778900438E-002 -2.320014315178548E-002 -2.763890288787426E-002
 -3.143970394449276E-002 -3.447539076661003E-002 -3.679168976136481E-002
 -3.848528426515805E-002 -3.968682183911389E-002 -4.051708164825068E-002
  0.000000000000000E+000 -2.059343134687265E-004 -5.967154644315922E-004
 -1.288783171780619E-003 -2.918895425121374E-003 -5.573396522451829E-003
 -9.167771110016921E-003 -1.357217217812317E-002 -1.838427778900438E-002
 -2.320014315178548E-002 -2.763890288787426E-002 -3.143970394449276E-002
 -3.447539076661003E-002 -3.679168976136481E-002 -3.848528426515805E-002
 -3.968682183911389E-002 -4.051708164825068E-002  0.000000000000000E+000
 -2.059343134687265E-004 -5.967154644315922E-004 -1.288783171780619E-003
 -2.918895425121374E-003 -5.573396522451829E-003 -9.167771110016921E-003
 -1.357217217812317E-002 -1.838427778900438E-002 -2.320014315178548E-002
 -2.763890288787426E-002 -3.143970394449276E-002 -3.447539076661003E-002
 -3.679168976136481E-002 -3.848528426515805E-002 -3.968682183911389E-002
 -4.051708164825068E-002  0.000000000000000E+000 -2.059343134687265E-004
 -5.967154644315922E-004 -1.288783171780619E-003 -2.918895425121374E-003
 -5.573396522451829E-003 -9.167771110016921E-003 -1.357217217812317E-002
 -1.838427778900438E-002 -2.320014315178548E-002 -2.763890288787426E-002
 -3.143970394449276E-002 -3.447539076661003E-002 -3.679168976136481E-002
 -3.848528426515805E-002 -3.968682183911389E-002 -4.051708164825068E-002
  0.000000000000000E+000 -2.059343134687265E-004 -5.967154644315922E-004
 -1.288783171780619E-003 -2.918895425121374E-003 -5.573396522451829E-003
 -9.167771110016921E-003 -1.357217217812317E-002 -1.838427778900438E-002
 -2.320014315178548E-002 -2.763890288787426E-002 -3.143970394449276E-002
 -3.447539076661003E-002 -3.679168976136481E-002 -3.848528426515805E-002
 -3.968682183911389E-002 -4.051708164825068E-002  0.000000000000000E+000
 -2.059343134687265E-004 -5.967154644315922E-004 -1.288783171780619E-003
 -2.918895425121374E-003 -5.573396522451829E-003 -9.167771110016921E-003
 -1.357217217812317E-002 -1.838427778900438E-002 -2.320014315178548E-002
 -2.763890288787426E-002 -3.143970394449276E-002 -3.447539076661003E-002
 -3.679168976136481E-002 -3.848528426515805E-002 -3.968682183911389E-002
 -4.051708164825068E-002
 -1.413679355003671E-002 -3.006385813601003E-002  8.408980217144933E-002
  0.422857343467932       0.781117710705814        1.09008394166039     
   1.35573200564703        1.55120877204213        1.69895856182304     
   1.80770716444307        1.88412986475393        1.93135980461845     
   1.96121511014108        1.97659838896171        1.98540097170537     
   1.99248258526154       2.021263701899050E-002  4.759239693508387E-002
  0.231777951431181       0.700195136636761        1.23063175214669     
   1.71475507104917        2.13824559940947        2.45907870465171     
   2.70391785499825        2.88653441190724        3.01884109939823     
   3.10934794926123        3.17665891212674        3.22580069527999     
   3.26100581206389        3.28094414891925       7.295084922935383E-002
  0.161773960548996       0.420294377840843       0.993339426803971     
   1.65815952474199        2.29176034360834        2.86009959402362     
   3.30468978542540        3.64921938716826        3.90984889855857     
   4.10272609852840        4.24003020514515        4.34176431053200     
   4.41120145388953        4.45366091391583        4.47364692637747     
  0.140678133936704       0.305627530493850       0.649455506407844     
   1.33199769214617        2.12681823481020        2.90397252657650     
   3.61720670375339        4.19194922073755        4.64452120262911     
   4.98916700007440        5.24285503424733        5.41887198509166     
   5.54004737130121        5.61492249511261        5.65617160799139     
   5.67391384522244       0.226030912058571       0.484967722236402     
  0.930786973803621        1.73973493521493        2.67690052905668     
   3.60478377288960        4.46856265447490        5.17899614439835     
   5.74340026487903        6.17093498286140        6.47830148691831     
   6.68269500466805        6.81503291267232        6.89188183829075     
   6.93204942190678        6.94867236830126       0.333900259165864     
  0.710106494217885        1.28078268467274        2.24147318492423     
   3.34360901768335        4.43883809371641        5.46355493712878     
   6.31418129775952        6.99057161915431        7.49826376121699     
   7.85621893716010        8.08810126327317        8.23370462239363     
   8.31610708790385        8.35843703088323        8.37587016411836     
  0.467580925536739       0.988102206207476        1.71081068652234     
   2.85420323766066        4.15071932556940        5.43715654127390     
   6.63956229283367        7.63953641669328        8.43215711292787     
   9.02230789401673        9.43344090440093        9.69632355989517     
   9.85913125852244        9.95037217497587        9.99700924930832     
   10.0163576071269       0.627183296829452        1.31940025136849     
   2.22201702653343        3.58033861413105        5.10284534119756     
   6.60761783865063        8.00844552556840        9.17091759264239     
   10.0873213164366        10.7643224643741        11.2316908101329     
   11.5279428256112        11.7097609451150        11.8108933603961     
   11.8623265735377        11.8838812313064       0.810427604726372     
   1.69921744647046        2.80663347857507        4.40802944320636     
   6.18381164100655        7.93007726759294        9.54662293823978     
   10.8817957267428        11.9265411865071        12.6913873118391     
   13.2142609481812        13.5424741376549        13.7418294983058     
   13.8514925696397        13.9067444773017        13.9301768298761     
   1.01385458316198        2.12011196005749        3.45192745397496     
   5.31658177810457        7.36349403225183        9.36412723804666     
   11.2026956309409        12.7097766214750        13.8769699814576     
   14.7214075683425        15.2914788951565        15.6445690112266     
   15.8560598203953        15.9704358594694        16.0271788416306     
   16.0516289747086        1.23515021030066        2.57635291640765     
   4.14556853309333        6.28158848610362        8.60150212148500     
   10.8506427998376        12.8974681519051        14.5568015463740     
   15.8244215981122        16.7276667180670        17.3277972513829     
   17.6931065723027        17.9081194692252        18.0217359184476     
   18.0768746319582        18.1011996264351        1.45878044952988     
   3.03501624806797        4.83548756483301        7.22738357482829     
   9.79607848387268        12.2613100401196        14.4775705367003     
   16.2484844414299        17.5787844982278        18.5098061124805     
   19.1172119790690        19.4797799929763        19.6893850798114     
   19.7973932429380        19.8485532063217        19.8719219320449     
   1.64898453015491        3.42213499547748        5.41104002643549     
   8.00483514504995        10.7591334352094        13.3708867144609     
   15.6851318317164        17.5019842769627        18.8413707653790     
   19.7624019534795        20.3547204784809        20.7039763359050     