 Title = "Wing and Wake"
 VARIABLES = "X" "Y" "Z" "GAM" "skew"
 Zone I=   17 J=   20 K=1  T="Blade 01"
 DATAPACKING=BLOCK
 VARLOCATION=([4]=CELLCENTERED,[5]=CELLCENTERED)
  0.430513881537019       0.429910336389996       0.428359137040675     
  0.426024515643223       0.422821359992767       0.418619297091954     
  0.413384258280412       0.407273577489119       0.400654925149544     
  0.394046846093482       0.387963025942413       0.382762838442144     
  0.378601296860328       0.375432894895063       0.373116324343439     
  0.371472179759528       0.370337693846501       0.438574016076887     
  0.437970470929864       0.436419271580543       0.434084650183092     
  0.430881494532636       0.426679431631823       0.421444392820280     
  0.415333712028988       0.408715059689413       0.402106980633350     
  0.396023160482282       0.390822972982012       0.386661431400197     
  0.383493029434932       0.381176458883308       0.379532314299397     
  0.378397828386370       0.449972883549357       0.449369338402334     
  0.447818139053014       0.445483517655562       0.442280362005105     
  0.438078299104293       0.432843260292750       0.426732579501458     
  0.420113927161883       0.413505848105820       0.407422027954751     
  0.402221840454482       0.398060298872667       0.394891896907402     
  0.392575326355778       0.390931181771867       0.389796695858840     
  0.465886113987953       0.465282568840930       0.463731369491609     
  0.461396748094157       0.458193592443701       0.453991529542888     
  0.448756490731346       0.442645809940053       0.436027157600478     
  0.429419078544416       0.423335258393347       0.418135070893078     
  0.413973529311262       0.410805127345997       0.408488556794373     
  0.406844412210463       0.405709926297435       0.487704924395988     
  0.487101379248966       0.485550179899645       0.483215558502193     
  0.480012402851737       0.475810339950924       0.470575301139382     
  0.464464620348089       0.457845968008514       0.451237888952452     
  0.445154068801383       0.439953881301114       0.435792339719298     
  0.432623937754034       0.430307367202409       0.428663222618498     
  0.427528736705471       0.516893333476819       0.516289788329796     
  0.514738588980476       0.512403967583024       0.509200811932567     
  0.504998749031755       0.499763710220212       0.493653029428920     
  0.487034377089345       0.480426298033282       0.474342477882213     
  0.469142290381944       0.464980748800129       0.461812346834864     
  0.459495776283240       0.457851631699329       0.456717145786302     
  0.554680327864770       0.554076782717747       0.552525583368426     
  0.550190961970975       0.546987806320518       0.542785743419706     
  0.537550704608163       0.531440023816870       0.524821371477296     
  0.518213292421233       0.512129472270165       0.506929284769895     
  0.502767743188079       0.499599341222815       0.497282770671190     
  0.495638626087280       0.494504140174252       0.601574486145659     
  0.600970940998635       0.599419741649314       0.597085120251863     
  0.593881964601407       0.589679901700594       0.584444862889051     
  0.578334182097759       0.571715529758184       0.565107450702121     
  0.559023630551053       0.553823443050783       0.549661901468968     
  0.546493499503703       0.544176928952079       0.542532784368168     
  0.541398298455141       0.656811437437919       0.656207892290896     
  0.654656692941576       0.652322071544124       0.649118915893668     
  0.644916852992855       0.639681814181313       0.633571133390020     
  0.626952481050445       0.620344401994382       0.614260581843314     
  0.609060394343044       0.604898852761229       0.601730450795964     
  0.599413880244340       0.597769735660429       0.596635249747402     
  0.718013055498748       0.717409510351726       0.715858311002405     
  0.713523689604953       0.710320533954497       0.706118471053685     
  0.700883432242142       0.694772751450849       0.688154099111274     
  0.681546020055212       0.675462199904143       0.670262012403874     
  0.666100470822058       0.662932068856794       0.660615498305169     
  0.658971353721259       0.657836867808231       0.781391679234921     
  0.780788134087899       0.779236934738578       0.776902313341126     
  0.773699157690670       0.769497094789857       0.764262055978314     
  0.758151375187022       0.751532722847447       0.744924643791384     
  0.738840823640316       0.733640636140047       0.729479094558232     
  0.726310692592966       0.723994122041342       0.722349977457431     
  0.721215491544404       0.842593297295751       0.841989752148728     
  0.840438552799407       0.838103931401956       0.834900775751500     
  0.830698712850686       0.825463674039144       0.819352993247851     
  0.812734340908277       0.806126261852214       0.800042441701145     
  0.794842254200876       0.790680712619060       0.787512310653795     
  0.785195740102172       0.783551595518260       0.782417109605233     
  0.897830248588013       0.897226703440989       0.895675504091668     
  0.893340882694217       0.890137727043760       0.885935664142948     
  0.880700625331405       0.874589944540113       0.867971292200537     
  0.861363213144475       0.855279392993406       0.850079205493137     
  0.845917663911321       0.842749261946056       0.840432691394433     
  0.838788546810521       0.837654060897494       0.944724406868900     
  0.944120861721877       0.942569662372556       0.940235040975104     
  0.937031885324648       0.932829822423836       0.927594783612293     
  0.921484102821001       0.914865450481426       0.908257371425363     
  0.902173551274294       0.896973363774025       0.892811822192210     
  0.889643420226945       0.887326849675321       0.885682705091410     
  0.884548219178383       0.982511401256851       0.981907856109828     
  0.980356656760508       0.978022035363056       0.974818879712600     
  0.970616816811787       0.965381778000244       0.959271097208952     
  0.952652444869377       0.946044365813315       0.939960545662245     
  0.934760358161975       0.930598816580160       0.927430414614897     
  0.925113844063271       0.923469699479360       0.922335213566333     
   1.01169981033768        1.01109626519066        1.00954506584134     
   1.00721044444389        1.00400728879343       0.999805225892618     
  0.994570187081074       0.988459506289783       0.981840853950206     
  0.975232774894144       0.969148954743075       0.963948767242807     
  0.959787225660990       0.956618823695726       0.954302253144102     
  0.952658108560191       0.951523622647164        1.03351862074572     
   1.03291507559869        1.03136387624937        1.02902925485192     
   1.02582609920147        1.02162403630065        1.01638899748911     
   1.01027831669782        1.00365966435824       0.997051585302181     
  0.990967765151112       0.985767577650842       0.981606036069027     
  0.978437634103762       0.976121063552139       0.974476918968229     
  0.973342433055200        1.04943185118431        1.04882830603729     
   1.04727710668797        1.04494248529052        1.04173932964006     
   1.03753726673925        1.03230222792771        1.02619154713641     
   1.01957289479684        1.01296481574078        1.00688099558971     
   1.00168080808944       0.997519266507622       0.994350864542358     
  0.992034293990734       0.990390149406822       0.989255663493796     
   1.06083071865678        1.06022717350976        1.05867597416044     
   1.05634135276299        1.05313819711253        1.04893613421172     
   1.04370109540018        1.03759041460888        1.03097176226931     
   1.02436368321325        1.01827986306218        1.01307967556191     
   1.00891813398009        1.00574973201483        1.00343316146320     
   1.00178901687929        1.00065453096627        1.06889085319665     
   1.06828730804963        1.06673610870031        1.06440148730286     
   1.06119833165240        1.05699626875159        1.05176122994004     
   1.04565054914875        1.03903189680918        1.03242381775311     
   1.02633999760205        1.02113981010178        1.01697826851996     
   1.01380986655470        1.01149329600307        1.00984915141916     
   1.00871466550613     
 -6.127464186088700E-002 -6.292812193758600E-002 -6.717780770134767E-002
 -7.357376662233879E-002 -8.234917319585186E-002 -9.386119896857718E-002
 -0.108203178882310      -0.124944078868517      -0.143076624266435     
 -0.161180202960339      -0.177847515189812      -0.192094016001241     
 -0.203495029045302      -0.212175223974185      -0.218521730564906     
 -0.223026050293297      -0.226134102547117      -6.421671243944498E-002
 -6.587019251614426E-002 -7.011987827990619E-002 -7.651583720089696E-002
 -8.529124377441029E-002 -9.680326954713554E-002 -0.111145249460868     
 -0.127886149447075      -0.146018694844993      -0.164122273538898     
 -0.180789585768370      -0.195036086579800      -0.206437099623861     
 -0.215117294552743      -0.221463801143464      -0.225968120871855     
 -0.229076173125675      -6.837747085529487E-002 -7.003095093199396E-002
 -7.428063669575596E-002 -8.067659561674675E-002 -8.945200219025992E-002
 -0.100964027962985      -0.115306007876718      -0.132046907862925     
 -0.150179453260843      -0.168283031954748      -0.184950344184220     
 -0.199196844995649      -0.210597858039710      -0.219278052968593     
 -0.225624559559314      -0.230128879287705      -0.233236931541525     
 -7.418603978818705E-002 -7.583951986488638E-002 -8.008920562864778E-002
 -8.648516454963882E-002 -9.526057112315228E-002 -0.106772596895877     
 -0.121114576809610      -0.137855476795817      -0.155988022193735     
 -0.174091600887640      -0.190758913117112      -0.205005413928541     
 -0.216406426972602      -0.225086621901485      -0.231433128492206     
 -0.235937448220597      -0.239045500474417      -8.215023441088268E-002
 -8.380371448758193E-002 -8.805340025134346E-002 -9.444935917233488E-002
 -0.103224765745848      -0.114736791518573      -0.129078771432306     
 -0.145819671418513      -0.163952216816431      -0.182055795510336     
 -0.198723107739808      -0.212969608551237      -0.224370621595298     
 -0.233050816524181      -0.239397323114902      -0.243901642843293     
 -0.247009695097113      -9.280444361382685E-002 -9.445792369052618E-002
 -9.870760945428783E-002 -0.105103568375279      -0.113878974948792     
 -0.125391000721517      -0.139732980635250      -0.156473880621457     
 -0.174606426019375      -0.192710004713280      -0.209377316942752     
 -0.223623817754182      -0.235024830798242      -0.243705025727125     
 -0.250051532317846      -0.254555852046237      -0.257663904300057     
 -0.106597266040182      -0.108250746116881      -0.112500431880643     
 -0.118896390801634      -0.127671797375148      -0.139183823147872     
 -0.153525803061605      -0.170266703047812      -0.188399248445730     
 -0.206502827139635      -0.223170139369108      -0.237416640180536     
 -0.248817653224598      -0.257497848153480      -0.263844354744202     
 -0.268348674472592      -0.271456726726412      -0.123714340538384     
 -0.125367820615083      -0.129617506378845      -0.136013465299836     
 -0.144788871873349      -0.156300897646074      -0.170642877559807     
 -0.187383777546014      -0.205516322943932      -0.223619901637837     
 -0.240287213867309      -0.254533714678739      -0.265934727722799     
 -0.274614922651682      -0.280961429242404      -0.285465748970794     
 -0.288573801224614      -0.143876660217091      -0.145530140293791     
 -0.149779826057552      -0.156175784978543      -0.164951191552057     
 -0.176463217324782      -0.190805197238514      -0.207546097224722     
 -0.225678642622640      -0.243782221316544      -0.260449533546017     
 -0.274696034357446      -0.286097047401506      -0.294777242330390     
 -0.301123748921111      -0.305628068649502      -0.308736120903321     
 -0.166216173157761      -0.167869653234460      -0.172119338998221     
 -0.178515297919213      -0.187290704492726      -0.198802730265451     
 -0.213144710179184      -0.229885610165391      -0.248018155563309     
 -0.266121734257214      -0.282789046486687      -0.297035547298116     
 -0.308436560342176      -0.317116755271059      -0.323463261861780     
 -0.327967581590171      -0.331075633843991      -0.189350325978832     
 -0.191003806055531      -0.195253491819293      -0.201649450740284     
 -0.210424857313797      -0.221936883086522      -0.236278863000255     
 -0.253019762986462      -0.271152308384380      -0.289255887078284     
 -0.305923199307758      -0.320169700119187      -0.331570713163247     
 -0.340250908092130      -0.346597414682852      -0.351101734411242     
 -0.354209786665062      -0.211689838919501      -0.213343318996201     
 -0.217593004759962      -0.223988963680954      -0.232764370254467     
 -0.244276396027192      -0.258618375940924      -0.275359275927131     
 -0.293491821325050      -0.311595400018954      -0.328262712248427     
 -0.342509213059856      -0.353910226103917      -0.362590421032800     
 -0.368936927623521      -0.373441247351912      -0.376549299605731     
 -0.231852158598209      -0.233505638674908      -0.237755324438670     
 -0.244151283359661      -0.252926689933174      -0.264438715705899     
 -0.278780695619632      -0.295521595605839      -0.313654141003758     
 -0.331757719697662      -0.348425031927134      -0.362671532738563     
 -0.374072545782624      -0.382752740711507      -0.389099247302228     
 -0.393603567030619      -0.396711619284439      -0.248969233096411     
 -0.250622713173110      -0.254872398936872      -0.261268357857863     
 -0.270043764431376      -0.281555790204101      -0.295897770117834     
 -0.312638670104041      -0.330771215501959      -0.348874794195864     
 -0.365542106425336      -0.379788607236765      -0.391189620280826     
 -0.399869815209709      -0.406216321800430      -0.410720641528821     
 -0.413828693782641      -0.262762055522766      -0.264415535599465     
 -0.268665221363227      -0.275061180284218      -0.283836586857731     
 -0.295348612630456      -0.309690592544189      -0.326431492530396     
 -0.344564037928315      -0.362667616622219      -0.379334928851691     
 -0.393581429663120      -0.404982442707181      -0.413662637636064     
 -0.420009144226785      -0.424513463955176      -0.427621516208995     
 -0.273416264725710      -0.275069744802410      -0.279319430566171     
 -0.285715389487162      -0.294490796060675      -0.306002821833400     
 -0.320344801747133      -0.337085701733341      -0.355218247131258     
 -0.373321825825163      -0.389989138054636      -0.404235638866065     
 -0.415636651910125      -0.424316846839008      -0.430663353429730     
 -0.435167673158120      -0.438275725411941      -0.281380459348406     
 -0.283033939425105      -0.287283625188867      -0.293679584109858     
 -0.302454990683371      -0.313967016456096      -0.328308996369828     
 -0.345049896356036      -0.363182441753954      -0.381286020447859     
 -0.397953332677331      -0.412199833488760      -0.423600846532821     
 -0.432281041461704      -0.438627548052425      -0.443131867780817     
 -0.446239920034636      -0.287189028281298      -0.288842508357997     
 -0.293092194121759      -0.299488153042750      -0.308263559616263     
 -0.319775585388988      -0.334117565302721      -0.350858465288928     
 -0.368991010686846      -0.387094589380751      -0.403761901610223     
 -0.418008402421652      -0.429409415465713      -0.438089610394596     
 -0.444436116985317      -0.448940436713708      -0.452048488967528     
 -0.291349786697148      -0.293003266773847      -0.297252952537609     
 -0.303648911458600      -0.312424318032113      -0.323936343804838     
 -0.338278323718571      -0.355019223704778      -0.373151769102696     
 -0.391255347796601      -0.407922660026074      -0.422169160837502     
 -0.433570173881563      -0.442250368810446      -0.448596875401167     
 -0.453101195129558      -0.456209247383377      -0.294291857275706     
 -0.295945337352405      -0.300195023116167      -0.306590982037158     
 -0.315366388610672      -0.326878414383396      -0.341220394297129     
 -0.357961294283336      -0.376093839681255      -0.394197418375159     
 -0.410864730604631      -0.425111231416061      -0.436512244460121     
 -0.445192439389004      -0.451538945979725      -0.456043265708117     
 -0.459151317961936     
  0.000000000000000E+000 -2.059343134687265E-004 -5.967154644315922E-004
 -1.288783171780619E-003 -2.918895425121374E-003 -5.573396522451829E-003
 -9.167771110016921E-003 -1.357217217812317E-002 -1.838427778900438E-002
 -2.320014315178548E-002 -2.763890288787426E-002 -3.143970394449276E-002
 -3.447539076661003E-002 -3.679168976136481E-002 -3.848528426515805E-002
 -3.968682183911389E-002 -4.051708164825068E-002  0.000000000000000E+000
 -2.059343134687265E-004 -5.967154644315922E-004 -1.288783171780619E-003
 -2.918895425121374E-003 -5.573396522451829E-003 -9.167771110016921E-003
 -1.357217217812317E-002 -1.838427778900438E-002 -2.320014315178548E-002
 -2.763890288787426E-002 -3.143970394449276E-002 -3.447539076661003E-002
 -3.679168976136481E-002 -3.848528426515805E-002 -3.968682183911389E-002
 -4.051708164825068E-002  0.000000000000000E+000 -2.059343134687265E-004
 -5.967154644315922E-004 -1.288783171780619E-003 -2.918895425121374E-003
 -5.573396522451829E-003 -9.167771110016921E-003 -1.357217217812317E-002
 -1.838427778900438E-002 -2.320014315178548E-002 -2.763890288787426E-002
 -3.143970394449276E-002 -3.447539076661003E-002 -3.679168976136481E-002
 -3.848528426515805E-002 -3.968682183911389E-002 -4.051708164825068E-002
  0.000000000000000E+000 -2.059343134687265E-004 -5.967154644315922E-004
 -1.288783171780619E-003 -2.918895425121374E-003 -5.573396522451829E-003
 -9.167771110016921E-003 -1.357217217812317E-002 -1.838427778900438E-002
 -2.320014315178548E-002 -2.763890288787426E-002 -3.143970394449276E-002
 -3.447539076661003E-002 -3.679168976136481E-002 -3.848528426515805E-002
 -3.968682183911389E-002 -4.051708164825068E-002  0.000000000000000E+000
 -2.059343134687265E-004 -5.967154644315922E-004 -1.288783171780619E-003
 -2.918895425121374E-003 -5.573396522451829E-003 -9.167771110016921E-003
 -1.357217217812317E-002 -1.838427778900438E-002 -2.320014315178548E-002
 -2.763890288787426E-002 -3.143970394449276E-002 -3.447539076661003E-002
 -3.679168976136481E-002 -3.848528426515805E-002 -3.968682183911389E-002
 -4.051708164825068E-002  0.000000000000000E+000 -2.059343134687265E-004
 -5.967154644315922E-004 -1.288783171780619E-003 -2.918895425121374E-003
 -5.573396522451829E-003 -9.167771110016921E-003 -1.357217217812317E-002
 -1.838427778900438E-002 -2.320014315178548E-002 -2.763890288787426E-002
 -3.143970394449276E-002 -3.447539076661003E-002 -3.679168976136481E-002
 -3.848528426515805E-002 -3.968682183911389E-002 -4.051708164825068E-002
  0.000000000000000E+000 -2.059343134687265E-004 -5.967154644315922E-004
 -1.288783171780619E-003 -2.918895425121374E-003 -5.573396522451829E-003
 -9.167771110016921E-003 -1.357217217812317E-002 -1.838427778900438E-002
 -2.320014315178548E-002 -2.763890288787426E-002 -3.143970394449276E-002
 -3.447539076661003E-002 -3.679168976136481E-002 -3.848528426515805E-002
 -3.968682183911389E-002 -4.051708164825068E-002  0.000000000000000E+000
 -2.059343134687265E-004 -5.967154644315922E-004 -1.288783171780619E-003
 -2.918895425121374E-003 -5.573396522451829E-003 -9.167771110016921E-003
 -1.357217217812317E-002 -1.838427778900438E-002 -2.320014315178548E-002
 -2.763890288787426E-002 -3.143970394449276E-002 -3.447539076661003E-002
 -3.679168976136481E-002 -3.848528426515805E-002 -3.968682183911389E-002
 -4.051708164825068E-002  0.000000000000000E+000 -2.059343134687265E-004
 -5.967154644315922E-004 -1.288783171780619E-003 -2.918895425121374E-003
 -5.573396522451829E-003 -9.167771110016921E-003 -1.357217217812317E-002
 -1.838427778900438E-002 -2.320014315178548E-002 -2.763890288787426E-002
 -3.143970394449276E-002 -3.447539076661003E-002 -3.679168976136481E-002
 -3.848528426515805E-002 -3.968682183911389E-002 -4.051708164825068E-002
  0.000000000000000E+000 -2.059343134687265E-004 -5.967154644315922E-004
 -1.288783171780619E-003 -2.918895425121374E-003 -5.573396522451829E-003
 -9.167771110016921E-003 -1.357217217812317E-002 -1.838427778900438E-002
 -2.320014315178548E-002 -2.763890288787426E-002 -3.143970394449276E-002
 -3.447539076661003E-002 -3.679168976136481E-002 -3.848528426515805E-002
 -3.968682183911389E-002 -4.051708164825068E-002  0.000000000000000E+000
 -2.059343134687265E-004 -5.967154644315922E-004 -1.288783171780619E-003
 -2.918895425121374E-003 -5.573396522451829E-003 -9.167771110016921E-003
 -1.357217217812317E-002 -1.838427778900438E-002 -2.320014315178548E-002
 -2.763890288787426E-002 -3.143970394449276E-002 -3.447539076661003E-002
 -3.679168976136481E-002 -3.848528426515805E-002 -3.968682183911389E-002
 -4.051708164825068E-002  0.000000000000000E+000 -2.059343134687265E-004
 -5.967154644315922E-004 -1.288783171780619E-003 -2.918895425121374E-003
 -5.573396522451829E-003 -9.167771110016921E-003 -1.357217217812317E-002
 -1.838427778900438E-002 -2.320014315178548E-002 -2.763890288787426E-002
 -3.143970394449276E-002 -3.447539076661003E-002 -3.679168976136481E-002
 -3.848528426515805E-002 -3.968682183911389E-002 -4.051708164825068E-002
  0.000000000000000E+000 -2.059343134687265E-004 -5.967154644315922E-004
 -1.288783171780619E-003 -2.918895425121374E-003 -5.573396522451829E-003
 -9.167771110016921E-003 -1.357217217812317E-002 -1.838427778900438E-002
 -2.320014315178548E-002 -2.763890288787426E-002 -3.143970394449276E-002
 -3.447539076661003E-002 -3.679168976136481E-002 -3.848528426515805E-002
 -3.968682183911389E-002 -4.051708164825068E-002  0.000000000000000E+000
 -2.059343134687265E-004 -5.967154644315922E-004 -1.288783171780619E-003
 -2.918895425121374E-003 -5.573396522451829E-003 -9.167771110016921E-003
 -1.357217217812317E-002 -1.838427778900438E-002 -2.320014315178548E-002
 -2.763890288787426E-002 -3.143970394449276E-002 -3.447539076661003E-002
 -3.679168976136481E-002 -3.848528426515805E-002 -3.968682183911389E-002
 -4.051708164825068E-002  0.000000000000000E+000 -2.059343134687265E-004
 -5.967154644315922E-004 -1.288783171780619E-003 -2.918895425121374E-003
 -5.573396522451829E-003 -9.167771110016921E-003 -1.357217217812317E-002
 -1.838427778900438E-002 -2.320014315178548E-002 -2.763890288787426E-002
 -3.143970394449276E-002 -3.447539076661003E-002 -3.679168976136481E-002
 -3.848528426515805E-002 -3.968682183911389E-002 -4.051708164825068E-002
  0.000000000000000E+000 -2.059343134687265E-004 -5.967154644315922E-004
 -1.288783171780619E-003 -2.918895425121374E-003 -5.573396522451829E-003
 -9.167771110016921E-003 -1.357217217812317E-002 -1.838427778900438E-002
 -2.320014315178548E-002 -2.763890288787426E-002 -3.143970394449276E-002
 -3.447539076661003E-002 -3.679168976136481E-002 -3.848528426515805E-002
 -3.968682183911389E-002 -4.051708164825068E-002  0.000000000000000E+000
 -2.059343134687265E-004 -5.967154644315922E-004 -1.288783171780619E-003
 -2.918895425121374E-003 -5.573396522451829E-003 -9.167771110016921E-003
 -1.357217217812317E-002 -1.838427778900438E-002 -2.320014315178548E-002
 -2.763890288787426E-002 -3.143970394449276E-002 -3.447539076661003E-002
 -3.679168976136481E-002 -3.848528426515805E-002 -3.968682183911389E-002
 -4.051708164825068E-002  0.000000000000000E+000 -2.059343134687265E-004
 -5.967154644315922E-004 -1.288783171780619E-003 -2.918895425121374E-003
 -5.573396522451829E-003 -9.167771110016921E-003 -1.357217217812317E-002
 -1.838427778900438E-002 -2.320014315178548E-002 -2.763890288787426E-002
 -3.143970394449276E-002 -3.447539076661003E-002 -3.679168976136481E-002
 -3.848528426515805E-002 -3.968682183911389E-002 -4.051708164825068E-002
  0.000000000000000E+000 -2.059343134687265E-004 -5.967154644315922E-004
 -1.288783171780619E-003 -2.918895425121374E-003 -5.573396522451829E-003
 -9.167771110016921E-003 -1.357217217812317E-002 -1.838427778900438E-002
 -2.320014315178548E-002 -2.763890288787426E-002 -3.143970394449276E-002
 -3.447539076661003E-002 -3.679168976136481E-002 -3.848528426515805E-002
 -3.968682183911389E-002 -4.051708164825068E-002  0.000000000000000E+000
 -2.059343134687265E-004 -5.967154644315922E-004 -1.288783171780619E-003
 -2.918895425121374E-003 -5.573396522451829E-003 -9.167771110016921E-003
 -1.357217217812317E-002 -1.838427778900438E-002 -2.320014315178548E-002
 -2.763890288787426E-002 -3.143970394449276E-002 -3.447539076661003E-002
 -3.679168976136481E-002 -3.848528426515805E-002 -3.968682183911389E-002
 -4.051708164825068E-002
  0.513349060901591       0.989668839293481        1.46100273207898     
   2.07637850714720        2.67212811476420        3.18377085003773     
   3.59747282852268        3.87761697804837        4.08244097262943     
   4.25008252650158        4.38710013262714        4.49000165164598     
   4.56626811759480        4.61775453983719        4.65406262342637     
   4.68039973602005       0.667514995320925        1.34973812499636     
   2.06992217838601        2.98716886023375        3.91207712449100     
   4.73991692817291        5.43338823455592        5.93533145527229     
   6.31158720016354        6.61638727723472        6.86568515662393     
   7.06335780044820        7.22584397261221        7.35640162725198     
   7.45380654348801        7.50869641100730       0.733180537049596     
   1.51313591550596        2.37777242928957        3.50162906185140     
   4.68413280401588        5.79771480094833        6.78505515286440     
   7.56255915650104        8.16543664411786        8.64436335941109     
   9.02638890074500        9.32416183610697        9.55634158473454     
   9.72351605217153        9.82934958473502        9.87926683265919     
  0.733444550962959        1.53539961671787        2.46952528627610     
   3.72916138174253        5.10968543866473        6.47944188984245     
   7.77891125865204        8.89957104839217        9.80378562138770     
   10.5009126071832        11.0254545735035        11.4039732697382     
   11.6696404925175        11.8403993365493        11.9378795053885     
   11.9795626710377       0.761085304666466        1.60227643791259     
   2.60425467187924        3.98235263079442        5.52859755610755     
   7.11449412176573        8.68279338247555        10.1066561840249     
   11.3010737403738        12.2164768887039        12.8766325220555     
   13.3253443419976        13.6200476080875        13.7987926802639     
   13.8962835389497        13.9362540515409       0.912478123766813     
   1.91505646126367        3.08029901451164        4.64775875373021     
   6.39700142901164        8.18675350669126        9.94244579158335     
   11.5215321658253        12.8569157017933        13.8986826692377     
   14.6523378005607        15.1580934650123        15.4833447438283     
   15.6765992402655        15.7802558672877        15.8222202199061     
   1.12226268345192        2.34742216250043        3.73131497493759     
   5.53856511282592        7.52636311184162        9.53036741757018     
   11.4570706480041        13.1519598927729        14.5645194776551     
   15.6632319940177        16.4593293481367        16.9934705201862     
   17.3362380947385        17.5392117289432        17.6478187685949     
   17.6917718619634        1.31547919133794        2.74646291658970     
   4.33805878588380        6.38150396947461        8.60725594082032     
   10.8272617185147        12.9317950180184        14.7524283681625     
   16.2457315387489        17.3933343377596        18.2183953894807     
   18.7690432649480        19.1215945390861        19.3300620148235     
   19.4416324060376        19.4868705784438        1.46510469642983     
   3.05568792224944        4.81559949067412        7.06273761128780     
   9.49719424760623        11.9076103009389        14.1705418050847     
   16.1035839219228        17.6680003993766        18.8554167933889     
   19.7004031660520        20.2596733943014        20.6161956467710     
   20.8263377882904        20.9386865894244        20.9843423654939     
   1.55114677853574        3.23310030043885        5.09925757173712     
   7.49141280279688        10.0757560297996        12.6181460882934     
   14.9844572799309        16.9811109448227        18.5762123571437     
   19.7718022217341        20.6132062564270        21.1646302322658     
   21.5143421484642        21.7195203509150        21.8289742266291     
   21.8736296687802        1.55171538312016        3.23311001425748     
   5.11944111961180        7.57056313288433        10.2160703582209     
   12.8002755767590        15.1821335600757        17.1618485535843     
   18.7188155360089        19.8679794477814        20.6655873246496     
   21.1816063155041        21.5067677635654        21.6962643309016     
   21.7970057727742        21.8384504989615        1.45691021165137     
   3.03514690176184        4.84407230568333        7.25352830880128     
   9.85482521890887        12.3722271671216        14.6613470088050     
   16.5221345102135        17.9512062511540        18.9807339996163     
   19.6791599335712        20.1208314450018        20.3957566282219     
   20.5538161543935        20.6372452778481        20.6722170813841     
   1.29245378657439        2.69206873260128        4.34924878857667     
   6.63543205464830        9.10219783661362        11.4535448484880     
   13.5432904622102        15.1771164489320        16.3766073257885     
   17.1986682315696        17.7280257219894        18.0436709411129     