 Title = "Wing and Wake"
 VARIABLES = "X" "Y" "Z" "GAM" "skew"
 Zone I=   17 J=   20 K=1  T="Blade 01"
 DATAPACKING=BLOCK
 VARLOCATION=([4]=CELLCENTERED,[5]=CELLCENTERED)
  0.430513849156728       0.429910303135933       0.428359101540890     
  0.426024476763531       0.422821316475762       0.418619247491487     
  0.413384201101008       0.407273511463084       0.400654849541472     
  0.394046760918679       0.387962931959865       0.382762736931116     
  0.378601189324501       0.375432782772237       0.373116208866839     
  0.371472061902647       0.370337574347187       0.438573982141875     
  0.437970436121080       0.436419234526037       0.434084609748679     
  0.430881449460910       0.426679380476635       0.421444334086156     
  0.415333644448232       0.408714982526619       0.402106893903826     
  0.396023064945013       0.390822869916263       0.386661322309649     
  0.383492915757385       0.381176341851987       0.379532194887794     
  0.378397707332335       0.449972847415615       0.449369301394820     
  0.447818099799777       0.445483475022418       0.442280314734649     
  0.438078245750374       0.432843199359895       0.426732509721971     
  0.420113847800359       0.413505759177565       0.407421930218752     
  0.402221735190003       0.398060187583388       0.394891781031125     
  0.392575207125725       0.390931060161533       0.389796572606075     
  0.465886074784703       0.465282528763908       0.463731327168866     
  0.461396702391507       0.458193542103738       0.453991473119462     
  0.448756426728984       0.442645737091060       0.436027075169447     
  0.429418986546653       0.423335157587840       0.418134962559091     
  0.413973414952476       0.410805008400213       0.408488434494814     
  0.406844287530622       0.405709799975163       0.487704880984104     
  0.487101334963309       0.485550133368267       0.483215508590907     
  0.480012348303138       0.475810279318862       0.470575232928385     
  0.464464543290461       0.457845881368848       0.451237792746054     
  0.445153963787241       0.439953768758492       0.435792221151877     
  0.432623814599614       0.430307240694215       0.428663093730022     
  0.427528606174563       0.516893284434775       0.516289738413980     
  0.514738536818937       0.512403912041578       0.509200751753809     
  0.504998682769534       0.499763636379054       0.493652946741132     
  0.487034284819518       0.480426196196725       0.474342367237911     
  0.469142172209163       0.464980624602548       0.461812218050284     
  0.459495644144886       0.457851497180693       0.456717009625234     
  0.554680271533982       0.554076725513188       0.552525523918146     
  0.550190899140786       0.546987738853017       0.542785669868741     
  0.537550623478263       0.531439933840340       0.524821271918727     
  0.518213183295933       0.512129354337121       0.506929159308370     
  0.502767611701756       0.499599205149493       0.497282631244093     
  0.495638484279902       0.494503996724442       0.601574420769445     
  0.600970874748650       0.599419673153607       0.597085048376249     
  0.593881888088481       0.589679819104205       0.584444772713725     
  0.578334083075802       0.571715421154189       0.565107332531395     
  0.559023503572583       0.553823308543833       0.549661760937218     
  0.546493354384955       0.544176780479557       0.542532633515364     
  0.541398145959906       0.656811361407036       0.656207815386243     
  0.654656613791200       0.652321989013840       0.649118828726071     
  0.644916759741795       0.639681713351318       0.633571023713394     
  0.626952361791781       0.620344273168988       0.614260444210174     
  0.609060249181425       0.604898701574810       0.601730295022547     
  0.599413721117147       0.597769574152956       0.596635086597496     
  0.718012967662671       0.717409421641876       0.715858220046833     
  0.713523595269475       0.710320434981706       0.706118365997430     
  0.700883319606952       0.694772629969028       0.688153968047415     
  0.681545879424622       0.675462050465808       0.670261855437059     
  0.666100307830444       0.662931901278181       0.660615327372782     
  0.658971180408589       0.657836692853131       0.781391579173725     
  0.780788033152931       0.779236831557887       0.776902206780530     
  0.773699046492760       0.769496977508485       0.764261931118006     
  0.758151241480082       0.751532579558469       0.744924490935675     
  0.738840661976863       0.733640466948114       0.729478919341499     
  0.726310512789236       0.723993938883837       0.722349791919644     
  0.721215304364184       0.842593185429361       0.841989639408565     
  0.840438437813523       0.838103813036164       0.834900652748395     
  0.830698583764119       0.825463537373640       0.819352847735716     
  0.812734185814104       0.806126097191311       0.800042268232497     
  0.794842073203746       0.790680525597132       0.787512119044869     
  0.785195545139471       0.783551398175279       0.782416910619819     
  0.897830126066953       0.897226580046157       0.895675378451113     
  0.893340753673756       0.890137593385987       0.885935524401710     
  0.880700478011232       0.874589788373309       0.867971126451695     
  0.861363037828901       0.855279208870089       0.850079013841338     
  0.845917466234724       0.842749059682461       0.840432485777063     
  0.838788338812870       0.837653851257410       0.944724275302412     
  0.944120729281619       0.942569527686576       0.940234902909217     
  0.937031742621448       0.932829673637173       0.927594627246694     
  0.921483937608771       0.914865275687158       0.908257187064365     
  0.902173358105551       0.896973163076801       0.892811615470187     
  0.889643208917924       0.887326635012525       0.885682488048333     
  0.884548000492874       0.982511262401622       0.981907716380827     
  0.980356514785784       0.978021890008426       0.974818729720658     
  0.970616660736382       0.965381614345903       0.959270924707979     
  0.952652262786366       0.946044174163573       0.939960345204759     
  0.934760150176010       0.930598602569395       0.927430196017133     
  0.925113622111732       0.923469475147541       0.922334987592082     
   1.01169966585229        1.01109611983150        1.00954491823646     
   1.00721029345910        1.00400713317133       0.999805064187053     
  0.994570017796573       0.988459328158652       0.981840666237034     
  0.975232577614244       0.969148748655430       0.963948553626680     
  0.959787006020064       0.956618599467802       0.954302025562405     
  0.952657878598212       0.951523391042754        1.03351847205170     
   1.03291492603090        1.03136372443586        1.02902909965850     
   1.02582593937073        1.02162387038645        1.01638882399597     
   1.01027813435805        1.00365947243644       0.997051383813644     
  0.990967554854830       0.985767359826081       0.981605812219465     
  0.978437405667202       0.976120831761805       0.974476684797614     
  0.973342197242152        1.04943169942078        1.04882815339999     
   1.04727695180494        1.04494232702759        1.04173916673982     
   1.03753709775554        1.03230205136506        1.02619136172714     
   1.01957269980553        1.01296461118273        1.00688078222392     
   1.00168058719517       0.997519039588554       0.994350633036294     
  0.992034059130894       0.990389912166701       0.989255424611241     
   1.06083056469452        1.06022701867372        1.05867581707868     
   1.05634119230133        1.05313803201356        1.04893596302928     
   1.04370091663880        1.03759022700088        1.03097156507927     
   1.02436347645647        1.01827964749766        1.01307945246891     
   1.00891790486229        1.00574949831003        1.00343292440463     
   1.00178877744044        1.00065428988498        1.06889069767967     
   1.06828715165888        1.06673595006383        1.06440132528647     
   1.06119816499870        1.05699609601443        1.05176104962395     
   1.04565035998602        1.03903169806441        1.03242360944162     
   1.02633978048281        1.02113958545406        1.01697803784744     
   1.01380963129518        1.01149305738978        1.00984891042559     
   1.00871442287013     
 -6.127486936345681E-002 -6.292834912121553E-002 -6.717803406525429E-002
 -7.357399175252712E-002 -8.234939663334997E-002 -9.386142018551769E-002
 -0.108203397332822      -0.124944294089873      -0.143076835990200     
 -0.161180411192101      -0.177847720206611      -0.192094218270030     
 -0.203495229114946      -0.212175422369504      -0.218521927736046     
 -0.223026246595597      -0.226134298249904      -6.421694420134551E-002
 -6.587042395910508E-002 -7.012010890314414E-002 -7.651606659041682E-002
 -8.529147147123982E-002 -9.680349502340717E-002 -0.111145472170711     
 -0.127886368927763      -0.146018910828089      -0.164122486029991     
 -0.180789795044501      -0.195036293107919      -0.206437303952836     
 -0.215117497207394      -0.221464002573936      -0.225968321433487     
 -0.229076373087793      -6.837770864086111E-002 -7.003118839862017E-002
 -7.428087334265887E-002 -8.067683102993183E-002 -8.945223591075395E-002
 -0.100964259462922      -0.115306236610227      -0.132047133367278     
 -0.150179675267605      -0.168283250469505      -0.184950559484016     
 -0.199197057547434      -0.210598068392351      -0.219278261646908     
 -0.225624767013451      -0.230129085873002      -0.233237137527309     
 -7.418628598300742E-002 -7.583976574076656E-002 -8.008945068480471E-002
 -8.648540837207774E-002 -9.526081325290107E-002 -0.106772836805068     
 -0.121114813952373      -0.137855710709424      -0.155988252609751     
 -0.174091827811651      -0.190759136826162      -0.205005634889580     
 -0.216406645734497      -0.225086838989055      -0.231433344355596     
 -0.235937663215148      -0.239045714869455      -8.215049213572653E-002
 -8.380397189348540E-002 -8.805365683752410E-002 -9.444961452479698E-002
 -0.103225019405620      -0.114737042957788      -0.129079020105092     
 -0.145819916862143      -0.163952458762470      -0.182056033964371     
 -0.198723342978881      -0.212969841042300      -0.224370851887216     
 -0.233051045141774      -0.239397550508316      -0.243901869367867     
 -0.247009921022174      -9.280471676311562E-002 -9.445819652087484E-002
 -9.870788146491345E-002 -0.105103839152186      -0.113879244033009     
 -0.125391267585177      -0.139733244732481      -0.156474141489532     
 -0.174606683389859      -0.192710258591760      -0.209377567606270     
 -0.223624065669689      -0.235025076514605      -0.243705269769163     
 -0.250051775135705      -0.254556093995256      -0.257664145649563     
 -0.106597559157788      -0.108251038915547      -0.112500723859586     
 -0.118896681546859      -0.127672086427682      -0.139184109979849     
 -0.153526087127154      -0.170266983884204      -0.188399525784531     
 -0.206503100986433      -0.223170410000943      -0.237416908064360     
 -0.248817918909278      -0.257498112163836      -0.263844617530377     
 -0.268348936389929      -0.271456988044236      -0.123714658436935     
 -0.125368138194694      -0.129617823138733      -0.136013780826006     
 -0.144789185706829      -0.156301209258997      -0.170643186406300     
 -0.187384083163352      -0.205516625063679      -0.223620200265579     
 -0.240287509280090      -0.254534007343509      -0.265935018188425     
 -0.274615211442983      -0.280961716809525      -0.285466035669075     
 -0.288574087323383      -0.143877007305288      -0.145530487063047     
 -0.149780172007086      -0.156176129694358      -0.164951534575182     
 -0.176463558127349      -0.190805535274654      -0.207546432031705     
 -0.225678973932032      -0.243782549133933      -0.260449858148443     
 -0.274696356211861      -0.286097367056777      -0.294777560311335     
 -0.301124065677877      -0.305628384537429      -0.308736436191736     
 -0.166216552587596      -0.167870032345355      -0.172119717289394     
 -0.178515674976667      -0.187291079857490      -0.198803103409658     
 -0.213145080556963      -0.229885977314013      -0.248018519214340     
 -0.266122094416241      -0.282789403430752      -0.297035901494170     
 -0.308436912339086      -0.317117105593645      -0.323463610960186     
 -0.327967929819738      -0.331075981474045      -0.189350738900732     
 -0.191004218658492      -0.195253903602531      -0.201649861289804     
 -0.210425266170626      -0.221937289722794      -0.236279266870098     
 -0.253020163627149      -0.271152705527476      -0.289256280729377     
 -0.305923589743888      -0.320170087807306      -0.331571098652222     
 -0.340251291906781      -0.346597797273323      -0.351102116132873     
 -0.354210167787181      -0.211690284183041      -0.213343763940800     
 -0.217593448884840      -0.223989406572111      -0.232764811452935     
 -0.244276835005103      -0.258618812152407      -0.275359708909458     
 -0.293492250809785      -0.311595826011687      -0.328263135026196     
 -0.342509633089614      -0.353910643934531      -0.362590837189089     
 -0.368937342555631      -0.373441661415182      -0.376549713069489     
 -0.231852633051395      -0.233506112809153      -0.237755797753192     
 -0.244151755440465      -0.252927160321289      -0.264439183873456     
 -0.278781161020761      -0.295522057777811      -0.313654599678139     
 -0.331758174880038      -0.348425483894550      -0.362671981957967     
 -0.374072992802884      -0.382753186057441      -0.389099691423984     
 -0.393604010283535      -0.396712061937842      -0.248969732330541     
 -0.250623212088301      -0.254872897032339      -0.261268854719612     
 -0.270044259600435      -0.281556283152602      -0.295898260299907     
 -0.312639157056958      -0.330771698957285      -0.348875274159186     
 -0.365542583173696      -0.379789081237114      -0.391190092082031     
 -0.399870285336589      -0.406216790703131      -0.410721109562682     
 -0.413829161216990      -0.262762574725213      -0.264416054482973     
 -0.268665739427012      -0.275061697114285      -0.283837101995107     
 -0.295349125547276      -0.309691102694580      -0.326431999451631     
 -0.344564541351959      -0.362668116553859      -0.379335425568369     
 -0.393581923631787      -0.404982934476703      -0.413663127731262     
 -0.420009633097803      -0.424513951957355      -0.427622003611661     
 -0.273416799352602      -0.275070279110362      -0.279319964054402     
 -0.285715921741674      -0.294491326622497      -0.306003350174664     
 -0.320345327321969      -0.337086224079021      -0.355218765979346     
 -0.373322341181247      -0.389989650195758      -0.404236148259176     
 -0.415637159104092      -0.424317352358650      -0.430663857725193     
 -0.435168176584744      -0.438276228239053      -0.281381005505323     
 -0.283034485263082      -0.287284170207121      -0.293680127894393     
 -0.302455532775216      -0.313967556327384      -0.328309533474687     
 -0.345050430231740      -0.363182972132067      -0.381286547333967     
 -0.397953856348477      -0.412200354411896      -0.423601365256812     
 -0.432281558511370      -0.438628063877911      -0.443132382737464     
 -0.446240434391771      -0.287189582847469      -0.288843062605227     
 -0.293092747549266      -0.299488705236541      -0.308264110117361     
 -0.319776133669531      -0.334118110816834      -0.350859007573885     
 -0.368991549474212      -0.387095124676114      -0.403762433690624     
 -0.418008931754042      -0.429409942598958      -0.438090135853517     
 -0.444436641220059      -0.448940960079609      -0.452049011733917     
 -0.291350347286983      -0.293003827044742      -0.297253511988781     
 -0.303649469676055      -0.312424874556878      -0.323936898109045     
 -0.338278875256349      -0.355019772013401      -0.373152313913728     
 -0.391255889115629      -0.407923198130139      -0.422169696193555     
 -0.433570707038473      -0.442250900293031      -0.448597405659573     
 -0.453101724519124      -0.456209776173431      -0.294292422124873     
 -0.295945901882632      -0.300195586826672      -0.306591544513944     
 -0.315366949394767      -0.326878972946935      -0.341220950094239     
 -0.357961846851290      -0.376094388751617      -0.394197963953517     
 -0.410865272968028      -0.425111771031447      -0.436512781876363     
 -0.445192975130920      -0.451539480497462      -0.456043799357015     
 -0.459151851011321     
  0.000000000000000E+000 -2.059343134687265E-004 -5.967154644315922E-004
 -1.288783171780619E-003 -2.918895425121374E-003 -5.573396522451829E-003
 -9.167771110016921E-003 -1.357217217812317E-002 -1.838427778900438E-002
 -2.320014315178548E-002 -2.763890288787426E-002 -3.143970394449276E-002
 -3.447539076661003E-002 -3.679168976136481E-002 -3.848528426515805E-002
 -3.968682183911389E-002 -4.051708164825068E-002  0.000000000000000E+000
 -2.059343134687265E-004 -5.967154644315922E-004 -1.288783171780619E-003
 -2.918895425121374E-003 -5.573396522451829E-003 -9.167771110016921E-003
 -1.357217217812317E-002 -1.838427778900438E-002 -2.320014315178548E-002
 -2.763890288787426E-002 -3.143970394449276E-002 -3.447539076661003E-002
 -3.679168976136481E-002 -3.848528426515805E-002 -3.968682183911389E-002
 -4.051708164825068E-002  0.000000000000000E+000 -2.059343134687265E-004
 -5.967154644315922E-004 -1.288783171780619E-003 -2.918895425121374E-003
 -5.573396522451829E-003 -9.167771110016921E-003 -1.357217217812317E-002
 -1.838427778900438E-002 -2.320014315178548E-002 -2.763890288787426E-002
 -3.143970394449276E-002 -3.447539076661003E-002 -3.679168976136481E-002
 -3.848528426515805E-002 -3.968682183911389E-002 -4.051708164825068E-002
  0.000000000000000E+000 -2.059343134687265E-004 -5.967154644315922E-004
 -1.288783171780619E-003 -2.918895425121374E-003 -5.573396522451829E-003
 -9.167771110016921E-003 -1.357217217812317E-002 -1.838427778900438E-002
 -2.320014315178548E-002 -2.763890288787426E-002 -3.143970394449276E-002
 -3.447539076661003E-002 -3.679168976136481E-002 -3.848528426515805E-002
 -3.968682183911389E-002 -4.051708164825068E-002  0.000000000000000E+000
 -2.059343134687265E-004 -5.967154644315922E-004 -1.288783171780619E-003
 -2.918895425121374E-003 -5.573396522451829E-003 -9.167771110016921E-003
 -1.357217217812317E-002 -1.838427778900438E-002 -2.320014315178548E-002
 -2.763890288787426E-002 -3.143970394449276E-002 -3.447539076661003E-002
 -3.679168976136481E-002 -3.848528426515805E-002 -3.968682183911389E-002
 -4.051708164825068E-002  0.000000000000000E+000 -2.059343134687265E-004
 -5.967154644315922E-004 -1.288783171780619E-003 -2.918895425121374E-003
 -5.573396522451829E-003 -9.167771110016921E-003 -1.357217217812317E-002
 -1.838427778900438E-002 -2.320014315178548E-002 -2.763890288787426E-002
 -3.143970394449276E-002 -3.447539076661003E-002 -3.679168976136481E-002
 -3.848528426515805E-002 -3.968682183911389E-002 -4.051708164825068E-002
  0.000000000000000E+000 -2.059343134687265E-004 -5.967154644315922E-004
 -1.288783171780619E-003 -2.918895425121374E-003 -5.573396522451829E-003
 -9.167771110016921E-003 -1.357217217812317E-002 -1.838427778900438E-002
 -2.320014315178548E-002 -2.763890288787426E-002 -3.143970394449276E-002
 -3.447539076661003E-002 -3.679168976136481E-002 -3.848528426515805E-002
 -3.968682183911389E-002 -4.051708164825068E-002  0.000000000000000E+000
 -2.059343134687265E-004 -5.967154644315922E-004 -1.288783171780619E-003
 -2.918895425121374E-003 -5.573396522451829E-003 -9.167771110016921E-003
 -1.357217217812317E-002 -1.838427778900438E-002 -2.320014315178548E-002
 -2.763890288787426E-002 -3.143970394449276E-002 -3.447539076661003E-002
 -3.679168976136481E-002 -3.848528426515805E-002 -3.968682183911389E-002
 -4.051708164825068E-002  0.000000000000000E+000 -2.059343134687265E-004
 -5.967154644315922E-004 -1.288783171780619E-003 -2.918895425121374E-003
 -5.573396522451829E-003 -9.167771110016921E-003 -1.357217217812317E-002
 -1.838427778900438E-002 -2.320014315178548E-002 -2.763890288787426E-002
 -3.143970394449276E-002 -3.447539076661003E-002 -3.679168976136481E-002
 -3.848528426515805E-002 -3.968682183911389E-002 -4.051708164825068E-002
  0.000000000000000E+000 -2.059343134687265E-004 -5.967154644315922E-004
 -1.288783171780619E-003 -2.918895425121374E-003 -5.573396522451829E-003
 -9.167771110016921E-003 -1.357217217812317E-002 -1.838427778900438E-002
 -2.320014315178548E-002 -2.763890288787426E-002 -3.143970394449276E-002
 -3.447539076661003E-002 -3.679168976136481E-002 -3.848528426515805E-002
 -3.968682183911389E-002 -4.051708164825068E-002  0.000000000000000E+000
 -2.059343134687265E-004 -5.967154644315922E-004 -1.288783171780619E-003
 -2.918895425121374E-003 -5.573396522451829E-003 -9.167771110016921E-003
 -1.357217217812317E-002 -1.838427778900438E-002 -2.320014315178548E-002
 -2.763890288787426E-002 -3.143970394449276E-002 -3.447539076661003E-002
 -3.679168976136481E-002 -3.848528426515805E-002 -3.968682183911389E-002
 -4.051708164825068E-002  0.000000000000000E+000 -2.059343134687265E-004
 -5.967154644315922E-004 -1.288783171780619E-003 -2.918895425121374E-003
 -5.573396522451829E-003 -9.167771110016921E-003 -1.357217217812317E-002
 -1.838427778900438E-002 -2.320014315178548E-002 -2.763890288787426E-002
 -3.143970394449276E-002 -3.447539076661003E-002 -3.679168976136481E-002
 -3.848528426515805E-002 -3.968682183911389E-002 -4.051708164825068E-002
  0.000000000000000E+000 -2.059343134687265E-004 -5.967154644315922E-004
 -1.288783171780619E-003 -2.918895425121374E-003 -5.573396522451829E-003
 -9.167771110016921E-003 -1.357217217812317E-002 -1.838427778900438E-002
 -2.320014315178548E-002 -2.763890288787426E-002 -3.143970394449276E-002
 -3.447539076661003E-002 -3.679168976136481E-002 -3.848528426515805E-002
 -3.968682183911389E-002 -4.051708164825068E-002  0.000000000000000E+000
 -2.059343134687265E-004 -5.967154644315922E-004 -1.288783171780619E-003
 -2.918895425121374E-003 -5.573396522451829E-003 -9.167771110016921E-003
 -1.357217217812317E-002 -1.838427778900438E-002 -2.320014315178548E-002
 -2.763890288787426E-002 -3.143970394449276E-002 -3.447539076661003E-002
 -3.679168976136481E-002 -3.848528426515805E-002 -3.968682183911389E-002
 -4.051708164825068E-002  0.000000000000000E+000 -2.059343134687265E-004
 -5.967154644315922E-004 -1.288783171780619E-003 -2.918895425121374E-003
 -5.573396522451829E-003 -9.167771110016921E-003 -1.357217217812317E-002
 -1.838427778900438E-002 -2.320014315178548E-002 -2.763890288787426E-002
 -3.143970394449276E-002 -3.447539076661003E-002 -3.679168976136481E-002
 -3.848528426515805E-002 -3.968682183911389E-002 -4.051708164825068E-002
  0.000000000000000E+000 -2.059343134687265E-004 -5.967154644315922E-004
 -1.288783171780619E-003 -2.918895425121374E-003 -5.573396522451829E-003
 -9.167771110016921E-003 -1.357217217812317E-002 -1.838427778900438E-002
 -2.320014315178548E-002 -2.763890288787426E-002 -3.143970394449276E-002
 -3.447539076661003E-002 -3.679168976136481E-002 -3.848528426515805E-002
 -3.968682183911389E-002 -4.051708164825068E-002  0.000000000000000E+000
 -2.059343134687265E-004 -5.967154644315922E-004 -1.288783171780619E-003
 -2.918895425121374E-003 -5.573396522451829E-003 -9.167771110016921E-003
 -1.357217217812317E-002 -1.838427778900438E-002 -2.320014315178548E-002
 -2.763890288787426E-002 -3.143970394449276E-002 -3.447539076661003E-002
 -3.679168976136481E-002 -3.848528426515805E-002 -3.968682183911389E-002
 -4.051708164825068E-002  0.000000000000000E+000 -2.059343134687265E-004
 -5.967154644315922E-004 -1.288783171780619E-003 -2.918895425121374E-003
 -5.573396522451829E-003 -9.167771110016921E-003 -1.357217217812317E-002
 -1.838427778900438E-002 -2.320014315178548E-002 -2.763890288787426E-002
 -3.143970394449276E-002 -3.447539076661003E-002 -3.679168976136481E-002
 -3.848528426515805E-002 -3.968682183911389E-002 -4.051708164825068E-002
  0.000000000000000E+000 -2.059343134687265E-004 -5.967154644315922E-004
 -1.288783171780619E-003 -2.918895425121374E-003 -5.573396522451829E-003
 -9.167771110016921E-003 -1.357217217812317E-002 -1.838427778900438E-002
 -2.320014315178548E-002 -2.763890288787426E-002 -3.143970394449276E-002
 -3.447539076661003E-002 -3.679168976136481E-002 -3.848528426515805E-002
 -3.968682183911389E-002 -4.051708164825068E-002  0.000000000000000E+000
 -2.059343134687265E-004 -5.967154644315922E-004 -1.288783171780619E-003
 -2.918895425121374E-003 -5.573396522451829E-003 -9.167771110016921E-003
 -1.357217217812317E-002 -1.838427778900438E-002 -2.320014315178548E-002
 -2.763890288787426E-002 -3.143970394449276E-002 -3.447539076661003E-002
 -3.679168976136481E-002 -3.848528426515805E-002 -3.968682183911389E-002
 -4.051708164825068E-002
 -0.195850117994254      -0.384460980613554      -0.400407110922266     
 -0.166888763226023       9.647553748741866E-002  0.316474407815702     
  0.499772627649324       0.621227183402129       0.705569472811165     
  0.762288001413131       0.797543158623599       0.813428318231389     
  0.820507240039948       0.819987853640810       0.817462780020204     
  0.816575228215292      -0.216195405764905      -0.430528012657369     
 -0.448554188034841      -0.153933233523151       0.219138463464668     
  0.557636046998703       0.847562583069075        1.04879360505047     
   1.19079633392961        1.28801903886352        1.35088116765574     
   1.38528561059328        1.40693405860715        1.41903344859389     
   1.42651575738661        1.43064712316822      -0.196678475742357     
 -0.390129041020080      -0.379319373468519      -3.112004236774262E-002
  0.422961930652500       0.859247650493169        1.24621371274953     
   1.52826482824697        1.73236389173306        1.87534609704322     
   1.97136340696986        2.02978353700145        2.06874435688608     
   2.09146647136721        2.10347672735705        2.10849602243886     
 -0.148752083085783      -0.290334409199669      -0.222394845409224     
  0.200739901401237       0.744055413858968        1.27983977409265     
   1.76802376905345        2.13979044325657        2.41655189620363     
   2.61459181306069        2.75010814091516        2.83464745669659     
   2.88883406062307        2.91846889735096        2.93269555115704     
   2.93817119703885      -7.133703543218500E-002 -0.129387733140051     
  2.689180224230695E-002  0.557541046954146        1.21831616005815     
   1.87488686319266        2.48140177872660        2.95817856052247     
   3.32106996178335        3.58392081441713        3.76386010612863     
   3.87531416434810        3.94388189988771        3.98003611119914     
   3.99697719104758        4.00355184550437       4.103379700431409E-002
  0.103973495108677       0.386132996927667        1.06595432913798     
   1.88525326464107        2.69900973355647        3.45398634938797     
   4.05895113830818        4.52506832772289        4.86417225496279     
   5.09540475565971        5.23786840149741        5.32391910769884     
   5.36922591681008        5.39082729107019        5.39952154180491     
  0.194906086984384       0.423293792885590       0.875823125693845     
   1.75446045906927        2.78264537028992        3.80048200179225     
   4.74447842658390        5.50928410906670        6.10189174165639     
   6.53353885563478        6.82724518693371        7.00843210369755     
   7.11747968296665        7.17560985381349        7.20395319689824     
   7.21568806990990       0.394946655620017       0.838204380435324     
   1.51014392711257        2.64174244316892        3.93399565776029     
   5.20810354852377        6.38724920079614        7.34881077834702     
   8.09554002327803        8.63928619755053        9.00882546682114     
   9.23756268178093        9.37527821742050        9.44947241082235     
   9.48613817821806        9.50156760357353       0.640658418598586     
   1.34756819588680        2.28658004758036        3.72257712547284     
   5.33087405185305        6.91024876584072        8.36769227880418     
   9.56042304300728        10.4867742726067        11.1603257254151     
   11.6174044039481        11.9010132338235        12.0717282597712     
   12.1642289597445        12.2102169048459        12.2297363733419     
  0.925395864904552        1.93737960570783        3.18265391917182     
   4.96325759505657        6.92690017227482        8.84735380970102     
   10.6131861393973        12.0596787945684        13.1810888069424     
   13.9941467334031        14.5444779225282        14.8860911287270     
   15.0914118802266        15.2029166680802        15.2584723732919     
   15.2821474058460        1.24007736190791        2.58825432439722     
   4.16675582511657        6.31563619428267        8.65464389041576     
   10.9312298490853        13.0145955043690        14.7186271870859     
   16.0353780382933        16.9868948561476        17.6295044158441     
   18.0286900710990        18.2686205643635        18.3993192409918     
   18.4646231997583        18.4925272661605        1.57551985788706     
   3.27951316792068        5.20282250436813        7.72140434493332     
   10.4280843049283        13.0445016248543        15.4224958284172     
   17.3597910941677        18.8516430943622        19.9290433614250     
   20.6592659663407        21.1170320521286        21.3951738570837     
   21.5488816223460        21.6267024078992        21.6603185056643     
   1.88734537403331        3.91749655282091        6.14706983770023     
   8.98134107596145        11.9879445126909        14.8662533022657     
   17.4575197681810        19.5541460681197        21.1634217952959     
   22.3294337497357        23.1285634181030        23.6394249558046     