 Title = "Wing and Wake"
 VARIABLES = "X" "Y" "Z" "GAM" "skew"
 Zone I=   17 J=   20 K=1  T="Blade 01"
 DATAPACKING=BLOCK
 VARLOCATION=([4]=CELLCENTERED,[5]=CELLCENTERED)
  0.430513849156729       0.429910303135934       0.428359101540891     
  0.426024476763532       0.422821316475763       0.418619247491487     
  0.413384201101009       0.407273511463085       0.400654849541472     
  0.394046760918680       0.387962931959865       0.382762736931116     
  0.378601189324502       0.375432782772238       0.373116208866840     
  0.371472061902647       0.370337574347186       0.438573982141875     
  0.437970436121081       0.436419234526038       0.434084609748680     
  0.430881449460910       0.426679380476635       0.421444334086157     
  0.415333644448233       0.408714982526619       0.402106893903826     
  0.396023064945013       0.390822869916264       0.386661322309649     
  0.383492915757386       0.381176341851987       0.379532194887795     
  0.378397707332335       0.449972847415615       0.449369301394820     
  0.447818099799778       0.445483475022418       0.442280314734649     
  0.438078245750374       0.432843199359895       0.426732509721972     
  0.420113847800359       0.413505759177566       0.407421930218752     
  0.402221735190004       0.398060187583388       0.394891781031125     
  0.392575207125726       0.390931060161534       0.389796572606075     
  0.465886074784704       0.465282528763909       0.463731327168866     
  0.461396702391507       0.458193542103739       0.453991473119463     
  0.448756426728985       0.442645737091061       0.436027075169447     
  0.429418986546653       0.423335157587841       0.418134962559092     
  0.413973414952477       0.410805008400214       0.408488434494814     
  0.406844287530622       0.405709799975163       0.487704880984105     
  0.487101334963309       0.485550133368267       0.483215508590908     
  0.480012348303138       0.475810279318863       0.470575232928385     
  0.464464543290462       0.457845881368849       0.451237792746055     
  0.445153963787242       0.439953768758492       0.435792221151877     
  0.432623814599614       0.430307240694216       0.428663093730023     
  0.427528606174564       0.516893284434776       0.516289738413981     
  0.514738536818937       0.512403912041579       0.509200751753810     
  0.504998682769534       0.499763636379055       0.493652946741133     
  0.487034284819519       0.480426196196725       0.474342367237912     
  0.469142172209163       0.464980624602549       0.461812218050283     
  0.459495644144885       0.457851497180694       0.456717009625235     
  0.554680271533983       0.554076725513189       0.552525523918146     
  0.550190899140786       0.546987738853018       0.542785669868742     
  0.537550623478263       0.531439933840340       0.524821271918727     
  0.518213183295935       0.512129354337121       0.506929159308370     
  0.502767611701757       0.499599205149493       0.497282631244094     
  0.495638484279903       0.494503996724443       0.601574420769445     
  0.600970874748650       0.599419673153608       0.597085048376251     
  0.593881888088482       0.589679819104206       0.584444772713725     
  0.578334083075803       0.571715421154189       0.565107332531395     
  0.559023503572584       0.553823308543835       0.549661760937218     
  0.546493354384956       0.544176780479558       0.542532633515364     
  0.541398145959907       0.656811361407037       0.656207815386244     
  0.654656613791201       0.652321989013842       0.649118828726072     
  0.644916759741796       0.639681713351319       0.633571023713395     
  0.626952361791783       0.620344273168989       0.614260444210174     
  0.609060249181425       0.604898701574811       0.601730295022548     
  0.599413721117148       0.597769574152957       0.596635086597496     
  0.718012967662673       0.717409421641877       0.715858220046834     
  0.713523595269476       0.710320434981706       0.706118365997431     
  0.700883319606953       0.694772629969029       0.688153968047416     
  0.681545879424623       0.675462050465810       0.670261855437059     
  0.666100307830445       0.662931901278182       0.660615327372783     
  0.658971180408589       0.657836692853132       0.781391579173726     
  0.780788033152933       0.779236831557889       0.776902206780532     
  0.773699046492761       0.769496977508486       0.764261931118007     
  0.758151241480083       0.751532579558469       0.744924490935675     
  0.738840661976863       0.733640466948115       0.729478919341499     
  0.726310512789238       0.723993938883837       0.722349791919645     
  0.721215304364185       0.842593185429363       0.841989639408566     
  0.840438437813524       0.838103813036165       0.834900652748397     
  0.830698583764121       0.825463537373641       0.819352847735718     
  0.812734185814105       0.806126097191313       0.800042268232498     
  0.794842073203747       0.790680525597133       0.787512119044871     
  0.785195545139472       0.783551398175280       0.782416910619820     
  0.897830126066955       0.897226580046158       0.895675378451114     
  0.893340753673757       0.890137593385988       0.885935524401711     
  0.880700478011231       0.874589788373310       0.867971126451697     
  0.861363037828901       0.855279208870091       0.850079013841340     
  0.845917466234724       0.842749059682462       0.840432485777064     
  0.838788338812871       0.837653851257411       0.944724275302413     
  0.944120729281620       0.942569527686578       0.940234902909217     
  0.937031742621449       0.932829673637174       0.927594627246696     
  0.921483937608772       0.914865275687159       0.908257187064366     
  0.902173358105553       0.896973163076803       0.892811615470189     
  0.889643208917925       0.887326635012526       0.885682488048334     
  0.884548000492876       0.982511262401622       0.981907716380829     
  0.980356514785785       0.978021890008426       0.974818729720660     
  0.970616660736383       0.965381614345903       0.959270924707981     
  0.952652262786368       0.946044174163574       0.939960345204760     
  0.934760150176012       0.930598602569397       0.927430196017134     
  0.925113622111733       0.923469475147542       0.922334987592084     
   1.01169966585229        1.01109611983150        1.00954491823646     
   1.00721029345910        1.00400713317133       0.999805064187054     
  0.994570017796573       0.988459328158654       0.981840666237034     
  0.975232577614245       0.969148748655431       0.963948553626681     
  0.959787006020066       0.956618599467802       0.954302025562407     
  0.952657878598214       0.951523391042755        1.03351847205170     
   1.03291492603090        1.03136372443586        1.02902909965850     
   1.02582593937073        1.02162387038646        1.01638882399597     
   1.01027813435805        1.00365947243644       0.997051383813646     
  0.990967554854829       0.985767359826082       0.981605812219466     
  0.978437405667205       0.976120831761804       0.974476684797616     
  0.973342197242153        1.04943169942078        1.04882815339999     
   1.04727695180494        1.04494232702759        1.04173916673982     
   1.03753709775554        1.03230205136506        1.02619136172714     
   1.01957269980553        1.01296461118273        1.00688078222392     
   1.00168058719517       0.997519039588555       0.994350633036295     
  0.992034059130896       0.990389912166704       0.989255424611243     
   1.06083056469452        1.06022701867373        1.05867581707868     
   1.05634119230133        1.05313803201356        1.04893596302928     
   1.04370091663880        1.03759022700088        1.03097156507927     
   1.02436347645647        1.01827964749766        1.01307945246891     
   1.00891790486229        1.00574949831003        1.00343292440463     
   1.00178877744044        1.00065428988498        1.06889069767967     
   1.06828715165888        1.06673595006383        1.06440132528648     
   1.06119816499870        1.05699609601443        1.05176104962395     
   1.04565035998603        1.03903169806441        1.03242360944162     
   1.02633978048281        1.02113958545406        1.01697803784744     
   1.01380963129518        1.01149305738978        1.00984891042559     
   1.00871442287013     
 -6.127486936345741E-002 -6.292834912121628E-002 -6.717803406525492E-002
 -7.357399175252777E-002 -8.234939663335060E-002 -9.386142018551850E-002
 -0.108203397332823      -0.124944294089874      -0.143076835990201     
 -0.161180411192102      -0.177847720206612      -0.192094218270030     
 -0.203495229114946      -0.212175422369505      -0.218521927736047     
 -0.223026246595598      -0.226134298249904      -6.421694420134599E-002
 -6.587042395910603E-002 -7.012010890314502E-002 -7.651606659041792E-002
 -8.529147147124062E-002 -9.680349502340757E-002 -0.111145472170712     
 -0.127886368927764      -0.146018910828090      -0.164122486029991     
 -0.180789795044502      -0.195036293107920      -0.206437303952837     
 -0.215117497207395      -0.221464002573937      -0.225968321433488     
 -0.229076373087794      -6.837770864086204E-002 -7.003118839862096E-002
 -7.428087334265931E-002 -8.067683102993266E-002 -8.945223591075414E-002
 -0.100964259462923      -0.115306236610227      -0.132047133367279     
 -0.150179675267605      -0.168283250469506      -0.184950559484017     
 -0.199197057547435      -0.210598068392351      -0.219278261646909     
 -0.225624767013452      -0.230129085873002      -0.233237137527310     
 -7.418628598300807E-002 -7.583976574076724E-002 -8.008945068480544E-002
 -8.648540837207838E-002 -9.526081325290188E-002 -0.106772836805069     
 -0.121114813952373      -0.137855710709424      -0.155988252609751     
 -0.174091827811652      -0.190759136826163      -0.205005634889581     
 -0.216406645734498      -0.225086838989056      -0.231433344355597     
 -0.235937663215149      -0.239045714869455      -8.215049213572752E-002
 -8.380397189348614E-002 -8.805365683752497E-002 -9.444961452479771E-002
 -0.103225019405621      -0.114737042957788      -0.129079020105093     
 -0.145819916862144      -0.163952458762471      -0.182056033964372     
 -0.198723342978883      -0.212969841042301      -0.224370851887217     
 -0.233051045141775      -0.239397550508317      -0.243901869367868     
 -0.247009921022175      -9.280471676311655E-002 -9.445819652087592E-002
 -9.870788146491408E-002 -0.105103839152187      -0.113879244033009     
 -0.125391267585178      -0.139733244732482      -0.156474141489533     
 -0.174606683389860      -0.192710258591760      -0.209377567606271     
 -0.223624065669690      -0.235025076514606      -0.243705269769163     
 -0.250051775135706      -0.254556093995257      -0.257664145649565     
 -0.106597559157789      -0.108251038915549      -0.112500723859586     
 -0.118896681546860      -0.127672086427684      -0.139184109979850     
 -0.153526087127155      -0.170266983884205      -0.188399525784532     
 -0.206503100986434      -0.223170410000944      -0.237416908064361     
 -0.248817918909280      -0.257498112163836      -0.263844617530379     
 -0.268348936389931      -0.271456988044237      -0.123714658436935     
 -0.125368138194695      -0.129617823138734      -0.136013780826007     
 -0.144789185706830      -0.156301209258999      -0.170643186406300     
 -0.187384083163353      -0.205516625063679      -0.223620200265579     
 -0.240287509280091      -0.254534007343510      -0.265935018188425     
 -0.274615211442984      -0.280961716809526      -0.285466035669076     
 -0.288574087323384      -0.143877007305289      -0.145530487063048     
 -0.149780172007088      -0.156176129694359      -0.164951534575183     
 -0.176463558127351      -0.190805535274655      -0.207546432031706     
 -0.225678973932034      -0.243782549133934      -0.260449858148444     
 -0.274696356211861      -0.286097367056778      -0.294777560311337     
 -0.301124065677879      -0.305628384537430      -0.308736436191737     
 -0.166216552587597      -0.167870032345357      -0.172119717289395     
 -0.178515674976668      -0.187291079857492      -0.198803103409659     
 -0.213145080556964      -0.229885977314015      -0.248018519214341     
 -0.266122094416242      -0.282789403430753      -0.297035901494171     
 -0.308436912339087      -0.317117105593647      -0.323463610960187     
 -0.327967929819739      -0.331075981474047      -0.189350738900733     
 -0.191004218658494      -0.195253903602532      -0.201649861289805     
 -0.210425266170627      -0.221937289722796      -0.236279266870100     
 -0.253020163627150      -0.271152705527476      -0.289256280729378     
 -0.305923589743889      -0.320170087807307      -0.331571098652223     
 -0.340251291906782      -0.346597797273324      -0.351102116132875     
 -0.354210167787183      -0.211690284183043      -0.213343763940801     
 -0.217593448884842      -0.223989406572112      -0.232764811452937     
 -0.244276835005104      -0.258618812152408      -0.275359708909459     
 -0.293492250809787      -0.311595826011689      -0.328263135026198     
 -0.342509633089615      -0.353910643934533      -0.362590837189091     
 -0.368937342555633      -0.373441661415184      -0.376549713069492     
 -0.231852633051397      -0.233506112809155      -0.237755797753194     
 -0.244151755440467      -0.252927160321292      -0.264439183873458     
 -0.278781161020761      -0.295522057777814      -0.313654599678140     
 -0.331758174880038      -0.348425483894552      -0.362671981957969     
 -0.374072992802885      -0.382753186057443      -0.389099691423985     
 -0.393604010283536      -0.396712061937844      -0.248969732330543     
 -0.250623212088303      -0.254872897032340      -0.261268854719613     
 -0.270044259600436      -0.281556283152604      -0.295898260299910     
 -0.312639157056958      -0.330771698957287      -0.348875274159186     
 -0.365542583173698      -0.379789081237116      -0.391190092082032     
 -0.399870285336590      -0.406216790703132      -0.410721109562683     
 -0.413829161216991      -0.262762574725215      -0.264416054482974     
 -0.268665739427013      -0.275061697114286      -0.283837101995109     
 -0.295349125547278      -0.309691102694581      -0.326431999451633     
 -0.344564541351961      -0.362668116553860      -0.379335425568371     
 -0.393581923631788      -0.404982934476706      -0.413663127731265     
 -0.420009633097805      -0.424513951957356      -0.427622003611664     
 -0.273416799352603      -0.275070279110364      -0.279319964054403     
 -0.285715921741675      -0.294491326622499      -0.306003350174665     
 -0.320345327321970      -0.337086224079023      -0.355218765979346     
 -0.373322341181249      -0.389989650195760      -0.404236148259177     
 -0.415637159104094      -0.424317352358651      -0.430663857725195     
 -0.435168176584746      -0.438276228239056      -0.281381005505325     
 -0.283034485263084      -0.287284170207123      -0.293680127894395     
 -0.302455532775217      -0.313967556327387      -0.328309533474690     
 -0.345050430231740      -0.363182972132068      -0.381286547333969     
 -0.397953856348477      -0.412200354411897      -0.423601365256814     
 -0.432281558511372      -0.438628063877912      -0.443132382737466     
 -0.446240434391772      -0.287189582847471      -0.288843062605229     
 -0.293092747549268      -0.299488705236543      -0.308264110117362     
 -0.319776133669533      -0.334118110816836      -0.350859007573887     
 -0.368991549474215      -0.387095124676115      -0.403762433690626     
 -0.418008931754044      -0.429409942598959      -0.438090135853519     
 -0.444436641220061      -0.448940960079612      -0.452049011733918     
 -0.291350347286985      -0.293003827044745      -0.297253511988783     
 -0.303649469676057      -0.312424874556879      -0.323936898109047     
 -0.338278875256351      -0.355019772013402      -0.373152313913730     
 -0.391255889115631      -0.407923198130141      -0.422169696193557     
 -0.433570707038474      -0.442250900293032      -0.448597405659575     
 -0.453101724519126      -0.456209776173433      -0.294292422124875     
 -0.295945901882635      -0.300195586826673      -0.306591544513945     
 -0.315366949394770      -0.326878972946937      -0.341220950094241     
 -0.357961846851291      -0.376094388751618      -0.394197963953520     
 -0.410865272968030      -0.425111771031449      -0.436512781876364     
 -0.445192975130923      -0.451539480497464      -0.456043799357017     
 -0.459151851011324     
  0.000000000000000E+000 -2.059343134687265E-004 -5.967154644315922E-004
 -1.288783171780619E-003 -2.918895425121374E-003 -5.573396522451829E-003
 -9.167771110016921E-003 -1.357217217812317E-002 -1.838427778900438E-002
 -2.320014315178548E-002 -2.763890288787426E-002 -3.143970394449276E-002
 -3.447539076661003E-002 -3.679168976136481E-002 -3.848528426515805E-002
 -3.968682183911389E-002 -4.051708164825068E-002  0.000000000000000E+000
 -2.059343134687265E-004 -5.967154644315922E-004 -1.288783171780619E-003
 -2.918895425121374E-003 -5.573396522451829E-003 -9.167771110016921E-003
 -1.357217217812317E-002 -1.838427778900438E-002 -2.320014315178548E-002
 -2.763890288787426E-002 -3.143970394449276E-002 -3.447539076661003E-002
 -3.679168976136481E-002 -3.848528426515805E-002 -3.968682183911389E-002
 -4.051708164825068E-002  0.000000000000000E+000 -2.059343134687265E-004
 -5.967154644315922E-004 -1.288783171780619E-003 -2.918895425121374E-003
 -5.573396522451829E-003 -9.167771110016921E-003 -1.357217217812317E-002
 -1.838427778900438E-002 -2.320014315178548E-002 -2.763890288787426E-002
 -3.143970394449276E-002 -3.447539076661003E-002 -3.679168976136481E-002
 -3.848528426515805E-002 -3.968682183911389E-002 -4.051708164825068E-002
  0.000000000000000E+000 -2.059343134687265E-004 -5.967154644315922E-004
 -1.288783171780619E-003 -2.918895425121374E-003 -5.573396522451829E-003
 -9.167771110016921E-003 -1.357217217812317E-002 -1.838427778900438E-002
 -2.320014315178548E-002 -2.763890288787426E-002 -3.143970394449276E-002
 -3.447539076661003E-002 -3.679168976136481E-002 -3.848528426515805E-002
 -3.968682183911389E-002 -4.051708164825068E-002  0.000000000000000E+000
 -2.059343134687265E-004 -5.967154644315922E-004 -1.288783171780619E-003
 -2.918895425121374E-003 -5.573396522451829E-003 -9.167771110016921E-003
 -1.357217217812317E-002 -1.838427778900438E-002 -2.320014315178548E-002
 -2.763890288787426E-002 -3.143970394449276E-002 -3.447539076661003E-002
 -3.679168976136481E-002 -3.848528426515805E-002 -3.968682183911389E-002
 -4.051708164825068E-002  0.000000000000000E+000 -2.059343134687265E-004
 -5.967154644315922E-004 -1.288783171780619E-003 -2.918895425121374E-003
 -5.573396522451829E-003 -9.167771110016921E-003 -1.357217217812317E-002
 -1.838427778900438E-002 -2.320014315178548E-002 -2.763890288787426E-002
 -3.143970394449276E-002 -3.447539076661003E-002 -3.679168976136481E-002
 -3.848528426515805E-002 -3.968682183911389E-002 -4.051708164825068E-002
  0.000000000000000E+000 -2.059343134687265E-004 -5.967154644315922E-004
 -1.288783171780619E-003 -2.918895425121374E-003 -5.573396522451829E-003
 -9.167771110016921E-003 -1.357217217812317E-002 -1.838427778900438E-002
 -2.320014315178548E-002 -2.763890288787426E-002 -3.143970394449276E-002
 -3.447539076661003E-002 -3.679168976136481E-002 -3.848528426515805E-002
 -3.968682183911389E-002 -4.051708164825068E-002  0.000000000000000E+000
 -2.059343134687265E-004 -5.967154644315922E-004 -1.288783171780619E-003
 -2.918895425121374E-003 -5.573396522451829E-003 -9.167771110016921E-003
 -1.357217217812317E-002 -1.838427778900438E-002 -2.320014315178548E-002
 -2.763890288787426E-002 -3.143970394449276E-002 -3.447539076661003E-002
 -3.679168976136481E-002 -3.848528426515805E-002 -3.968682183911389E-002
 -4.051708164825068E-002  0.000000000000000E+000 -2.059343134687265E-004
 -5.967154644315922E-004 -1.288783171780619E-003 -2.918895425121374E-003
 -5.573396522451829E-003 -9.167771110016921E-003 -1.357217217812317E-002
 -1.838427778900438E-002 -2.320014315178548E-002 -2.763890288787426E-002
 -3.143970394449276E-002 -3.447539076661003E-002 -3.679168976136481E-002
 -3.848528426515805E-002 -3.968682183911389E-002 -4.051708164825068E-002
  0.000000000000000E+000 -2.059343134687265E-004 -5.967154644315922E-004
 -1.288783171780619E-003 -2.918895425121374E-003 -5.573396522451829E-003
 -9.167771110016921E-003 -1.357217217812317E-002 -1.838427778900438E-002
 -2.320014315178548E-002 -2.763890288787426E-002 -3.143970394449276E-002
 -3.447539076661003E-002 -3.679168976136481E-002 -3.848528426515805E-002
 -3.968682183911389E-002 -4.051708164825068E-002  0.000000000000000E+000
 -2.059343134687265E-004 -5.967154644315922E-004 -1.288783171780619E-003
 -2.918895425121374E-003 -5.573396522451829E-003 -9.167771110016921E-003
 -1.357217217812317E-002 -1.838427778900438E-002 -2.320014315178548E-002
 -2.763890288787426E-002 -3.143970394449276E-002 -3.447539076661003E-002
 -3.679168976136481E-002 -3.848528426515805E-002 -3.968682183911389E-002
 -4.051708164825068E-002  0.000000000000000E+000 -2.059343134687265E-004
 -5.967154644315922E-004 -1.288783171780619E-003 -2.918895425121374E-003
 -5.573396522451829E-003 -9.167771110016921E-003 -1.357217217812317E-002
 -1.838427778900438E-002 -2.320014315178548E-002 -2.763890288787426E-002
 -3.143970394449276E-002 -3.447539076661003E-002 -3.679168976136481E-002
 -3.848528426515805E-002 -3.968682183911389E-002 -4.051708164825068E-002
  0.000000000000000E+000 -2.059343134687265E-004 -5.967154644315922E-004
 -1.288783171780619E-003 -2.918895425121374E-003 -5.573396522451829E-003
 -9.167771110016921E-003 -1.357217217812317E-002 -1.838427778900438E-002
 -2.320014315178548E-002 -2.763890288787426E-002 -3.143970394449276E-002
 -3.447539076661003E-002 -3.679168976136481E-002 -3.848528426515805E-002
 -3.968682183911389E-002 -4.051708164825068E-002  0.000000000000000E+000
 -2.059343134687265E-004 -5.967154644315922E-004 -1.288783171780619E-003
 -2.918895425121374E-003 -5.573396522451829E-003 -9.167771110016921E-003
 -1.357217217812317E-002 -1.838427778900438E-002 -2.320014315178548E-002
 -2.763890288787426E-002 -3.143970394449276E-002 -3.447539076661003E-002
 -3.679168976136481E-002 -3.848528426515805E-002 -3.968682183911389E-002
 -4.051708164825068E-002  0.000000000000000E+000 -2.059343134687265E-004
 -5.967154644315922E-004 -1.288783171780619E-003 -2.918895425121374E-003
 -5.573396522451829E-003 -9.167771110016921E-003 -1.357217217812317E-002
 -1.838427778900438E-002 -2.320014315178548E-002 -2.763890288787426E-002
 -3.143970394449276E-002 -3.447539076661003E-002 -3.679168976136481E-002
 -3.848528426515805E-002 -3.968682183911389E-002 -4.051708164825068E-002
  0.000000000000000E+000 -2.059343134687265E-004 -5.967154644315922E-004
 -1.288783171780619E-003 -2.918895425121374E-003 -5.573396522451829E-003
 -9.167771110016921E-003 -1.357217217812317E-002 -1.838427778900438E-002
 -2.320014315178548E-002 -2.763890288787426E-002 -3.143970394449276E-002
 -3.447539076661003E-002 -3.679168976136481E-002 -3.848528426515805E-002
 -3.968682183911389E-002 -4.051708164825068E-002  0.000000000000000E+000
 -2.059343134687265E-004 -5.967154644315922E-004 -1.288783171780619E-003
 -2.918895425121374E-003 -5.573396522451829E-003 -9.167771110016921E-003
 -1.357217217812317E-002 -1.838427778900438E-002 -2.320014315178548E-002
 -2.763890288787426E-002 -3.143970394449276E-002 -3.447539076661003E-002
 -3.679168976136481E-002 -3.848528426515805E-002 -3.968682183911389E-002
 -4.051708164825068E-002  0.000000000000000E+000 -2.059343134687265E-004
 -5.967154644315922E-004 -1.288783171780619E-003 -2.918895425121374E-003
 -5.573396522451829E-003 -9.167771110016921E-003 -1.357217217812317E-002
 -1.838427778900438E-002 -2.320014315178548E-002 -2.763890288787426E-002
 -3.143970394449276E-002 -3.447539076661003E-002 -3.679168976136481E-002
 -3.848528426515805E-002 -3.968682183911389E-002 -4.051708164825068E-002
  0.000000000000000E+000 -2.059343134687265E-004 -5.967154644315922E-004
 -1.288783171780619E-003 -2.918895425121374E-003 -5.573396522451829E-003
 -9.167771110016921E-003 -1.357217217812317E-002 -1.838427778900438E-002
 -2.320014315178548E-002 -2.763890288787426E-002 -3.143970394449276E-002
 -3.447539076661003E-002 -3.679168976136481E-002 -3.848528426515805E-002
 -3.968682183911389E-002 -4.051708164825068E-002  0.000000000000000E+000
 -2.059343134687265E-004 -5.967154644315922E-004 -1.288783171780619E-003
 -2.918895425121374E-003 -5.573396522451829E-003 -9.167771110016921E-003
 -1.357217217812317E-002 -1.838427778900438E-002 -2.320014315178548E-002
 -2.763890288787426E-002 -3.143970394449276E-002 -3.447539076661003E-002
 -3.679168976136481E-002 -3.848528426515805E-002 -3.968682183911389E-002
 -4.051708164825068E-002
 -0.228929640744969      -0.449091420420470      -0.488899414150891     
 -0.274804571720722      -2.949870900530466E-002  0.172691245361427     
  0.338323152446674       0.442370362508403       0.510007252145159     
  0.551152830759375       0.572451134386586       0.576527248042023     
  0.574301846233839       0.566977557394521       0.559793526144367     
  0.556182671020796      -0.258947889234385      -0.517152282748969     
 -0.572045180084512      -0.309348395690730       3.402587692945622E-002
  0.343720416388425       0.605406036755974       0.778993940087993     
  0.894475817038645       0.966849779837952        1.00713113832854     
   1.02182901874050        1.02698049411628        1.02596199756147     
   1.02411929554960        1.02339864377150      -0.244944135013584     
 -0.489121980043557      -0.523067712265191      -0.215846486119055     
  0.198857664993569       0.596650774092420       0.945940052391408     
   1.19124167640598        1.36009977312482        1.47000048623456     
   1.53584777673597        1.56791731295038        1.58519580422994     
   1.59162287846348        1.59308276976086        1.59322838513373     
 -0.199715954703005      -0.395507076615775      -0.376671787619270     
 -1.739526001944900E-004  0.496812171544046       0.986309734967335     
   1.42873591378081        1.75582102695928        1.98987809894512     
   2.14822000983635        2.24829488268104        2.30306872776453     
   2.33411826892574        2.34741472650775        2.35163699508893     
   2.35280102167007      -0.122252542901180      -0.234844864174008     
 -0.128773696400532       0.353044092721926       0.964103782548532     
   1.56993741696475        2.12561364110101        2.55265766176427     
   2.86850799104345        3.08869761608330        3.23202177753604     
   3.31417974598511        3.36099286938169        3.38230011906548     
   3.39039073799781        3.39333672814724      -6.786648676381030E-003
  4.716528603466066E-003  0.239062442088535       0.871695594571487     
   1.64222980735282        2.40555163542842        3.10957913209927     
   3.66481208980855        4.08455571407272        4.38264771356278     
   4.57972807229325        4.69559325808179        4.76224140438870     
   4.79444099008205        4.80830737356323        4.81392818267700     
  0.153671942479158       0.337622953976958       0.748639019937538     
   1.58599134159793        2.57122034185435        3.54439643784919     
   4.44318398207451        5.16403030335871        5.71604620796448     
   6.11227286395281        6.37684278308824        6.53549944097241     
   6.62815170788255        6.67522672616598        6.69707541705842     
   6.70627867164417       0.364088320151890       0.774075473713686     
   1.41487389206168        2.51540371954487        3.77528584936425     
   5.01575262440980        6.16092326149808        7.08960448507734     
   7.80612964055711        8.32359869208075        8.67149055121743     
   8.88340901667907        9.00884270673953        9.07476396856038     
   9.10659061782861        9.12015730207058       0.624323265588295     
   1.31359758038209        2.23606253832672        3.65550364068891     
   5.24652858109204        6.80797812326699        8.24737468571521     
   9.42267002931645        10.3328937058125        10.9921300912158     
   11.4370642618159        11.7109817539232        11.8745193454967     
   11.9621851745685        12.0053647409121        12.0238159779611     
  0.926713757937820        1.94008136611442        3.18666037911816     
   4.96863992776408        6.93374937548482        8.85576467731135     
   10.6231376271421        12.0707728205102        13.1923399067585     
   14.0041705093895        14.5520960912806        14.8908725951833     
   15.0936833599442        15.2033997043925        15.2579133831520     
   15.2811736618770        1.26041577354139        2.63078829623254     
   4.23076331516187        6.40212905756260        8.76553942668776     
   11.0682930443273        13.1783435039085        14.9072405875516     
   16.2442215353909        17.2093082886782        17.8587247622779     
   18.2597262562638        18.4989662461010        18.6283948100145     
   18.6927106951316        18.7200134207897        1.62852260320517     
   3.39067584787800        5.37066740927000        7.94893930969403     
   10.7208700837792        13.4079317499150        15.8594089870192     
   17.8684923420700        19.4247783389002        20.5541070903534     
   21.3211089909143        21.8014130509388        22.0915897071106     
   22.2510938943588        22.3314343224676        22.3656374449865     
   2.01293250643321        4.17904082206526        6.53746711218357     
   9.50271110030889        12.6479680981422        15.6731636937349     
   18.4170302812559        20.6673511233780        22.4245478375254     
   23.7242540066302        24.6349441129275        25.2308368285604     