 Title = "Wing and Wake"
 VARIABLES = "X" "Y" "Z" "GAM" "skew"
 Zone I=   17 J=   20 K=1  T="Blade 01"
 DATAPACKING=BLOCK
 VARLOCATION=([4]=CELLCENTERED,[5]=CELLCENTERED)
  0.430513849156731       0.429910303135934       0.428359101540891     
  0.426024476763533       0.422821316475764       0.418619247491488     
  0.413384201101011       0.407273511463085       0.400654849541475     
  0.394046760918681       0.387962931959866       0.382762736931117     
  0.378601189324503       0.375432782772238       0.373116208866841     
  0.371472061902648       0.370337574347186       0.438573982141876     
  0.437970436121082       0.436419234526038       0.434084609748681     
  0.430881449460912       0.426679380476636       0.421444334086158     
  0.415333644448234       0.408714982526621       0.402106893903827     
  0.396023064945014       0.390822869916266       0.386661322309651     
  0.383492915757387       0.381176341851988       0.379532194887796     
  0.378397707332337       0.449972847415617       0.449369301394822     
  0.447818099799780       0.445483475022419       0.442280314734651     
  0.438078245750374       0.432843199359897       0.426732509721973     
  0.420113847800361       0.413505759177567       0.407421930218753     
  0.402221735190006       0.398060187583390       0.394891781031126     
  0.392575207125726       0.390931060161534       0.389796572606076     
  0.465886074784705       0.465282528763911       0.463731327168868     
  0.461396702391507       0.458193542103740       0.453991473119465     
  0.448756426728987       0.442645737091063       0.436027075169448     
  0.429418986546655       0.423335157587842       0.418134962559093     
  0.413973414952476       0.410805008400216       0.408488434494816     
  0.406844287530623       0.405709799975165       0.487704880984107     
  0.487101334963312       0.485550133368270       0.483215508590910     
  0.480012348303139       0.475810279318864       0.470575232928387     
  0.464464543290462       0.457845881368851       0.451237792746056     
  0.445153963787244       0.439953768758493       0.435792221151878     
  0.432623814599614       0.430307240694218       0.428663093730023     
  0.427528606174564       0.516893284434778       0.516289738413982     
  0.514738536818940       0.512403912041580       0.509200751753812     
  0.504998682769536       0.499763636379056       0.493652946741133     
  0.487034284819521       0.480426196196727       0.474342367237913     
  0.469142172209163       0.464980624602551       0.461812218050282     
  0.459495644144885       0.457851497180695       0.456717009625236     
  0.554680271533987       0.554076725513190       0.552525523918150     
  0.550190899140787       0.546987738853019       0.542785669868742     
  0.537550623478265       0.531439933840342       0.524821271918729     
  0.518213183295936       0.512129354337122       0.506929159308369     
  0.502767611701758       0.499599205149493       0.497282631244096     
  0.495638484279904       0.494503996724445       0.601574420769447     
  0.600970874748651       0.599419673153607       0.597085048376254     
  0.593881888088484       0.589679819104210       0.584444772713725     
  0.578334083075805       0.571715421154191       0.565107332531395     
  0.559023503572586       0.553823308543838       0.549661760937217     
  0.546493354384959       0.544176780479559       0.542532633515364     
  0.541398145959909       0.656811361407037       0.656207815386245     
  0.654656613791203       0.652321989013842       0.649118828726072     
  0.644916759741798       0.639681713351322       0.633571023713399     
  0.626952361791785       0.620344273168990       0.614260444210173     
  0.609060249181425       0.604898701574813       0.601730295022549     
  0.599413721117150       0.597769574152958       0.596635086597496     
  0.718012967662676       0.717409421641878       0.715858220046835     
  0.713523595269477       0.710320434981709       0.706118365997433     
  0.700883319606956       0.694772629969032       0.688153968047418     
  0.681545879424624       0.675462050465813       0.670261855437064     
  0.666100307830445       0.662931901278183       0.660615327372786     
  0.658971180408590       0.657836692853133       0.781391579173727     
  0.780788033152937       0.779236831557892       0.776902206780533     
  0.773699046492764       0.769496977508489       0.764261931118011     
  0.758151241480087       0.751532579558470       0.744924490935677     
  0.738840661976865       0.733640466948117       0.729478919341499     
  0.726310512789242       0.723993938883838       0.722349791919646     
  0.721215304364186       0.842593185429368       0.841989639408571     
  0.840438437813527       0.838103813036169       0.834900652748398     
  0.830698583764125       0.825463537373644       0.819352847735723     
  0.812734185814106       0.806126097191315       0.800042268232501     
  0.794842073203747       0.790680525597136       0.787512119044873     
  0.785195545139476       0.783551398175282       0.782416910619820     
  0.897830126066958       0.897226580046162       0.895675378451118     
  0.893340753673760       0.890137593385990       0.885935524401714     
  0.880700478011232       0.874589788373312       0.867971126451702     
  0.861363037828901       0.855279208870094       0.850079013841342     
  0.845917466234725       0.842749059682465       0.840432485777068     
  0.838788338812873       0.837653851257413       0.944724275302415     
  0.944120729281624       0.942569527686582       0.940234902909219     
  0.937031742621452       0.932829673637177       0.927594627246699     
  0.921483937608775       0.914865275687162       0.908257187064371     
  0.902173358105555       0.896973163076806       0.892811615470191     
  0.889643208917927       0.887326635012530       0.885682488048336     
  0.884548000492880       0.982511262401624       0.981907716380833     
  0.980356514785785       0.978021890008426       0.974818729720664     
  0.970616660736387       0.965381614345904       0.959270924707985     
  0.952652262786371       0.946044174163577       0.939960345204764     
  0.934760150176016       0.930598602569398       0.927430196017137     
  0.925113622111735       0.923469475147546       0.922334987592085     
   1.01169966585229        1.01109611983150        1.00954491823646     
   1.00721029345910        1.00400713317133       0.999805064187058     
  0.994570017796573       0.988459328158658       0.981840666237034     
  0.975232577614253       0.969148748655436       0.963948553626686     
  0.959787006020070       0.956618599467806       0.954302025562411     
  0.952657878598217       0.951523391042759        1.03351847205170     
   1.03291492603091        1.03136372443586        1.02902909965850     
   1.02582593937073        1.02162387038646        1.01638882399598     
   1.01027813435806        1.00365947243644       0.997051383813650     
  0.990967554854829       0.985767359826084       0.981605812219468     
  0.978437405667207       0.976120831761802       0.974476684797617     
  0.973342197242153        1.04943169942079        1.04882815339999     
   1.04727695180495        1.04494232702759        1.04173916673982     
   1.03753709775555        1.03230205136507        1.02619136172714     
   1.01957269980553        1.01296461118274        1.00688078222392     
   1.00168058719517       0.997519039588558       0.994350633036297     
  0.992034059130900       0.990389912166709       0.989255424611244     
   1.06083056469453        1.06022701867373        1.05867581707868     
   1.05634119230133        1.05313803201356        1.04893596302929     
   1.04370091663881        1.03759022700088        1.03097156507927     
   1.02436347645647        1.01827964749766        1.01307945246891     
   1.00891790486230        1.00574949831003        1.00343292440464     
   1.00178877744044        1.00065428988499        1.06889069767967     
   1.06828715165889        1.06673595006384        1.06440132528648     
   1.06119816499871        1.05699609601443        1.05176104962395     
   1.04565035998603        1.03903169806442        1.03242360944163     
   1.02633978048281        1.02113958545406        1.01697803784744     
   1.01380963129519        1.01149305738979        1.00984891042559     
   1.00871442287013     
 -6.127486936345901E-002 -6.292834912121628E-002 -6.717803406525714E-002
 -7.357399175252957E-002 -8.234939663335236E-002 -9.386142018552009E-002
 -0.108203397332826      -0.124944294089875      -0.143076835990203     
 -0.161180411192104      -0.177847720206612      -0.192094218270032     
 -0.203495229114949      -0.212175422369507      -0.218521927736050     
 -0.223026246595599      -0.226134298249905      -6.421694420134740E-002
 -6.587042395910764E-002 -7.012010890314653E-002 -7.651606659041987E-002
 -8.529147147124279E-002 -9.680349502340892E-002 -0.111145472170713     
 -0.127886368927766      -0.146018910828091      -0.164122486029994     
 -0.180789795044504      -0.195036293107921      -0.206437303952840     
 -0.215117497207397      -0.221464002573938      -0.225968321433491     
 -0.229076373087797      -6.837770864086404E-002 -7.003118839862335E-002
 -7.428087334266095E-002 -8.067683102993412E-002 -8.945223591075614E-002
 -0.100964259462925      -0.115306236610228      -0.132047133367280     
 -0.150179675267607      -0.168283250469508      -0.184950559484019     
 -0.199197057547438      -0.210598068392354      -0.219278261646911     
 -0.225624767013454      -0.230129085873004      -0.233237137527313     
 -7.418628598300910E-002 -7.583976574076842E-002 -8.008945068480698E-002
 -8.648540837208100E-002 -9.526081325290363E-002 -0.106772836805071     
 -0.121114813952375      -0.137855710709427      -0.155988252609752     
 -0.174091827811655      -0.190759136826164      -0.205005634889583     
 -0.216406645734499      -0.225086838989058      -0.231433344355600     
 -0.235937663215151      -0.239045714869458      -8.215049213572903E-002
 -8.380397189348814E-002 -8.805365683752708E-002 -9.444961452479927E-002
 -0.103225019405623      -0.114737042957791      -0.129079020105095     
 -0.145819916862146      -0.163952458762473      -0.182056033964374     
 -0.198723342978885      -0.212969841042303      -0.224370851887220     
 -0.233051045141776      -0.239397550508319      -0.243901869367870     
 -0.247009921022177      -9.280471676311861E-002 -9.445819652087785E-002
 -9.870788146491671E-002 -0.105103839152189      -0.113879244033011     
 -0.125391267585180      -0.139733244732485      -0.156474141489535     
 -0.174606683389862      -0.192710258591763      -0.209377567606273     
 -0.223624065669692      -0.235025076514609      -0.243705269769165     
 -0.250051775135708      -0.254556093995260      -0.257664145649568     
 -0.106597559157792      -0.108251038915551      -0.112500723859589     
 -0.118896681546862      -0.127672086427687      -0.139184109979850     
 -0.153526087127157      -0.170266983884208      -0.188399525784535     
 -0.206503100986437      -0.223170410000947      -0.237416908064362     
 -0.248817918909283      -0.257498112163838      -0.263844617530383     
 -0.268348936389934      -0.271456988044242      -0.123714658436937     
 -0.125368138194697      -0.129617823138735      -0.136013780826009     
 -0.144789185706833      -0.156301209259001      -0.170643186406300     
 -0.187384083163357      -0.205516625063683      -0.223620200265579     
 -0.240287509280095      -0.254534007343512      -0.265935018188426     
 -0.274615211442987      -0.280961716809530      -0.285466035669077     
 -0.288574087323388      -0.143877007305290      -0.145530487063053     
 -0.149780172007091      -0.156176129694359      -0.164951534575187     
 -0.176463558127355      -0.190805535274658      -0.207546432031710     
 -0.225678973932038      -0.243782549133936      -0.260449858148446     
 -0.274696356211861      -0.286097367056782      -0.294777560311340     
 -0.301124065677882      -0.305628384537433      -0.308736436191738     
 -0.166216552587600      -0.167870032345360      -0.172119717289398     
 -0.178515674976670      -0.187291079857495      -0.198803103409662     
 -0.213145080556967      -0.229885977314018      -0.248018519214345     
 -0.266122094416244      -0.282789403430756      -0.297035901494176     
 -0.308436912339090      -0.317117105593650      -0.323463610960190     
 -0.327967929819742      -0.331075981474049      -0.189350738900736     
 -0.191004218658497      -0.195253903602536      -0.201649861289806     
 -0.210425266170632      -0.221937289722800      -0.236279266870105     
 -0.253020163627155      -0.271152705527480      -0.289256280729382     
 -0.305923589743893      -0.320170087807309      -0.331571098652225     
 -0.340251291906785      -0.346597797273328      -0.351102116132880     
 -0.354210167787185      -0.211690284183047      -0.213343763940806     
 -0.217593448884846      -0.223989406572114      -0.232764811452941     
 -0.244276835005108      -0.258618812152411      -0.275359708909463     
 -0.293492250809791      -0.311595826011694      -0.328263135026201     
 -0.342509633089619      -0.353910643934537      -0.362590837189095     
 -0.368937342555637      -0.373441661415186      -0.376549713069496     
 -0.231852633051401      -0.233506112809158      -0.237755797753197     
 -0.244151755440471      -0.252927160321297      -0.264439183873463     
 -0.278781161020765      -0.295522057777820      -0.313654599678145     
 -0.331758174880038      -0.348425483894555      -0.362671981957972     
 -0.374072992802887      -0.382753186057447      -0.389099691423990     
 -0.393604010283541      -0.396712061937847      -0.248969732330546     
 -0.250623212088308      -0.254872897032344      -0.261268854719618     
 -0.270044259600439      -0.281556283152608      -0.295898260299915     
 -0.312639157056959      -0.330771698957292      -0.348875274159190     
 -0.365542583173702      -0.379789081237121      -0.391190092082036     
 -0.399870285336595      -0.406216790703138      -0.410721109562687     
 -0.413829161216996      -0.262762574725218      -0.264416054482979     
 -0.268665739427016      -0.275061697114287      -0.283837101995113     
 -0.295349125547283      -0.309691102694584      -0.326431999451638     
 -0.344564541351968      -0.362668116553865      -0.379335425568375     
 -0.393581923631793      -0.404982934476710      -0.413663127731269     
 -0.420009633097809      -0.424513951957360      -0.427622003611668     
 -0.273416799352606      -0.275070279110371      -0.279319964054407     
 -0.285715921741681      -0.294491326622503      -0.306003350174669     
 -0.320345327321973      -0.337086224079029      -0.355218765979346     
 -0.373322341181254      -0.389989650195765      -0.404236148259182     
 -0.415637159104100      -0.424317352358657      -0.430663857725199     
 -0.435168176584752      -0.438276228239062      -0.281381005505330     
 -0.283034485263090      -0.287284170207127      -0.293680127894399     
 -0.302455532775220      -0.313967556327393      -0.328309533474695     
 -0.345050430231746      -0.363182972132073      -0.381286547333975     
 -0.397953856348477      -0.412200354411902      -0.423601365256820     
 -0.432281558511378      -0.438628063877916      -0.443132382737472     
 -0.446240434391776      -0.287189582847477      -0.288843062605234     
 -0.293092747549273      -0.299488705236548      -0.308264110117364     
 -0.319776133669538      -0.334118110816842      -0.350859007573888     
 -0.368991549474219      -0.387095124676120      -0.403762433690630     
 -0.418008931754049      -0.429409942598965      -0.438090135853527     
 -0.444436641220066      -0.448940960079618      -0.452049011733922     
 -0.291350347286990      -0.293003827044749      -0.297253511988787     
 -0.303649469676062      -0.312424874556879      -0.323936898109053     
 -0.338278875256356      -0.355019772013406      -0.373152313913735     
 -0.391255889115634      -0.407923198130145      -0.422169696193562     
 -0.433570707038478      -0.442250900293035      -0.448597405659580     
 -0.453101724519132      -0.456209776173440      -0.294292422124879     
 -0.295945901882640      -0.300195586826677      -0.306591544513947     
 -0.315366949394776      -0.326878972946942      -0.341220950094246     
 -0.357961846851298      -0.376094388751621      -0.394197963953526     
 -0.410865272968034      -0.425111771031454      -0.436512781876364     
 -0.445192975130927      -0.451539480497468      -0.456043799357021     
 -0.459151851011328     
  0.000000000000000E+000 -2.059343134687265E-004 -5.967154644315922E-004
 -1.288783171780619E-003 -2.918895425121374E-003 -5.573396522451829E-003
 -9.167771110016921E-003 -1.357217217812317E-002 -1.838427778900438E-002
 -2.320014315178548E-002 -2.763890288787426E-002 -3.143970394449276E-002
 -3.447539076661003E-002 -3.679168976136481E-002 -3.848528426515805E-002
 -3.968682183911389E-002 -4.051708164825068E-002  0.000000000000000E+000
 -2.059343134687265E-004 -5.967154644315922E-004 -1.288783171780619E-003
 -2.918895425121374E-003 -5.573396522451829E-003 -9.167771110016921E-003
 -1.357217217812317E-002 -1.838427778900438E-002 -2.320014315178548E-002
 -2.763890288787426E-002 -3.143970394449276E-002 -3.447539076661003E-002
 -3.679168976136481E-002 -3.848528426515805E-002 -3.968682183911389E-002
 -4.051708164825068E-002  0.000000000000000E+000 -2.059343134687265E-004
 -5.967154644315922E-004 -1.288783171780619E-003 -2.918895425121374E-003
 -5.573396522451829E-003 -9.167771110016921E-003 -1.357217217812317E-002
 -1.838427778900438E-002 -2.320014315178548E-002 -2.763890288787426E-002
 -3.143970394449276E-002 -3.447539076661003E-002 -3.679168976136481E-002
 -3.848528426515805E-002 -3.968682183911389E-002 -4.051708164825068E-002
  0.000000000000000E+000 -2.059343134687265E-004 -5.967154644315922E-004
 -1.288783171780619E-003 -2.918895425121374E-003 -5.573396522451829E-003
 -9.167771110016921E-003 -1.357217217812317E-002 -1.838427778900438E-002
 -2.320014315178548E-002 -2.763890288787426E-002 -3.143970394449276E-002
 -3.447539076661003E-002 -3.679168976136481E-002 -3.848528426515805E-002
 -3.968682183911389E-002 -4.051708164825068E-002  0.000000000000000E+000
 -2.059343134687265E-004 -5.967154644315922E-004 -1.288783171780619E-003
 -2.918895425121374E-003 -5.573396522451829E-003 -9.167771110016921E-003
 -1.357217217812317E-002 -1.838427778900438E-002 -2.320014315178548E-002
 -2.763890288787426E-002 -3.143970394449276E-002 -3.447539076661003E-002
 -3.679168976136481E-002 -3.848528426515805E-002 -3.968682183911389E-002
 -4.051708164825068E-002  0.000000000000000E+000 -2.059343134687265E-004
 -5.967154644315922E-004 -1.288783171780619E-003 -2.918895425121374E-003
 -5.573396522451829E-003 -9.167771110016921E-003 -1.357217217812317E-002
 -1.838427778900438E-002 -2.320014315178548E-002 -2.763890288787426E-002
 -3.143970394449276E-002 -3.447539076661003E-002 -3.679168976136481E-002
 -3.848528426515805E-002 -3.968682183911389E-002 -4.051708164825068E-002
  0.000000000000000E+000 -2.059343134687265E-004 -5.967154644315922E-004
 -1.288783171780619E-003 -2.918895425121374E-003 -5.573396522451829E-003
 -9.167771110016921E-003 -1.357217217812317E-002 -1.838427778900438E-002
 -2.320014315178548E-002 -2.763890288787426E-002 -3.143970394449276E-002
 -3.447539076661003E-002 -3.679168976136481E-002 -3.848528426515805E-002
 -3.968682183911389E-002 -4.051708164825068E-002  0.000000000000000E+000
 -2.059343134687265E-004 -5.967154644315922E-004 -1.288783171780619E-003
 -2.918895425121374E-003 -5.573396522451829E-003 -9.167771110016921E-003
 -1.357217217812317E-002 -1.838427778900438E-002 -2.320014315178548E-002
 -2.763890288787426E-002 -3.143970394449276E-002 -3.447539076661003E-002
 -3.679168976136481E-002 -3.848528426515805E-002 -3.968682183911389E-002
 -4.051708164825068E-002  0.000000000000000E+000 -2.059343134687265E-004
 -5.967154644315922E-004 -1.288783171780619E-003 -2.918895425121374E-003
 -5.573396522451829E-003 -9.167771110016921E-003 -1.357217217812317E-002
 -1.838427778900438E-002 -2.320014315178548E-002 -2.763890288787426E-002
 -3.143970394449276E-002 -3.447539076661003E-002 -3.679168976136481E-002
 -3.848528426515805E-002 -3.968682183911389E-002 -4.051708164825068E-002
  0.000000000000000E+000 -2.059343134687265E-004 -5.967154644315922E-004
 -1.288783171780619E-003 -2.918895425121374E-003 -5.573396522451829E-003
 -9.167771110016921E-003 -1.357217217812317E-002 -1.838427778900438E-002
 -2.320014315178548E-002 -2.763890288787426E-002 -3.143970394449276E-002
 -3.447539076661003E-002 -3.679168976136481E-002 -3.848528426515805E-002
 -3.968682183911389E-002 -4.051708164825068E-002  0.000000000000000E+000
 -2.059343134687265E-004 -5.967154644315922E-004 -1.288783171780619E-003
 -2.918895425121374E-003 -5.573396522451829E-003 -9.167771110016921E-003
 -1.357217217812317E-002 -1.838427778900438E-002 -2.320014315178548E-002
 -2.763890288787426E-002 -3.143970394449276E-002 -3.447539076661003E-002
 -3.679168976136481E-002 -3.848528426515805E-002 -3.968682183911389E-002
 -4.051708164825068E-002  0.000000000000000E+000 -2.059343134687265E-004
 -5.967154644315922E-004 -1.288783171780619E-003 -2.918895425121374E-003
 -5.573396522451829E-003 -9.167771110016921E-003 -1.357217217812317E-002
 -1.838427778900438E-002 -2.320014315178548E-002 -2.763890288787426E-002
 -3.143970394449276E-002 -3.447539076661003E-002 -3.679168976136481E-002
 -3.848528426515805E-002 -3.968682183911389E-002 -4.051708164825068E-002
  0.000000000000000E+000 -2.059343134687265E-004 -5.967154644315922E-004
 -1.288783171780619E-003 -2.918895425121374E-003 -5.573396522451829E-003
 -9.167771110016921E-003 -1.357217217812317E-002 -1.838427778900438E-002
 -2.320014315178548E-002 -2.763890288787426E-002 -3.143970394449276E-002
 -3.447539076661003E-002 -3.679168976136481E-002 -3.848528426515805E-002
 -3.968682183911389E-002 -4.051708164825068E-002  0.000000000000000E+000
 -2.059343134687265E-004 -5.967154644315922E-004 -1.288783171780619E-003
 -2.918895425121374E-003 -5.573396522451829E-003 -9.167771110016921E-003
 -1.357217217812317E-002 -1.838427778900438E-002 -2.320014315178548E-002
 -2.763890288787426E-002 -3.143970394449276E-002 -3.447539076661003E-002
 -3.679168976136481E-002 -3.848528426515805E-002 -3.968682183911389E-002
 -4.051708164825068E-002  0.000000000000000E+000 -2.059343134687265E-004
 -5.967154644315922E-004 -1.288783171780619E-003 -2.918895425121374E-003
 -5.573396522451829E-003 -9.167771110016921E-003 -1.357217217812317E-002
 -1.838427778900438E-002 -2.320014315178548E-002 -2.763890288787426E-002
 -3.143970394449276E-002 -3.447539076661003E-002 -3.679168976136481E-002
 -3.848528426515805E-002 -3.968682183911389E-002 -4.051708164825068E-002
  0.000000000000000E+000 -2.059343134687265E-004 -5.967154644315922E-004
 -1.288783171780619E-003 -2.918895425121374E-003 -5.573396522451829E-003
 -9.167771110016921E-003 -1.357217217812317E-002 -1.838427778900438E-002
 -2.320014315178548E-002 -2.763890288787426E-002 -3.143970394449276E-002
 -3.447539076661003E-002 -3.679168976136481E-002 -3.848528426515805E-002
 -3.968682183911389E-002 -4.051708164825068E-002  0.000000000000000E+000
 -2.059343134687265E-004 -5.967154644315922E-004 -1.288783171780619E-003
 -2.918895425121374E-003 -5.573396522451829E-003 -9.167771110016921E-003
 -1.357217217812317E-002 -1.838427778900438E-002 -2.320014315178548E-002
 -2.763890288787426E-002 -3.143970394449276E-002 -3.447539076661003E-002
 -3.679168976136481E-002 -3.848528426515805E-002 -3.968682183911389E-002
 -4.051708164825068E-002  0.000000000000000E+000 -2.059343134687265E-004
 -5.967154644315922E-004 -1.288783171780619E-003 -2.918895425121374E-003
 -5.573396522451829E-003 -9.167771110016921E-003 -1.357217217812317E-002
 -1.838427778900438E-002 -2.320014315178548E-002 -2.763890288787426E-002
 -3.143970394449276E-002 -3.447539076661003E-002 -3.679168976136481E-002
 -3.848528426515805E-002 -3.968682183911389E-002 -4.051708164825068E-002
  0.000000000000000E+000 -2.059343134687265E-004 -5.967154644315922E-004
 -1.288783171780619E-003 -2.918895425121374E-003 -5.573396522451829E-003
 -9.167771110016921E-003 -1.357217217812317E-002 -1.838427778900438E-002
 -2.320014315178548E-002 -2.763890288787426E-002 -3.143970394449276E-002
 -3.447539076661003E-002 -3.679168976136481E-002 -3.848528426515805E-002
 -3.968682183911389E-002 -4.051708164825068E-002  0.000000000000000E+000
 -2.059343134687265E-004 -5.967154644315922E-004 -1.288783171780619E-003
 -2.918895425121374E-003 -5.573396522451829E-003 -9.167771110016921E-003
 -1.357217217812317E-002 -1.838427778900438E-002 -2.320014315178548E-002
 -2.763890288787426E-002 -3.143970394449276E-002 -3.447539076661003E-002
 -3.679168976136481E-002 -3.848528426515805E-002 -3.968682183911389E-002
 -4.051708164825068E-002
 -0.325011821818157      -0.637333984075185      -0.747932029850370     
 -0.592483695616527      -0.401252444944507      -0.250866084487193     
 -0.134382686787934      -7.587916819562156E-002 -4.861239335258153E-002
 -4.147920707139769E-002 -4.712039873689719E-002 -6.278124954290856E-002
 -7.818257583806791E-002 -9.362786033995658E-002 -0.106002787289008     
 -0.113374599216263      -0.387551851591039      -0.778001814150945     
 -0.944919453980001      -0.780224964044791      -0.527379232578885     
 -0.303230663337278      -0.121855484534913      -2.220559639254148E-002
  2.773193002086465E-002  4.441346402588577E-002  3.945295164085501E-002
  1.891232572511774E-002 -2.760531033194565E-003 -2.406199316988680E-002
 -4.044447859776248E-002 -4.956075844728064E-002 -0.397279520391515     
 -0.801502561786477      -0.977004814668117      -0.799794964307713     
 -0.508773223356682      -0.228821170379399       9.943322551086762E-003
  0.153802942977241       0.232678963789516       0.265614788855140     
  0.267966665534359       0.249541863530608       0.228341471908348     
  0.207486301656598       0.191830545214711       0.183420443336850     
 -0.371545380564100      -0.749665295141282      -0.895636005356640     
 -0.675148899393203      -0.330867022689599       1.025089442060458E-002
  0.312157859923886       0.509980864763169       0.629409349987118     
  0.689960841410491       0.710162870210145       0.703294528909955     
  0.690157945274368       0.674696176074013       0.662362321871596     
  0.655755082442689      -0.310115541734019      -0.623131755794830     
 -0.700450858753416      -0.395423770642663       3.911883211605974E-002
  0.470264422333226       0.858341804868987        1.13051459067218     
   1.30962239701057        1.41499511417633        1.46747325553414     
   1.48289515262898        1.48466297608727        1.47835107335449     
   1.47132704759761        1.46739787620325      -0.206644048554788     
 -0.408987309266309      -0.371650686191075       6.908751688169310E-002
  0.645802465212374        1.21510370007616        1.73137407444075     
   2.11287223703015        2.38060073447706        2.55379286407607     
   2.65530798777682        2.70375428192271        2.72670864691057     
   2.73309463690666        2.73328172245340        2.73278641270417     
 -5.226610199440563E-002 -8.894180760089665E-002  0.118207112559500     
  0.756070732999243        1.53884285176573        2.30845874002614     
   3.00977497404740        3.54831352990211        3.94223484450078     
   4.21061262670609        4.37933263659674        4.47177960257867     
   4.52234762555553        4.54501215209783        4.55414239792666     
   4.55769725784869       0.161605093543120       0.354660809951883     
  0.794997183277614        1.69934944677411        2.76011783873426     
   3.80043044493276        4.75162455275245        5.50163786945778     
   6.06380711344378        6.45699828850552        6.71204064103916     
   6.85991915562178        6.94466247708780        6.98701135161291     
   7.00658396070551        7.01469982676886       0.441333716348092     
  0.934784644676387        1.67687017935234        2.92065874251260     
   4.33419568549670        5.71797291368016        6.98576244635334     
   8.00312063576339        8.77642944155850        9.32437209904280     
   9.68480416234231        9.89920529124164        10.0240906167430     
   10.0889371661946        10.1200818518463        10.1331250531166     
  0.791545043726765        1.66077049979860        2.77597521026397     
   4.43225874372809        6.27248745560677        8.07163590861117     
   9.72228671133991        11.0634894457520        12.0923971642899     
   12.8269920946513        13.3134550610491        13.6062000201819     
   13.7771723655916        13.8670489325334        13.9106652507558     
   13.9288953504132        1.22062665826261        2.54950718133400     
   4.11460599266675        6.25769788037109        8.59824394225279     
   10.8846044924093        12.9862513115096        14.7142577052413     
   16.0554719295903        17.0257370846119        17.6777108226384     
   18.0776218887051        18.3136013741290        18.4396451948398     
   18.5015591212010        18.5274552426968        1.74390850042074     
   3.63002373896809        5.72753731237588        8.42716705685885     
   11.3286778552824        14.1550405811645        16.7552508343755     
   18.9186590534591        20.6273583830548        21.8965663384686     
   22.7810384814611        23.3509966912614        23.7036685645030     
   23.9026791741465        24.0050944049367        24.0489621669453     
   2.27454201981298        4.71922532154548        7.33465140775031     
   10.5534054126230        13.9567579660997        17.2453349909503     
   20.2556345871978        22.7701493240898        24.7806536237239     
   26.3104221565319        27.4152866874819        28.1617973653530     