 Title = "Wing and Wake"
 VARIABLES = "X" "Y" "Z" "GAM" "skew"
 Zone I=   17 J=   20 K=1  T="Blade 01"
 DATAPACKING=BLOCK
 VARLOCATION=([4]=CELLCENTERED,[5]=CELLCENTERED)
  0.430513849156730       0.429910303135934       0.428359101540891     
  0.426024476763532       0.422821316475763       0.418619247491488     
  0.413384201101010       0.407273511463085       0.400654849541474     
  0.394046760918680       0.387962931959866       0.382762736931117     
  0.378601189324502       0.375432782772238       0.373116208866841     
  0.371472061902648       0.370337574347186       0.438573982141876     
  0.437970436121081       0.436419234526038       0.434084609748681     
  0.430881449460911       0.426679380476636       0.421444334086157     
  0.415333644448234       0.408714982526620       0.402106893903827     
  0.396023064945014       0.390822869916265       0.386661322309650     
  0.383492915757387       0.381176341851987       0.379532194887796     
  0.378397707332337       0.449972847415617       0.449369301394821     
  0.447818099799779       0.445483475022419       0.442280314734650     
  0.438078245750374       0.432843199359896       0.426732509721973     
  0.420113847800360       0.413505759177566       0.407421930218753     
  0.402221735190005       0.398060187583389       0.394891781031126     
  0.392575207125726       0.390931060161534       0.389796572606076     
  0.465886074784705       0.465282528763910       0.463731327168868     
  0.461396702391507       0.458193542103740       0.453991473119464     
  0.448756426728986       0.442645737091062       0.436027075169448     
  0.429418986546655       0.423335157587841       0.418134962559093     
  0.413973414952477       0.410805008400216       0.408488434494815     
  0.406844287530622       0.405709799975164       0.487704880984106     
  0.487101334963311       0.485550133368269       0.483215508590909     
  0.480012348303139       0.475810279318863       0.470575232928386     
  0.464464543290462       0.457845881368850       0.451237792746055     
  0.445153963787243       0.439953768758493       0.435792221151878     
  0.432623814599614       0.430307240694217       0.428663093730023     
  0.427528606174564       0.516893284434777       0.516289738413981     
  0.514738536818939       0.512403912041580       0.509200751753811     
  0.504998682769535       0.499763636379056       0.493652946741133     
  0.487034284819520       0.480426196196726       0.474342367237913     
  0.469142172209163       0.464980624602550       0.461812218050283     
  0.459495644144885       0.457851497180695       0.456717009625235     
  0.554680271533985       0.554076725513190       0.552525523918148     
  0.550190899140786       0.546987738853018       0.542785669868742     
  0.537550623478264       0.531439933840342       0.524821271918729     
  0.518213183295936       0.512129354337122       0.506929159308369     
  0.502767611701757       0.499599205149493       0.497282631244095     
  0.495638484279904       0.494503996724445       0.601574420769447     
  0.600970874748650       0.599419673153608       0.597085048376253     
  0.593881888088483       0.589679819104208       0.584444772713725     
  0.578334083075804       0.571715421154190       0.565107332531395     
  0.559023503572586       0.553823308543837       0.549661760937217     
  0.546493354384958       0.544176780479559       0.542532633515364     
  0.541398145959908       0.656811361407037       0.656207815386245     
  0.654656613791202       0.652321989013842       0.649118828726071     
  0.644916759741797       0.639681713351321       0.633571023713397     
  0.626952361791784       0.620344273168990       0.614260444210173     
  0.609060249181425       0.604898701574812       0.601730295022549     
  0.599413721117150       0.597769574152957       0.596635086597496     
  0.718012967662675       0.717409421641878       0.715858220046835     
  0.713523595269477       0.710320434981708       0.706118365997432     
  0.700883319606955       0.694772629969031       0.688153968047417     
  0.681545879424623       0.675462050465812       0.670261855437062     
  0.666100307830445       0.662931901278182       0.660615327372785     
  0.658971180408590       0.657836692853133       0.781391579173727     
  0.780788033152935       0.779236831557891       0.776902206780533     
  0.773699046492764       0.769496977508488       0.764261931118009     
  0.758151241480085       0.751532579558470       0.744924490935676     
  0.738840661976864       0.733640466948117       0.729478919341499     
  0.726310512789240       0.723993938883838       0.722349791919645     
  0.721215304364186       0.842593185429366       0.841989639408569     
  0.840438437813526       0.838103813036167       0.834900652748398     
  0.830698583764123       0.825463537373642       0.819352847735721     
  0.812734185814105       0.806126097191314       0.800042268232500     
  0.794842073203746       0.790680525597135       0.787512119044873     
  0.785195545139474       0.783551398175281       0.782416910619820     
  0.897830126066957       0.897226580046161       0.895675378451116     
  0.893340753673759       0.890137593385989       0.885935524401713     
  0.880700478011232       0.874589788373311       0.867971126451699     
  0.861363037828901       0.855279208870092       0.850079013841341     
  0.845917466234724       0.842749059682464       0.840432485777067     
  0.838788338812872       0.837653851257413       0.944724275302414     
  0.944120729281623       0.942569527686581       0.940234902909219     
  0.937031742621451       0.932829673637175       0.927594627246698     
  0.921483937608774       0.914865275687160       0.908257187064369     
  0.902173358105555       0.896973163076805       0.892811615470191     
  0.889643208917926       0.887326635012528       0.885682488048335     
  0.884548000492878       0.982511262401624       0.981907716380831     
  0.980356514785785       0.978021890008426       0.974818729720663     
  0.970616660736386       0.965381614345904       0.959270924707984     
  0.952652262786370       0.946044174163576       0.939960345204762     
  0.934760150176015       0.930598602569398       0.927430196017135     
  0.925113622111734       0.923469475147544       0.922334987592085     
   1.01169966585229        1.01109611983150        1.00954491823646     
   1.00721029345910        1.00400713317133       0.999805064187056     
  0.994570017796573       0.988459328158656       0.981840666237034     
  0.975232577614250       0.969148748655434       0.963948553626685     
  0.959787006020069       0.956618599467805       0.954302025562409     
  0.952657878598217       0.951523391042758        1.03351847205170     
   1.03291492603090        1.03136372443586        1.02902909965850     
   1.02582593937073        1.02162387038646        1.01638882399598     
   1.01027813435805        1.00365947243644       0.997051383813648     
  0.990967554854829       0.985767359826083       0.981605812219467     
  0.978437405667206       0.976120831761803       0.974476684797617     
  0.973342197242152        1.04943169942079        1.04882815339999     
   1.04727695180495        1.04494232702759        1.04173916673982     
   1.03753709775555        1.03230205136507        1.02619136172714     
   1.01957269980553        1.01296461118274        1.00688078222392     
   1.00168058719517       0.997519039588557       0.994350633036296     
  0.992034059130899       0.990389912166707       0.989255424611243     
   1.06083056469453        1.06022701867373        1.05867581707868     
   1.05634119230133        1.05313803201356        1.04893596302928     
   1.04370091663881        1.03759022700088        1.03097156507927     
   1.02436347645647        1.01827964749766        1.01307945246891     
   1.00891790486230        1.00574949831003        1.00343292440464     
   1.00178877744044        1.00065428988499        1.06889069767967     
   1.06828715165888        1.06673595006384        1.06440132528648     
   1.06119816499871        1.05699609601443        1.05176104962395     
   1.04565035998603        1.03903169806441        1.03242360944163     
   1.02633978048281        1.02113958545406        1.01697803784744     
   1.01380963129518        1.01149305738978        1.00984891042559     
   1.00871442287013     
 -6.127486936345851E-002 -6.292834912121628E-002 -6.717803406525641E-002
 -7.357399175252897E-002 -8.234939663335147E-002 -9.386142018551943E-002
 -0.108203397332825      -0.124944294089875      -0.143076835990202     
 -0.161180411192103      -0.177847720206612      -0.192094218270032     
 -0.203495229114948      -0.212175422369506      -0.218521927736049     
 -0.223026246595599      -0.226134298249905      -6.421694420134658E-002
 -6.587042395910707E-002 -7.012010890314592E-002 -7.651606659041903E-002
 -8.529147147124196E-002 -9.680349502340829E-002 -0.111145472170713     
 -0.127886368927765      -0.146018910828091      -0.164122486029993     
 -0.180789795044503      -0.195036293107921      -0.206437303952839     
 -0.215117497207396      -0.221464002573938      -0.225968321433490     
 -0.229076373087796      -6.837770864086345E-002 -7.003118839862230E-002
 -7.428087334265994E-002 -8.067683102993348E-002 -8.945223591075532E-002
 -0.100964259462924      -0.115306236610228      -0.132047133367280     
 -0.150179675267607      -0.168283250469507      -0.184950559484018     
 -0.199197057547437      -0.210598068392353      -0.219278261646910     
 -0.225624767013453      -0.230129085873003      -0.233237137527312     
 -7.418628598300876E-002 -7.583976574076792E-002 -8.008945068480647E-002
 -8.648540837207978E-002 -9.526081325290282E-002 -0.106772836805070     
 -0.121114813952375      -0.137855710709426      -0.155988252609751     
 -0.174091827811654      -0.190759136826163      -0.205005634889582     
 -0.216406645734498      -0.225086838989057      -0.231433344355598     
 -0.235937663215151      -0.239045714869457      -8.215049213572856E-002
 -8.380397189348750E-002 -8.805365683752626E-002 -9.444961452479861E-002
 -0.103225019405622      -0.114737042957790      -0.129079020105094     
 -0.145819916862145      -0.163952458762472      -0.182056033964373     
 -0.198723342978884      -0.212969841042302      -0.224370851887219     
 -0.233051045141776      -0.239397550508319      -0.243901869367869     
 -0.247009921022176      -9.280471676311798E-002 -9.445819652087717E-002
 -9.870788146491576E-002 -0.105103839152188      -0.113879244033010     
 -0.125391267585179      -0.139733244732484      -0.156474141489535     
 -0.174606683389861      -0.192710258591761      -0.209377567606272     
 -0.223624065669691      -0.235025076514608      -0.243705269769164     
 -0.250051775135707      -0.254556093995259      -0.257664145649566     
 -0.106597559157791      -0.108251038915550      -0.112500723859588     
 -0.118896681546861      -0.127672086427686      -0.139184109979850     
 -0.153526087127157      -0.170266983884207      -0.188399525784534     
 -0.206503100986436      -0.223170410000946      -0.237416908064362     
 -0.248817918909281      -0.257498112163837      -0.263844617530382     
 -0.268348936389933      -0.271456988044240      -0.123714658436937     
 -0.125368138194696      -0.129617823138734      -0.136013780826008     
 -0.144789185706831      -0.156301209259001      -0.170643186406300     
 -0.187384083163355      -0.205516625063682      -0.223620200265579     
 -0.240287509280094      -0.254534007343511      -0.265935018188426     
 -0.274615211442986      -0.280961716809529      -0.285466035669077     
 -0.288574087323386      -0.143877007305290      -0.145530487063051     
 -0.149780172007090      -0.156176129694359      -0.164951534575185     
 -0.176463558127354      -0.190805535274657      -0.207546432031708     
 -0.225678973932036      -0.243782549133935      -0.260449858148445     
 -0.274696356211861      -0.286097367056780      -0.294777560311338     
 -0.301124065677881      -0.305628384537431      -0.308736436191738     
 -0.166216552587599      -0.167870032345359      -0.172119717289397     
 -0.178515674976670      -0.187291079857494      -0.198803103409661     
 -0.213145080556966      -0.229885977314017      -0.248018519214343     
 -0.266122094416243      -0.282789403430755      -0.297035901494174     
 -0.308436912339089      -0.317117105593649      -0.323463610960189     
 -0.327967929819741      -0.331075981474049      -0.189350738900735     
 -0.191004218658496      -0.195253903602535      -0.201649861289806     
 -0.210425266170630      -0.221937289722799      -0.236279266870103     
 -0.253020163627153      -0.271152705527478      -0.289256280729380     
 -0.305923589743891      -0.320170087807309      -0.331571098652225     
 -0.340251291906784      -0.346597797273326      -0.351102116132878     
 -0.354210167787184      -0.211690284183046      -0.213343763940805     
 -0.217593448884844      -0.223989406572113      -0.232764811452940     
 -0.244276835005107      -0.258618812152410      -0.275359708909461     
 -0.293492250809789      -0.311595826011691      -0.328263135026200     
 -0.342509633089618      -0.353910643934536      -0.362590837189094     
 -0.368937342555635      -0.373441661415185      -0.376549713069495     
 -0.231852633051400      -0.233506112809156      -0.237755797753196     
 -0.244151755440470      -0.252927160321295      -0.264439183873461     
 -0.278781161020764      -0.295522057777817      -0.313654599678143     
 -0.331758174880038      -0.348425483894554      -0.362671981957971     
 -0.374072992802886      -0.382753186057446      -0.389099691423989     
 -0.393604010283538      -0.396712061937845      -0.248969732330545     
 -0.250623212088306      -0.254872897032342      -0.261268854719616     
 -0.270044259600438      -0.281556283152606      -0.295898260299913     
 -0.312639157056959      -0.330771698957290      -0.348875274159188     
 -0.365542583173701      -0.379789081237119      -0.391190092082035     
 -0.399870285336593      -0.406216790703136      -0.410721109562685     
 -0.413829161216994      -0.262762574725217      -0.264416054482977     
 -0.268665739427015      -0.275061697114287      -0.283837101995112     
 -0.295349125547281      -0.309691102694583      -0.326431999451636     
 -0.344564541351965      -0.362668116553863      -0.379335425568373     
 -0.393581923631791      -0.404982934476709      -0.413663127731267     
 -0.420009633097807      -0.424513951957359      -0.427622003611667     
 -0.273416799352605      -0.275070279110368      -0.279319964054406     
 -0.285715921741678      -0.294491326622502      -0.306003350174667     
 -0.320345327321971      -0.337086224079027      -0.355218765979346     
 -0.373322341181252      -0.389989650195763      -0.404236148259180     
 -0.415637159104098      -0.424317352358655      -0.430663857725198     
 -0.435168176584750      -0.438276228239060      -0.281381005505329     
 -0.283034485263088      -0.287284170207126      -0.293680127894397     
 -0.302455532775220      -0.313967556327391      -0.328309533474693     
 -0.345050430231744      -0.363182972132071      -0.381286547333972     
 -0.397953856348477      -0.412200354411900      -0.423601365256818     
 -0.432281558511375      -0.438628063877914      -0.443132382737470     
 -0.446240434391775      -0.287189582847475      -0.288843062605233     
 -0.293092747549271      -0.299488705236546      -0.308264110117363     
 -0.319776133669537      -0.334118110816839      -0.350859007573888     
 -0.368991549474217      -0.387095124676118      -0.403762433690629     
 -0.418008931754047      -0.429409942598963      -0.438090135853524     
 -0.444436641220064      -0.448940960079615      -0.452049011733920     
 -0.291350347286988      -0.293003827044746      -0.297253511988786     
 -0.303649469676060      -0.312424874556879      -0.323936898109051     
 -0.338278875256354      -0.355019772013404      -0.373152313913733     
 -0.391255889115633      -0.407923198130144      -0.422169696193559     
 -0.433570707038477      -0.442250900293033      -0.448597405659578     
 -0.453101724519129      -0.456209776173437      -0.294292422124878     
 -0.295945901882638      -0.300195586826676      -0.306591544513947     
 -0.315366949394773      -0.326878972946940      -0.341220950094244     
 -0.357961846851294      -0.376094388751619      -0.394197963953524     
 -0.410865272968032      -0.425111771031453      -0.436512781876364     
 -0.445192975130925      -0.451539480497466      -0.456043799357020     
 -0.459151851011327     
  0.000000000000000E+000 -2.059343134687265E-004 -5.967154644315922E-004
 -1.288783171780619E-003 -2.918895425121374E-003 -5.573396522451829E-003
 -9.167771110016921E-003 -1.357217217812317E-002 -1.838427778900438E-002
 -2.320014315178548E-002 -2.763890288787426E-002 -3.143970394449276E-002
 -3.447539076661003E-002 -3.679168976136481E-002 -3.848528426515805E-002
 -3.968682183911389E-002 -4.051708164825068E-002  0.000000000000000E+000
 -2.059343134687265E-004 -5.967154644315922E-004 -1.288783171780619E-003
 -2.918895425121374E-003 -5.573396522451829E-003 -9.167771110016921E-003
 -1.357217217812317E-002 -1.838427778900438E-002 -2.320014315178548E-002
 -2.763890288787426E-002 -3.143970394449276E-002 -3.447539076661003E-002
 -3.679168976136481E-002 -3.848528426515805E-002 -3.968682183911389E-002
 -4.051708164825068E-002  0.000000000000000E+000 -2.059343134687265E-004
 -5.967154644315922E-004 -1.288783171780619E-003 -2.918895425121374E-003
 -5.573396522451829E-003 -9.167771110016921E-003 -1.357217217812317E-002
 -1.838427778900438E-002 -2.320014315178548E-002 -2.763890288787426E-002
 -3.143970394449276E-002 -3.447539076661003E-002 -3.679168976136481E-002
 -3.848528426515805E-002 -3.968682183911389E-002 -4.051708164825068E-002
  0.000000000000000E+000 -2.059343134687265E-004 -5.967154644315922E-004
 -1.288783171780619E-003 -2.918895425121374E-003 -5.573396522451829E-003
 -9.167771110016921E-003 -1.357217217812317E-002 -1.838427778900438E-002
 -2.320014315178548E-002 -2.763890288787426E-002 -3.143970394449276E-002
 -3.447539076661003E-002 -3.679168976136481E-002 -3.848528426515805E-002
 -3.968682183911389E-002 -4.051708164825068E-002  0.000000000000000E+000
 -2.059343134687265E-004 -5.967154644315922E-004 -1.288783171780619E-003
 -2.918895425121374E-003 -5.573396522451829E-003 -9.167771110016921E-003
 -1.357217217812317E-002 -1.838427778900438E-002 -2.320014315178548E-002
 -2.763890288787426E-002 -3.143970394449276E-002 -3.447539076661003E-002
 -3.679168976136481E-002 -3.848528426515805E-002 -3.968682183911389E-002
 -4.051708164825068E-002  0.000000000000000E+000 -2.059343134687265E-004
 -5.967154644315922E-004 -1.288783171780619E-003 -2.918895425121374E-003
 -5.573396522451829E-003 -9.167771110016921E-003 -1.357217217812317E-002
 -1.838427778900438E-002 -2.320014315178548E-002 -2.763890288787426E-002
 -3.143970394449276E-002 -3.447539076661003E-002 -3.679168976136481E-002
 -3.848528426515805E-002 -3.968682183911389E-002 -4.051708164825068E-002
  0.000000000000000E+000 -2.059343134687265E-004 -5.967154644315922E-004
 -1.288783171780619E-003 -2.918895425121374E-003 -5.573396522451829E-003
 -9.167771110016921E-003 -1.357217217812317E-002 -1.838427778900438E-002
 -2.320014315178548E-002 -2.763890288787426E-002 -3.143970394449276E-002
 -3.447539076661003E-002 -3.679168976136481E-002 -3.848528426515805E-002
 -3.968682183911389E-002 -4.051708164825068E-002  0.000000000000000E+000
 -2.059343134687265E-004 -5.967154644315922E-004 -1.288783171780619E-003
 -2.918895425121374E-003 -5.573396522451829E-003 -9.167771110016921E-003
 -1.357217217812317E-002 -1.838427778900438E-002 -2.320014315178548E-002
 -2.763890288787426E-002 -3.143970394449276E-002 -3.447539076661003E-002
 -3.679168976136481E-002 -3.848528426515805E-002 -3.968682183911389E-002
 -4.051708164825068E-002  0.000000000000000E+000 -2.059343134687265E-004
 -5.967154644315922E-004 -1.288783171780619E-003 -2.918895425121374E-003
 -5.573396522451829E-003 -9.167771110016921E-003 -1.357217217812317E-002
 -1.838427778900438E-002 -2.320014315178548E-002 -2.763890288787426E-002
 -3.143970394449276E-002 -3.447539076661003E-002 -3.679168976136481E-002
 -3.848528426515805E-002 -3.968682183911389E-002 -4.051708164825068E-002
  0.000000000000000E+000 -2.059343134687265E-004 -5.967154644315922E-004
 -1.288783171780619E-003 -2.918895425121374E-003 -5.573396522451829E-003
 -9.167771110016921E-003 -1.357217217812317E-002 -1.838427778900438E-002
 -2.320014315178548E-002 -2.763890288787426E-002 -3.143970394449276E-002
 -3.447539076661003E-002 -3.679168976136481E-002 -3.848528426515805E-002
 -3.968682183911389E-002 -4.051708164825068E-002  0.000000000000000E+000
 -2.059343134687265E-004 -5.967154644315922E-004 -1.288783171780619E-003
 -2.918895425121374E-003 -5.573396522451829E-003 -9.167771110016921E-003
 -1.357217217812317E-002 -1.838427778900438E-002 -2.320014315178548E-002
 -2.763890288787426E-002 -3.143970394449276E-002 -3.447539076661003E-002
 -3.679168976136481E-002 -3.848528426515805E-002 -3.968682183911389E-002
 -4.051708164825068E-002  0.000000000000000E+000 -2.059343134687265E-004
 -5.967154644315922E-004 -1.288783171780619E-003 -2.918895425121374E-003
 -5.573396522451829E-003 -9.167771110016921E-003 -1.357217217812317E-002
 -1.838427778900438E-002 -2.320014315178548E-002 -2.763890288787426E-002
 -3.143970394449276E-002 -3.447539076661003E-002 -3.679168976136481E-002
 -3.848528426515805E-002 -3.968682183911389E-002 -4.051708164825068E-002
  0.000000000000000E+000 -2.059343134687265E-004 -5.967154644315922E-004
 -1.288783171780619E-003 -2.918895425121374E-003 -5.573396522451829E-003
 -9.167771110016921E-003 -1.357217217812317E-002 -1.838427778900438E-002
 -2.320014315178548E-002 -2.763890288787426E-002 -3.143970394449276E-002
 -3.447539076661003E-002 -3.679168976136481E-002 -3.848528426515805E-002
 -3.968682183911389E-002 -4.051708164825068E-002  0.000000000000000E+000
 -2.059343134687265E-004 -5.967154644315922E-004 -1.288783171780619E-003
 -2.918895425121374E-003 -5.573396522451829E-003 -9.167771110016921E-003
 -1.357217217812317E-002 -1.838427778900438E-002 -2.320014315178548E-002
 -2.763890288787426E-002 -3.143970394449276E-002 -3.447539076661003E-002
 -3.679168976136481E-002 -3.848528426515805E-002 -3.968682183911389E-002
 -4.051708164825068E-002  0.000000000000000E+000 -2.059343134687265E-004
 -5.967154644315922E-004 -1.288783171780619E-003 -2.918895425121374E-003
 -5.573396522451829E-003 -9.167771110016921E-003 -1.357217217812317E-002
 -1.838427778900438E-002 -2.320014315178548E-002 -2.763890288787426E-002
 -3.143970394449276E-002 -3.447539076661003E-002 -3.679168976136481E-002
 -3.848528426515805E-002 -3.968682183911389E-002 -4.051708164825068E-002
  0.000000000000000E+000 -2.059343134687265E-004 -5.967154644315922E-004
 -1.288783171780619E-003 -2.918895425121374E-003 -5.573396522451829E-003
 -9.167771110016921E-003 -1.357217217812317E-002 -1.838427778900438E-002
 -2.320014315178548E-002 -2.763890288787426E-002 -3.143970394449276E-002
 -3.447539076661003E-002 -3.679168976136481E-002 -3.848528426515805E-002
 -3.968682183911389E-002 -4.051708164825068E-002  0.000000000000000E+000
 -2.059343134687265E-004 -5.967154644315922E-004 -1.288783171780619E-003
 -2.918895425121374E-003 -5.573396522451829E-003 -9.167771110016921E-003
 -1.357217217812317E-002 -1.838427778900438E-002 -2.320014315178548E-002
 -2.763890288787426E-002 -3.143970394449276E-002 -3.447539076661003E-002
 -3.679168976136481E-002 -3.848528426515805E-002 -3.968682183911389E-002
 -4.051708164825068E-002  0.000000000000000E+000 -2.059343134687265E-004
 -5.967154644315922E-004 -1.288783171780619E-003 -2.918895425121374E-003
 -5.573396522451829E-003 -9.167771110016921E-003 -1.357217217812317E-002
 -1.838427778900438E-002 -2.320014315178548E-002 -2.763890288787426E-002
 -3.143970394449276E-002 -3.447539076661003E-002 -3.679168976136481E-002
 -3.848528426515805E-002 -3.968682183911389E-002 -4.051708164825068E-002
  0.000000000000000E+000 -2.059343134687265E-004 -5.967154644315922E-004
 -1.288783171780619E-003 -2.918895425121374E-003 -5.573396522451829E-003
 -9.167771110016921E-003 -1.357217217812317E-002 -1.838427778900438E-002
 -2.320014315178548E-002 -2.763890288787426E-002 -3.143970394449276E-002
 -3.447539076661003E-002 -3.679168976136481E-002 -3.848528426515805E-002
 -3.968682183911389E-002 -4.051708164825068E-002  0.000000000000000E+000
 -2.059343134687265E-004 -5.967154644315922E-004 -1.288783171780619E-003
 -2.918895425121374E-003 -5.573396522451829E-003 -9.167771110016921E-003
 -1.357217217812317E-002 -1.838427778900438E-002 -2.320014315178548E-002
 -2.763890288787426E-002 -3.143970394449276E-002 -3.447539076661003E-002
 -3.679168976136481E-002 -3.848528426515805E-002 -3.968682183911389E-002
 -4.051708164825068E-002
 -0.291571742681633      -0.571831202759266      -0.657901414294563     
 -0.482307471692599      -0.272547467614150      -0.104395544122891     
  2.896848701559847E-002  0.103168133722869       0.144387975603554     
  0.163301351905581       0.167003166751992       0.158203676249686     
  0.147407776361655       0.134832099583024       0.124297283460381     
  0.118211510075446      -0.342871752270268      -0.687395585227892     
 -0.815532849070973      -0.617129726166416      -0.333232852059256     
 -7.974111101096772E-002  0.129219165010181       0.254355352711309     
  0.326971814402584       0.362997566042775       0.373816815876567     
  0.365642593687749       0.353469584289856       0.339429044874208     
  0.328271670009061       0.322106142585441      -0.344483317395364     
 -0.693260369980370      -0.819853328608880      -0.597951741050795     
 -0.264512804991758       5.584773985225189E-002  0.332565050184311     
  0.511392637586780       0.621440820290204       0.681199356164650     
  0.705841872811417       0.705318032705769       0.697933742399978     
  0.687021236549203       0.677664032904620       0.672331094635917     
 -0.312209921314913      -0.627390800979737      -0.716602764458875     
 -0.442612611418056      -4.605282725640695E-002  0.345871845777197     
  0.695981066453159       0.938345995207525        1.09753411596183     
   1.19230174912608        1.24076408637132        1.25602334378090     
   1.25904150688877        1.25432810509963        1.24829038209447     
   1.24456340677411      -0.245618134540904      -0.489842017334730     
 -0.504338812867641      -0.138964041512430       0.355765748439142     
  0.846524084168357        1.29194823724052        1.61742103121814     
   1.84400417824216        1.98972407935885        2.07462782980970     
   2.11434758574530        2.13293184323576        2.13725120519807     
   2.13619885193125        2.13490721873638      -0.138659801689184     
 -0.268269462868882      -0.164035082112494       0.341671227700814     
  0.983976181014874        1.61904556829990        2.19920802343499     
   2.64026872694242        2.96069308943001        3.17783416324142     
   3.31362079738975        3.38683100830873        3.42633233309391     
   3.44287413272532        3.44862877485405        3.45053829446118     
  1.678528916950757E-002  5.408168236646076E-002  0.329481413086354     
   1.03394645941687        1.88430394562262        2.72202554852056     
   3.48972521218277        4.09008490385374        4.53829664367337     
   4.85131549850979        5.05420682067652        5.17088389161698     
   5.23738161308913        5.26969189069419        5.28404785361607     
   5.28983181740735       0.227955656247936       0.492078830063773     
  0.997958860894306        1.96623051569209        3.09182030788300     
   4.19740124965187        5.21214267751259        6.02124408686928     
   6.63520565277536        7.07092529075357        7.35853630921306     
   7.52957724797909        7.62961640927836        7.68126271505084     
   7.70588224751096        7.71614781705276       0.498648061692110     
   1.05337561052933        1.85169434895007        3.14989416851319     
   4.61820361507788        6.05675668403535        7.37761245426475     
   8.44431546478018        9.26120435714439        9.84555474140243     
   10.2346190611234        10.4700557121631        10.6092917533152     
   10.6831014503313        10.7192065182268        10.7343863755854     
  0.828190908559653        1.73637368713437        2.88670485845481     
   4.57596369349398        6.44842793856186        8.27886538595143     
   9.95897629304620        11.3271488013573        12.3800339881577     
   13.1354638993246        13.6395212254383        13.9464008231780     
   14.1278930544175        14.2248192098174        14.2725297388416     
   14.2925693500629        1.21703256899268        2.54177201066883     
   4.10191412498349        6.23810798347808        8.56974585403624     
   10.8449802713160        12.9331816940353        14.6460829610591     
   15.9717728486704        16.9278710701930        17.5685770126887     
   17.9607582525996        18.1921060351951        18.3157027673161     
   18.3764539378260        18.4018516913885        1.68591200975438     
   3.51031480215654        5.55071799085958        8.19347649256395     
   11.0366053135341        13.8028351964956        16.3415667290083     
   18.4435815364165        20.0933200086751        21.3090523017566     
   22.1482798159336        22.6828297140465        23.0099462634601     
   23.1922615082082        23.2851073196654        23.3246466960743     
   2.19377851787685        4.55262942215050        7.08914675002615     
   10.2304502079092        13.5556315594623        16.7653969375535     
   19.6971824534246        22.1352157417127        24.0735778755174     
   25.5385378762314        26.5889288168012        27.2931430886920     