 Title = "Wing and Wake"
 VARIABLES = "X" "Y" "Z" "GAM" "skew"
 Zone I=   17 J=   20 K=1  T="Blade 01"
 DATAPACKING=BLOCK
 VARLOCATION=([4]=CELLCENTERED,[5]=CELLCENTERED)
 -0.430513849156729      -0.429910303135933      -0.428359101540891     
 -0.426024476763532      -0.422821316475762      -0.418619247491487     
 -0.413384201101009      -0.407273511463085      -0.400654849541472     
 -0.394046760918679      -0.387962931959866      -0.382762736931116     
 -0.378601189324501      -0.375432782772237      -0.373116208866839     
 -0.371472061902647      -0.370337574347187      -0.438573982141875     
 -0.437970436121080      -0.436419234526037      -0.434084609748680     
 -0.430881449460911      -0.426679380476634      -0.421444334086155     
 -0.415333644448232      -0.408714982526619      -0.402106893903825     
 -0.396023064945013      -0.390822869916263      -0.386661322309649     
 -0.383492915757386      -0.381176341851987      -0.379532194887795     
 -0.378397707332335      -0.449972847415615      -0.449369301394820     
 -0.447818099799778      -0.445483475022419      -0.442280314734650     
 -0.438078245750374      -0.432843199359896      -0.426732509721972     
 -0.420113847800359      -0.413505759177565      -0.407421930218752     
 -0.402221735190003      -0.398060187583388      -0.394891781031125     
 -0.392575207125726      -0.390931060161534      -0.389796572606075     
 -0.465886074784704      -0.465282528763909      -0.463731327168866     
 -0.461396702391507      -0.458193542103739      -0.453991473119463     
 -0.448756426728985      -0.442645737091061      -0.436027075169447     
 -0.429418986546653      -0.423335157587841      -0.418134962559092     
 -0.413973414952476      -0.410805008400214      -0.408488434494814     
 -0.406844287530622      -0.405709799975163      -0.487704880984104     
 -0.487101334963309      -0.485550133368267      -0.483215508590909     
 -0.480012348303138      -0.475810279318862      -0.470575232928384     
 -0.464464543290461      -0.457845881368848      -0.451237792746054     
 -0.445153963787242      -0.439953768758492      -0.435792221151877     
 -0.432623814599613      -0.430307240694215      -0.428663093730023     
 -0.427528606174563      -0.516893284434776      -0.516289738413981     
 -0.514738536818938      -0.512403912041579      -0.509200751753810     
 -0.504998682769533      -0.499763636379055      -0.493652946741132     
 -0.487034284819518      -0.480426196196725      -0.474342367237912     
 -0.469142172209163      -0.464980624602548      -0.461812218050284     
 -0.459495644144885      -0.457851497180694      -0.456717009625235     
 -0.554680271533984      -0.554076725513189      -0.552525523918146     
 -0.550190899140786      -0.546987738853017      -0.542785669868742     
 -0.537550623478264      -0.531439933840340      -0.524821271918727     
 -0.518213183295933      -0.512129354337121      -0.506929159308369     
 -0.502767611701757      -0.499599205149493      -0.497282631244094     
 -0.495638484279902      -0.494503996724442      -0.601574420769445     
 -0.600970874748650      -0.599419673153608      -0.597085048376250     
 -0.593881888088481      -0.589679819104205      -0.584444772713726     
 -0.578334083075802      -0.571715421154190      -0.565107332531395     
 -0.559023503572584      -0.553823308543834      -0.549661760937218     
 -0.546493354384955      -0.544176780479557      -0.542532633515364     
 -0.541398145959906      -0.656811361407037      -0.656207815386243     
 -0.654656613791200      -0.652321989013842      -0.649118828726072     
 -0.644916759741796      -0.639681713351319      -0.633571023713396     
 -0.626952361791781      -0.620344273168989      -0.614260444210174     
 -0.609060249181425      -0.604898701574811      -0.601730295022547     
 -0.599413721117149      -0.597769574152956      -0.596635086597496     
 -0.718012967662672      -0.717409421641875      -0.715858220046833     
 -0.713523595269475      -0.710320434981706      -0.706118365997431     
 -0.700883319606952      -0.694772629969028      -0.688153968047416     
 -0.681545879424622      -0.675462050465810      -0.670261855437061     
 -0.666100307830445      -0.662931901278181      -0.660615327372784     
 -0.658971180408590      -0.657836692853132      -0.781391579173726     
 -0.780788033152933      -0.779236831557888      -0.776902206780530     
 -0.773699046492761      -0.769496977508486      -0.764261931118007     
 -0.758151241480084      -0.751532579558470      -0.744924490935675     
 -0.738840661976863      -0.733640466948114      -0.729478919341499     
 -0.726310512789238      -0.723993938883837      -0.722349791919645     
 -0.721215304364186      -0.842593185429361      -0.841989639408565     
 -0.840438437813524      -0.838103813036165      -0.834900652748396     
 -0.830698583764121      -0.825463537373641      -0.819352847735717     
 -0.812734185814105      -0.806126097191311      -0.800042268232497     
 -0.794842073203747      -0.790680525597133      -0.787512119044870     
 -0.785195545139472      -0.783551398175280      -0.782416910619818     
 -0.897830126066953      -0.897226580046158      -0.895675378451115     
 -0.893340753673757      -0.890137593385988      -0.885935524401711     
 -0.880700478011231      -0.874589788373310      -0.867971126451697     
 -0.861363037828902      -0.855279208870091      -0.850079013841340     
 -0.845917466234723      -0.842749059682462      -0.840432485777063     
 -0.838788338812870      -0.837653851257410      -0.944724275302413     
 -0.944120729281620      -0.942569527686578      -0.940234902909217     
 -0.937031742621448      -0.932829673637174      -0.927594627246695     
 -0.921483937608772      -0.914865275687159      -0.908257187064366     
 -0.902173358105553      -0.896973163076803      -0.892811615470189     
 -0.889643208917924      -0.887326635012526      -0.885682488048333     
 -0.884548000492875      -0.982511262401623      -0.981907716380828     
 -0.980356514785785      -0.978021890008426      -0.974818729720659     
 -0.970616660736382      -0.965381614345903      -0.959270924707980     
 -0.952652262786367      -0.946044174163573      -0.939960345204760     
 -0.934760150176011      -0.930598602569397      -0.927430196017133     
 -0.925113622111733      -0.923469475147543      -0.922334987592083     
  -1.01169966585229       -1.01109611983150       -1.00954491823646     
  -1.00721029345910       -1.00400713317133      -0.999805064187053     
 -0.994570017796572      -0.988459328158653      -0.981840666237035     
 -0.975232577614245      -0.969148748655432      -0.963948553626681     
 -0.959787006020067      -0.956618599467803      -0.954302025562405     
 -0.952657878598213      -0.951523391042755       -1.03351847205170     
  -1.03291492603090       -1.03136372443586       -1.02902909965850     
  -1.02582593937073       -1.02162387038645       -1.01638882399597     
  -1.01027813435805       -1.00365947243644      -0.997051383813646     
 -0.990967554854829      -0.985767359826080      -0.981605812219466     
 -0.978437405667204      -0.976120831761804      -0.974476684797615     
 -0.973342197242153       -1.04943169942078       -1.04882815339999     
  -1.04727695180494       -1.04494232702759       -1.04173916673982     
  -1.03753709775554       -1.03230205136506       -1.02619136172714     
  -1.01957269980553       -1.01296461118273       -1.00688078222392     
  -1.00168058719517      -0.997519039588555      -0.994350633036294     
 -0.992034059130895      -0.990389912166703      -0.989255424611241     
  -1.06083056469452       -1.06022701867372       -1.05867581707868     
  -1.05634119230133       -1.05313803201356       -1.04893596302928     
  -1.04370091663880       -1.03759022700088       -1.03097156507927     
  -1.02436347645647       -1.01827964749766       -1.01307945246891     
  -1.00891790486229       -1.00574949831003       -1.00343292440463     
  -1.00178877744044       -1.00065428988498       -1.06889069767967     
  -1.06828715165888       -1.06673595006383       -1.06440132528647     
  -1.06119816499871       -1.05699609601443       -1.05176104962395     
  -1.04565035998602       -1.03903169806441       -1.03242360944162     
  -1.02633978048281       -1.02113958545406       -1.01697803784744     
  -1.01380963129518       -1.01149305738978       -1.00984891042559     
  -1.00871442287013     
  6.127486936345698E-002  6.292834912121575E-002  6.717803406525495E-002
  7.357399175252755E-002  8.234939663335031E-002  9.386142018551813E-002
  0.108203397332823       0.124944294089874       0.143076835990201     
  0.161180411192101       0.177847720206612       0.192094218270030     
  0.203495229114946       0.212175422369505       0.218521927736047     
  0.223026246595598       0.226134298249904       6.421694420134585E-002
  6.587042395910564E-002  7.012010890314421E-002  7.651606659041754E-002
  8.529147147124011E-002  9.680349502340771E-002  0.111145472170712     
  0.127886368927763       0.146018910828090       0.164122486029991     
  0.180789795044502       0.195036293107920       0.206437303952836     
  0.215117497207395       0.221464002573937       0.225968321433488     
  0.229076373087795       6.837770864086155E-002  7.003118839862085E-002
  7.428087334265918E-002  8.067683102993237E-002  8.945223591075460E-002
  0.100964259462923       0.115306236610227       0.132047133367278     
  0.150179675267605       0.168283250469506       0.184950559484017     
  0.199197057547435       0.210598068392351       0.219278261646909     
  0.225624767013452       0.230129085873002       0.233237137527310     
  7.418628598300782E-002  7.583976574076677E-002  8.008945068480564E-002
  8.648540837207799E-002  9.526081325290181E-002  0.106772836805069     
  0.121114813952373       0.137855710709424       0.155988252609752     
  0.174091827811652       0.190759136826162       0.205005634889581     
  0.216406645734497       0.225086838989056       0.231433344355597     
  0.235937663215149       0.239045714869455       8.215049213572741E-002
  8.380397189348666E-002  8.805365683752459E-002  9.444961452479776E-002
  0.103225019405621       0.114737042957788       0.129079020105093     
  0.145819916862144       0.163952458762471       0.182056033964371     
  0.198723342978882       0.212969841042300       0.224370851887217     
  0.233051045141774       0.239397550508317       0.243901869367868     
  0.247009921022175       9.280471676311650E-002  9.445819652087571E-002
  9.870788146491383E-002  0.105103839152187       0.113879244033010     
  0.125391267585178       0.139733244732482       0.156474141489532     
  0.174606683389859       0.192710258591760       0.209377567606271     
  0.223624065669690       0.235025076514606       0.243705269769163     
  0.250051775135705       0.254556093995257       0.257664145649564     
  0.106597559157789       0.108251038915548       0.112500723859586     
  0.118896681546860       0.127672086427683       0.139184109979850     
  0.153526087127155       0.170266983884205       0.188399525784532     
  0.206503100986433       0.223170410000944       0.237416908064361     
  0.248817918909279       0.257498112163836       0.263844617530378     
  0.268348936389930       0.271456988044236       0.123714658436935     
  0.125368138194695       0.129617823138733       0.136013780826007     
  0.144789185706830       0.156301209258997       0.170643186406301     
  0.187384083163352       0.205516625063679       0.223620200265580     
  0.240287509280091       0.254534007343509       0.265935018188425     
  0.274615211442983       0.280961716809526       0.285466035669076     
  0.288574087323383       0.143877007305289       0.145530487063048     
  0.149780172007087       0.156176129694359       0.164951534575183     
  0.176463558127350       0.190805535274655       0.207546432031707     
  0.225678973932032       0.243782549133934       0.260449858148444     
  0.274696356211861       0.286097367056778       0.294777560311337     
  0.301124065677878       0.305628384537430       0.308736436191737     
  0.166216552587598       0.167870032345356       0.172119717289395     
  0.178515674976668       0.187291079857491       0.198803103409658     
  0.213145080556964       0.229885977314014       0.248018519214342     
  0.266122094416242       0.282789403430753       0.297035901494171     
  0.308436912339087       0.317117105593646       0.323463610960187     
  0.327967929819738       0.331075981474047       0.189350738900733     
  0.191004218658494       0.195253903602532       0.201649861289805     
  0.210425266170627       0.221937289722796       0.236279266870100     
  0.253020163627151       0.271152705527478       0.289256280729378     
  0.305923589743889       0.320170087807306       0.331571098652223     
  0.340251291906781       0.346597797273324       0.351102116132875     
  0.354210167787182       0.211690284183042       0.213343763940802     
  0.217593448884841       0.223989406572114       0.232764811452937     
  0.244276835005103       0.258618812152408       0.275359708909458     
  0.293492250809787       0.311595826011688       0.328263135026198     
  0.342509633089614       0.353910643934533       0.362590837189090     
  0.368937342555633       0.373441661415183       0.376549713069490     
  0.231852633051396       0.233506112809153       0.237755797753193     
  0.244151755440467       0.252927160321290       0.264439183873457     
  0.278781161020761       0.295522057777813       0.313654599678140     
  0.331758174880039       0.348425483894551       0.362671981957969     
  0.374072992802884       0.382753186057444       0.389099691423984     
  0.393604010283537       0.396712061937843       0.248969732330543     
  0.250623212088303       0.254872897032341       0.261268854719614     
  0.270044259600436       0.281556283152604       0.295898260299909     
  0.312639157056958       0.330771698957286       0.348875274159187     
  0.365542583173698       0.379789081237115       0.391190092082032     
  0.399870285336591       0.406216790703131       0.410721109562683     
  0.413829161216991       0.262762574725215       0.264416054482974     
  0.268665739427013       0.275061697114286       0.283837101995108     
  0.295349125547277       0.309691102694580       0.326431999451633     
  0.344564541351960       0.362668116553860       0.379335425568370     
  0.393581923631788       0.404982934476705       0.413663127731263     
  0.420009633097804       0.424513951957356       0.427622003611663     
  0.273416799352603       0.275070279110364       0.279319964054403     
  0.285715921741675       0.294491326622498       0.306003350174665     
  0.320345327321970       0.337086224079022       0.355218765979347     
  0.373322341181249       0.389989650195760       0.404236148259177     
  0.415637159104094       0.424317352358652       0.430663857725194     
  0.435168176584745       0.438276228239053       0.281381005505324     
  0.283034485263084       0.287284170207122       0.293680127894395     
  0.302455532775217       0.313967556327385       0.328309533474689     
  0.345050430231740       0.363182972132068       0.381286547333970     
  0.397953856348477       0.412200354411898       0.423601365256813     
  0.432281558511371       0.438628063877912       0.443132382737466     
  0.446240434391771       0.287189582847470       0.288843062605228     
  0.293092747549268       0.299488705236542       0.308264110117362     
  0.319776133669532       0.334118110816835       0.350859007573887     
  0.368991549474214       0.387095124676114       0.403762433690625     
  0.418008931754044       0.429409942598959       0.438090135853518     
  0.444436641220060       0.448940960079612       0.452049011733918     
  0.291350347286985       0.293003827044744       0.297253511988783     
  0.303649469676056       0.312424874556878       0.323936898109047     
  0.338278875256350       0.355019772013401       0.373152313913730     
  0.391255889115630       0.407923198130140       0.422169696193556     
  0.433570707038473       0.442250900293032       0.448597405659574     
  0.453101724519127       0.456209776173433       0.294292422124875     
  0.295945901882634       0.300195586826673       0.306591544513945     
  0.315366949394769       0.326878972946936       0.341220950094240     
  0.357961846851291       0.376094388751618       0.394197963953518     
  0.410865272968029       0.425111771031446       0.436512781876364     
  0.445192975130921       0.451539480497463       0.456043799357015     
  0.459151851011324     
  0.000000000000000E+000 -2.059343134687265E-004 -5.967154644315922E-004
 -1.288783171780619E-003 -2.918895425121374E-003 -5.573396522451829E-003
 -9.167771110016921E-003 -1.357217217812317E-002 -1.838427778900438E-002
 -2.320014315178548E-002 -2.763890288787426E-002 -3.143970394449276E-002
 -3.447539076661003E-002 -3.679168976136481E-002 -3.848528426515805E-002
 -3.968682183911389E-002 -4.051708164825068E-002  0.000000000000000E+000
 -2.059343134687265E-004 -5.967154644315922E-004 -1.288783171780619E-003
 -2.918895425121374E-003 -5.573396522451829E-003 -9.167771110016921E-003
 -1.357217217812317E-002 -1.838427778900438E-002 -2.320014315178548E-002
 -2.763890288787426E-002 -3.143970394449276E-002 -3.447539076661003E-002
 -3.679168976136481E-002 -3.848528426515805E-002 -3.968682183911389E-002
 -4.051708164825068E-002  0.000000000000000E+000 -2.059343134687265E-004
 -5.967154644315922E-004 -1.288783171780619E-003 -2.918895425121374E-003
 -5.573396522451829E-003 -9.167771110016921E-003 -1.357217217812317E-002
 -1.838427778900438E-002 -2.320014315178548E-002 -2.763890288787426E-002
 -3.143970394449276E-002 -3.447539076661003E-002 -3.679168976136481E-002
 -3.848528426515805E-002 -3.968682183911389E-002 -4.051708164825068E-002
  0.000000000000000E+000 -2.059343134687265E-004 -5.967154644315922E-004
 -1.288783171780619E-003 -2.918895425121374E-003 -5.573396522451829E-003
 -9.167771110016921E-003 -1.357217217812317E-002 -1.838427778900438E-002
 -2.320014315178548E-002 -2.763890288787426E-002 -3.143970394449276E-002
 -3.447539076661003E-002 -3.679168976136481E-002 -3.848528426515805E-002
 -3.968682183911389E-002 -4.051708164825068E-002  0.000000000000000E+000
 -2.059343134687265E-004 -5.967154644315922E-004 -1.288783171780619E-003
 -2.918895425121374E-003 -5.573396522451829E-003 -9.167771110016921E-003
 -1.357217217812317E-002 -1.838427778900438E-002 -2.320014315178548E-002
 -2.763890288787426E-002 -3.143970394449276E-002 -3.447539076661003E-002
 -3.679168976136481E-002 -3.848528426515805E-002 -3.968682183911389E-002
 -4.051708164825068E-002  0.000000000000000E+000 -2.059343134687265E-004
 -5.967154644315922E-004 -1.288783171780619E-003 -2.918895425121374E-003
 -5.573396522451829E-003 -9.167771110016921E-003 -1.357217217812317E-002
 -1.838427778900438E-002 -2.320014315178548E-002 -2.763890288787426E-002
 -3.143970394449276E-002 -3.447539076661003E-002 -3.679168976136481E-002
 -3.848528426515805E-002 -3.968682183911389E-002 -4.051708164825068E-002
  0.000000000000000E+000 -2.059343134687265E-004 -5.967154644315922E-004
 -1.288783171780619E-003 -2.918895425121374E-003 -5.573396522451829E-003
 -9.167771110016921E-003 -1.357217217812317E-002 -1.838427778900438E-002
 -2.320014315178548E-002 -2.763890288787426E-002 -3.143970394449276E-002
 -3.447539076661003E-002 -3.679168976136481E-002 -3.848528426515805E-002
 -3.968682183911389E-002 -4.051708164825068E-002  0.000000000000000E+000
 -2.059343134687265E-004 -5.967154644315922E-004 -1.288783171780619E-003
 -2.918895425121374E-003 -5.573396522451829E-003 -9.167771110016921E-003
 -1.357217217812317E-002 -1.838427778900438E-002 -2.320014315178548E-002
 -2.763890288787426E-002 -3.143970394449276E-002 -3.447539076661003E-002
 -3.679168976136481E-002 -3.848528426515805E-002 -3.968682183911389E-002
 -4.051708164825068E-002  0.000000000000000E+000 -2.059343134687265E-004
 -5.967154644315922E-004 -1.288783171780619E-003 -2.918895425121374E-003
 -5.573396522451829E-003 -9.167771110016921E-003 -1.357217217812317E-002
 -1.838427778900438E-002 -2.320014315178548E-002 -2.763890288787426E-002
 -3.143970394449276E-002 -3.447539076661003E-002 -3.679168976136481E-002
 -3.848528426515805E-002 -3.968682183911389E-002 -4.051708164825068E-002
  0.000000000000000E+000 -2.059343134687265E-004 -5.967154644315922E-004
 -1.288783171780619E-003 -2.918895425121374E-003 -5.573396522451829E-003
 -9.167771110016921E-003 -1.357217217812317E-002 -1.838427778900438E-002
 -2.320014315178548E-002 -2.763890288787426E-002 -3.143970394449276E-002
 -3.447539076661003E-002 -3.679168976136481E-002 -3.848528426515805E-002
 -3.968682183911389E-002 -4.051708164825068E-002  0.000000000000000E+000
 -2.059343134687265E-004 -5.967154644315922E-004 -1.288783171780619E-003
 -2.918895425121374E-003 -5.573396522451829E-003 -9.167771110016921E-003
 -1.357217217812317E-002 -1.838427778900438E-002 -2.320014315178548E-002
 -2.763890288787426E-002 -3.143970394449276E-002 -3.447539076661003E-002
 -3.679168976136481E-002 -3.848528426515805E-002 -3.968682183911389E-002
 -4.051708164825068E-002  0.000000000000000E+000 -2.059343134687265E-004
 -5.967154644315922E-004 -1.288783171780619E-003 -2.918895425121374E-003
 -5.573396522451829E-003 -9.167771110016921E-003 -1.357217217812317E-002
 -1.838427778900438E-002 -2.320014315178548E-002 -2.763890288787426E-002
 -3.143970394449276E-002 -3.447539076661003E-002 -3.679168976136481E-002
 -3.848528426515805E-002 -3.968682183911389E-002 -4.051708164825068E-002
  0.000000000000000E+000 -2.059343134687265E-004 -5.967154644315922E-004
 -1.288783171780619E-003 -2.918895425121374E-003 -5.573396522451829E-003
 -9.167771110016921E-003 -1.357217217812317E-002 -1.838427778900438E-002
 -2.320014315178548E-002 -2.763890288787426E-002 -3.143970394449276E-002
 -3.447539076661003E-002 -3.679168976136481E-002 -3.848528426515805E-002
 -3.968682183911389E-002 -4.051708164825068E-002  0.000000000000000E+000
 -2.059343134687265E-004 -5.967154644315922E-004 -1.288783171780619E-003
 -2.918895425121374E-003 -5.573396522451829E-003 -9.167771110016921E-003
 -1.357217217812317E-002 -1.838427778900438E-002 -2.320014315178548E-002
 -2.763890288787426E-002 -3.143970394449276E-002 -3.447539076661003E-002
 -3.679168976136481E-002 -3.848528426515805E-002 -3.968682183911389E-002
 -4.051708164825068E-002  0.000000000000000E+000 -2.059343134687265E-004
 -5.967154644315922E-004 -1.288783171780619E-003 -2.918895425121374E-003
 -5.573396522451829E-003 -9.167771110016921E-003 -1.357217217812317E-002
 -1.838427778900438E-002 -2.320014315178548E-002 -2.763890288787426E-002
 -3.143970394449276E-002 -3.447539076661003E-002 -3.679168976136481E-002
 -3.848528426515805E-002 -3.968682183911389E-002 -4.051708164825068E-002
  0.000000000000000E+000 -2.059343134687265E-004 -5.967154644315922E-004
 -1.288783171780619E-003 -2.918895425121374E-003 -5.573396522451829E-003
 -9.167771110016921E-003 -1.357217217812317E-002 -1.838427778900438E-002
 -2.320014315178548E-002 -2.763890288787426E-002 -3.143970394449276E-002
 -3.447539076661003E-002 -3.679168976136481E-002 -3.848528426515805E-002
 -3.968682183911389E-002 -4.051708164825068E-002  0.000000000000000E+000
 -2.059343134687265E-004 -5.967154644315922E-004 -1.288783171780619E-003
 -2.918895425121374E-003 -5.573396522451829E-003 -9.167771110016921E-003
 -1.357217217812317E-002 -1.838427778900438E-002 -2.320014315178548E-002
 -2.763890288787426E-002 -3.143970394449276E-002 -3.447539076661003E-002
 -3.679168976136481E-002 -3.848528426515805E-002 -3.968682183911389E-002
 -4.051708164825068E-002  0.000000000000000E+000 -2.059343134687265E-004
 -5.967154644315922E-004 -1.288783171780619E-003 -2.918895425121374E-003
 -5.573396522451829E-003 -9.167771110016921E-003 -1.357217217812317E-002
 -1.838427778900438E-002 -2.320014315178548E-002 -2.763890288787426E-002
 -3.143970394449276E-002 -3.447539076661003E-002 -3.679168976136481E-002
 -3.848528426515805E-002 -3.968682183911389E-002 -4.051708164825068E-002
  0.000000000000000E+000 -2.059343134687265E-004 -5.967154644315922E-004
 -1.288783171780619E-003 -2.918895425121374E-003 -5.573396522451829E-003
 -9.167771110016921E-003 -1.357217217812317E-002 -1.838427778900438E-002
 -2.320014315178548E-002 -2.763890288787426E-002 -3.143970394449276E-002
 -3.447539076661003E-002 -3.679168976136481E-002 -3.848528426515805E-002
 -3.968682183911389E-002 -4.051708164825068E-002  0.000000000000000E+000
 -2.059343134687265E-004 -5.967154644315922E-004 -1.288783171780619E-003
 -2.918895425121374E-003 -5.573396522451829E-003 -9.167771110016921E-003
 -1.357217217812317E-002 -1.838427778900438E-002 -2.320014315178548E-002
 -2.763890288787426E-002 -3.143970394449276E-002 -3.447539076661003E-002
 -3.679168976136481E-002 -3.848528426515805E-002 -3.968682183911389E-002
 -4.051708164825068E-002
 -0.126501808055808      -0.247354242923310      -0.298583416733346     
 -0.262363221715348      -0.212728119301588      -0.174512916074450     
 -0.146023394707066      -0.135387577147330      -0.134564264057851     
 -0.140054695636950      -0.149110611246560      -0.160276413907397     
 -0.169943960730684      -0.178209022196710      -0.184408550280716     
 -0.188201176327883      -0.152912872395144      -0.306882264089859     
 -0.384634394310667      -0.353550322748752      -0.291396574082276     
 -0.235743971580503      -0.191841743440861      -0.172916564274135     
 -0.169590922691196      -0.176776776888676      -0.190253706099050     
 -0.207322075651000      -0.222957947151604      -0.236561838992488     
 -0.246626872438152      -0.252238368006677      -0.159200478444705     
 -0.321567964251317      -0.406695667438962      -0.376878484558055     
 -0.307962410186098      -0.239560414879297      -0.181895878803476     
 -0.153088724054861      -0.144708739272775      -0.150968521260158     
 -0.166352161401719      -0.186672632651015      -0.205348977530185     
 -0.220850940617031      -0.231566594180120      -0.237122658328011     
 -0.151186034101453      -0.305806099688675      -0.382724624176696     
 -0.341082146959627      -0.257837499787207      -0.172953693047036     
 -9.826069262815808E-002 -5.538283453373437E-002 -3.733823790792814E-002
 -3.816561804200902E-002 -5.104695695155937E-002 -7.020010521476251E-002
 -8.780868684053296E-002 -0.102176187439286      -0.111901149730083     
 -0.116789723633972      -0.127621229080853      -0.257503424755078     
 -0.309379292114555      -0.238384927560855      -0.124707876420660     
 -1.021451520638731E-002  9.218164545458442E-002  0.158425766377196     
  0.194704455984105       0.207171892176443       0.203782153868933     
  0.191431406599144       0.178715087531297       0.167590834399237     
  0.159874808020401       0.156049517954733      -8.430017197013759E-002
 -0.168068258939344      -0.173807172568416      -5.073005739688936E-002
  0.116490008357097       0.282464277265863       0.432148744084696     
  0.538559534326411       0.607380096819552       0.644964490460762     
  0.660121780122015       0.660662932283134       0.656455864001244     
  0.650561088617558       0.645873709225818       0.643511909611227     
 -1.538620387397896E-002 -2.544969546343297E-002  4.191594112603063E-002
  0.245986144074414       0.496711909364077       0.743762254678318     
  0.968506891035273        1.13940724050214        1.26091318012671     
   1.33916310103617        1.38383684431140        1.40427901959224     
   1.41280667599654        1.41454578050788        1.41409886992535     
   1.41366950857223       8.483586347448017E-002  0.182132179743037     
  0.355099381860592       0.674439209347175        1.04408169752362     
   1.40738787732755        1.74053714467229        2.00537923204673     
   2.20387021296765        2.34133427114812        2.42861304186932     
   2.47755090763398        2.50417102543287        2.51660676827556     
   2.52193266722188        2.52404766391305       0.218586443059856     
  0.459160773200557       0.771921504049760        1.24184214517533     
   1.76648196793026        2.28168412067095        2.75695179240049     
   3.14568460546696        3.44620580301253        3.66251162339265     
   3.80684543835477        3.89426137198141        3.94543345982119     
   3.97235049399740        3.98540503486389        3.99088164641816     
  0.378845184648653       0.790943035854569        1.26989233514012     
   1.91689920966190        2.62310086947146        3.31608278243578     
   3.95781566073877        4.49234495943080        4.91388085352102     
   5.22482485222414        5.43875192276957        5.57398509633159     
   5.65613726213068        5.70151006143422        5.72445265703340     
   5.73422870245762       0.544112602087608        1.13280989673305     
   1.78205632634268        2.60934343379788        3.49943535067937     
   4.37172610850541        5.18102831419144        5.86278650840409     
   6.40780753916365        6.81709623714294        7.10509266415666     
   7.29257889790205        7.40941568428981        7.47587785665910     
   7.51028758827884        7.52508963361619       0.682916216300704     
   1.41943277774911        2.21087579063537        3.18852711089896     
   4.23060971868017        5.24927269804923        6.19407197799438     
   6.99469915144712        7.64095508450820        8.13347161869814     
   8.48677848143568        8.72232187979783        8.87233752209027     
   8.95969180720949        9.00578476849830        9.02580066188835     
  0.769591345672474        1.59744147414821        2.47647568528705     
   3.54712006719071        4.68046106103868        5.78280188075108     
   6.80142385646942        7.66494100271590        8.36646647772127     
   8.90868127243571        9.30560041795625        9.57663031336014     