 Title = "Wing and Wake"
 VARIABLES = "X" "Y" "Z" "GAM" "skew"
 Zone I=   17 J=   20 K=1  T="Blade 01"
 DATAPACKING=BLOCK
 VARLOCATION=([4]=CELLCENTERED,[5]=CELLCENTERED)
  0.430513849156734       0.429910303135938       0.428359101540894     
  0.426024476763536       0.422821316475768       0.418619247491490     
  0.413384201101014       0.407273511463085       0.400654849541479     
  0.394046760918681       0.387962931959866       0.382762736931117     
  0.378601189324503       0.375432782772239       0.373116208866844     
  0.371472061902650       0.370337574347186       0.438573982141879     
  0.437970436121085       0.436419234526040       0.434084609748684     
  0.430881449460914       0.426679380476638       0.421444334086161     
  0.415333644448235       0.408714982526623       0.402106893903828     
  0.396023064945018       0.390822869916270       0.386661322309651     
  0.383492915757389       0.381176341851989       0.379532194887798     
  0.378397707332339       0.449972847415620       0.449369301394823     
  0.447818099799782       0.445483475022424       0.442280314734653     
  0.438078245750375       0.432843199359899       0.426732509721976     
  0.420113847800363       0.413505759177569       0.407421930218753     
  0.402221735190006       0.398060187583393       0.394891781031128     
  0.392575207125726       0.390931060161534       0.389796572606077     
  0.465886074784711       0.465282528763914       0.463731327168871     
  0.461396702391511       0.458193542103744       0.453991473119470     
  0.448756426728990       0.442645737091065       0.436027075169451     
  0.429418986546658       0.423335157587843       0.418134962559097     
  0.413973414952476       0.410805008400218       0.408488434494819     
  0.406844287530623       0.405709799975167       0.487704880984110     
  0.487101334963314       0.485550133368274       0.483215508590915     
  0.480012348303139       0.475810279318867       0.470575232928389     
  0.464464543290464       0.457845881368854       0.451237792746058     
  0.445153963787247       0.439953768758494       0.435792221151880     
  0.432623814599616       0.430307240694218       0.428663093730024     
  0.427528606174566       0.516893284434781       0.516289738413985     
  0.514738536818944       0.512403912041583       0.509200751753815     
  0.504998682769538       0.499763636379057       0.493652946741132     
  0.487034284819525       0.480426196196732       0.474342367237917     
  0.469142172209166       0.464980624602554       0.461812218050283     
  0.459495644144883       0.457851497180698       0.456717009625239     
  0.554680271533991       0.554076725513194       0.552525523918157     
  0.550190899140789       0.546987738853020       0.542785669868742     
  0.537550623478265       0.531439933840345       0.524821271918732     
  0.518213183295937       0.512129354337125       0.506929159308369     
  0.502767611701763       0.499599205149492       0.497282631244097     
  0.495638484279906       0.494503996724449       0.601574420769448     
  0.600970874748650       0.599419673153607       0.597085048376258     
  0.593881888088490       0.589679819104217       0.584444772713737     
  0.578334083075810       0.571715421154192       0.565107332531403     
  0.559023503572588       0.553823308543842       0.549661760937218     
  0.546493354384961       0.544176780479562       0.542532633515365     
  0.541398145959909       0.656811361407037       0.656207815386246     
  0.654656613791208       0.652321989013846       0.649118828726078     
  0.644916759741800       0.639681713351326       0.633571023713406     
  0.626952361791787       0.620344273168992       0.614260444210175     
  0.609060249181426       0.604898701574817       0.601730295022552     
  0.599413721117150       0.597769574152959       0.596635086597498     
  0.718012967662674       0.717409421641879       0.715858220046838     
  0.713523595269477       0.710320434981713       0.706118365997436     
  0.700883319606957       0.694772629969036       0.688153968047421     
  0.681545879424631       0.675462050465817       0.670261855437070     
  0.666100307830449       0.662931901278183       0.660615327372788     
  0.658971180408593       0.657836692853136       0.781391579173734     
  0.780788033152941       0.779236831557897       0.776902206780536     
  0.773699046492772       0.769496977508496       0.764261931118016     
  0.758151241480094       0.751532579558470       0.744924490935682     
  0.738840661976868       0.733640466948117       0.729478919341499     
  0.726310512789246       0.723993938883839       0.722349791919647     
  0.721215304364190       0.842593185429373       0.841989639408575     
  0.840438437813530       0.838103813036174       0.834900652748400     
  0.830698583764128       0.825463537373647       0.819352847735725     
  0.812734185814111       0.806126097191318       0.800042268232509     
  0.794842073203748       0.790680525597142       0.787512119044878     
  0.785195545139479       0.783551398175287       0.782416910619820     
  0.897830126066961       0.897226580046168       0.895675378451122     
  0.893340753673766       0.890137593385993       0.885935524401718     
  0.880700478011232       0.874589788373316       0.867971126451707     
  0.861363037828902       0.855279208870100       0.850079013841350     
  0.845917466234723       0.842749059682470       0.840432485777073     
  0.838788338812876       0.837653851257418       0.944724275302417     
  0.944120729281627       0.942569527686589       0.940234902909230     
  0.937031742621456       0.932829673637182       0.927594627246703     
  0.921483937608781       0.914865275687164       0.908257187064379     
  0.902173358105562       0.896973163076814       0.892811615470197     
  0.889643208917933       0.887326635012535       0.885682488048341     
  0.884548000492885       0.982511262401627       0.981907716380839     
  0.980356514785794       0.978021890008426       0.974818729720665     
  0.970616660736393       0.965381614345903       0.959270924707991     
  0.952652262786375       0.946044174163584       0.939960345204768     
  0.934760150176020       0.930598602569408       0.927430196017141     
  0.925113622111735       0.923469475147552       0.922334987592091     
   1.01169966585229        1.01109611983151        1.00954491823647     
   1.00721029345910        1.00400713317134       0.999805064187067     
  0.994570017796573       0.988459328158664       0.981840666237035     
  0.975232577614260       0.969148748655449       0.963948553626687     
  0.959787006020077       0.956618599467807       0.954302025562415     
  0.952657878598215       0.951523391042762        1.03351847205170     
   1.03291492603091        1.03136372443587        1.02902909965851     
   1.02582593937073        1.02162387038646        1.01638882399598     
   1.01027813435806        1.00365947243645       0.997051383813656     
  0.990967554854827       0.985767359826086       0.981605812219472     
  0.978437405667214       0.976120831761801       0.974476684797617     
  0.973342197242153        1.04943169942080        1.04882815339999     
   1.04727695180496        1.04494232702760        1.04173916673982     
   1.03753709775555        1.03230205136508        1.02619136172715     
   1.01957269980553        1.01296461118274        1.00688078222392     
   1.00168058719517       0.997519039588565       0.994350633036301     
  0.992034059130901       0.990389912166714       0.989255424611249     
   1.06083056469453        1.06022701867373        1.05867581707869     
   1.05634119230134        1.05313803201356        1.04893596302930     
   1.04370091663882        1.03759022700088        1.03097156507928     
   1.02436347645647        1.01827964749766        1.01307945246892     
   1.00891790486230        1.00574949831003        1.00343292440464     
   1.00178877744045        1.00065428988499        1.06889069767968     
   1.06828715165889        1.06673595006384        1.06440132528648     
   1.06119816499872        1.05699609601443        1.05176104962395     
   1.04565035998603        1.03903169806442        1.03242360944163     
   1.02633978048281        1.02113958545406        1.01697803784745     
   1.01380963129519        1.01149305738979        1.00984891042560     
   1.00871442287014     
 -6.127486936346123E-002 -6.292834912122090E-002 -6.717803406526070E-002
 -7.357399175253311E-002 -8.234939663335518E-002 -9.386142018552267E-002
 -0.108203397332828      -0.124944294089876      -0.143076835990207     
 -0.161180411192104      -0.177847720206614      -0.192094218270034     
 -0.203495229114948      -0.212175422369511      -0.218521927736056     
 -0.223026246595605      -0.226134298249906      -6.421694420135154E-002
 -6.587042395911172E-002 -7.012010890314961E-002 -7.651606659042275E-002
 -8.529147147124477E-002 -9.680349502341302E-002 -0.111145472170717     
 -0.127886368927769      -0.146018910828095      -0.164122486029997     
 -0.180789795044509      -0.195036293107925      -0.206437303952842     
 -0.215117497207401      -0.221464002573942      -0.225968321433495     
 -0.229076373087802      -6.837770864086716E-002 -7.003118839862645E-002
 -7.428087334266394E-002 -8.067683102993785E-002 -8.945223591076107E-002
 -0.100964259462928      -0.115306236610231      -0.132047133367284     
 -0.150179675267611      -0.168283250469513      -0.184950559484024     
 -0.199197057547442      -0.210598068392358      -0.219278261646915     
 -0.225624767013454      -0.230129085873002      -0.233237137527316     
 -7.418628598301358E-002 -7.583976574077203E-002 -8.008945068480972E-002
 -8.648540837208489E-002 -9.526081325290706E-002 -0.106772836805074     
 -0.121114813952379      -0.137855710709431      -0.155988252609759     
 -0.174091827811658      -0.190759136826167      -0.205005634889588     
 -0.216406645734501      -0.225086838989061      -0.231433344355606     
 -0.235937663215157      -0.239045714869464      -8.215049213573233E-002
 -8.380397189349174E-002 -8.805365683752941E-002 -9.444961452480466E-002
 -0.103225019405628      -0.114737042957794      -0.129079020105100     
 -0.145819916862151      -0.163952458762476      -0.182056033964377     
 -0.198723342978889      -0.212969841042307      -0.224370851887225     
 -0.233051045141781      -0.239397550508325      -0.243901869367872     
 -0.247009921022181      -9.280471676312148E-002 -9.445819652088268E-002
 -9.870788146492129E-002 -0.105103839152194      -0.113879244033016     
 -0.125391267585184      -0.139733244732489      -0.156474141489538     
 -0.174606683389867      -0.192710258591768      -0.209377567606279     
 -0.223624065669696      -0.235025076514615      -0.243705269769169     
 -0.250051775135710      -0.254556093995266      -0.257664145649574     
 -0.106597559157795      -0.108251038915557      -0.112500723859594     
 -0.118896681546866      -0.127672086427689      -0.139184109979850     
 -0.153526087127162      -0.170266983884212      -0.188399525784541     
 -0.206503100986440      -0.223170410000953      -0.237416908064361     
 -0.248817918909288      -0.257498112163842      -0.263844617530386     
 -0.268348936389939      -0.271456988044248      -0.123714658436940     
 -0.125368138194701      -0.129617823138739      -0.136013780826016     
 -0.144789185706838      -0.156301209259004      -0.170643186406309     
 -0.187384083163361      -0.205516625063684      -0.223620200265587     
 -0.240287509280099      -0.254534007343517      -0.265935018188425     
 -0.274615211442991      -0.280961716809536      -0.285466035669082     
 -0.288574087323389      -0.143877007305290      -0.145530487063058     
 -0.149780172007095      -0.156176129694365      -0.164951534575191     
 -0.176463558127360      -0.190805535274664      -0.207546432031717     
 -0.225678973932041      -0.243782549133941      -0.260449858148452     
 -0.274696356211863      -0.286097367056790      -0.294777560311344     
 -0.301124065677880      -0.305628384537439      -0.308736436191740     
 -0.166216552587600      -0.167870032345367      -0.172119717289403     
 -0.178515674976670      -0.187291079857503      -0.198803103409666     
 -0.213145080556967      -0.229885977314023      -0.248018519214353     
 -0.266122094416255      -0.282789403430761      -0.297035901494183     
 -0.308436912339097      -0.317117105593653      -0.323463610960194     
 -0.327967929819748      -0.331075981474055      -0.189350738900743     
 -0.191004218658503      -0.195253903602545      -0.201649861289809     
 -0.210425266170639      -0.221937289722807      -0.236279266870111     
 -0.253020163627162      -0.271152705527478      -0.289256280729389     
 -0.305923589743899      -0.320170087807309      -0.331571098652229     
 -0.340251291906792      -0.346597797273337      -0.351102116132885     
 -0.354210167787192      -0.211690284183052      -0.213343763940816     
 -0.217593448884852      -0.223989406572122      -0.232764811452946     
 -0.244276835005113      -0.258618812152418      -0.275359708909467     
 -0.293492250809797      -0.311595826011701      -0.328263135026209     
 -0.342509633089614      -0.353910643934547      -0.362590837189102     
 -0.368937342555646      -0.373441661415194      -0.376549713069504     
 -0.231852633051409      -0.233506112809160      -0.237755797753205     
 -0.244151755440477      -0.252927160321305      -0.264439183873470     
 -0.278781161020774      -0.295522057777826      -0.313654599678151     
 -0.331758174880039      -0.348425483894563      -0.362671981957980     
 -0.374072992802884      -0.382753186057454      -0.389099691423994     
 -0.393604010283548      -0.396712061937852      -0.248969732330551     
 -0.250623212088314      -0.254872897032352      -0.261268854719630     
 -0.270044259600446      -0.281556283152615      -0.295898260299923     
 -0.312639157056964      -0.330771698957296      -0.348875274159200     
 -0.365542583173708      -0.379789081237131      -0.391190092082044     
 -0.399870285336605      -0.406216790703146      -0.410721109562696     
 -0.413829161217004      -0.262762574725227      -0.264416054482988     
 -0.268665739427026      -0.275061697114287      -0.283837101995113     
 -0.295349125547291      -0.309691102694581      -0.326431999451646     
 -0.344564541351975      -0.362668116553872      -0.379335425568384     
 -0.393581923631802      -0.404982934476718      -0.413663127731276     
 -0.420009633097816      -0.424513951957365      -0.427622003611679     
 -0.273416799352612      -0.275070279110384      -0.279319964054416     
 -0.285715921741690      -0.294491326622516      -0.306003350174679     
 -0.320345327321984      -0.337086224079037      -0.355218765979347     
 -0.373322341181263      -0.389989650195774      -0.404236148259182     
 -0.415637159104110      -0.424317352358658      -0.430663857725211     
 -0.435168176584759      -0.438276228239070      -0.281381005505330     
 -0.283034485263097      -0.287284170207135      -0.293680127894411     
 -0.302455532775225      -0.313967556327398      -0.328309533474703     
 -0.345050430231759      -0.363182972132082      -0.381286547333984     
 -0.397953856348480      -0.412200354411912      -0.423601365256829     
 -0.432281558511391      -0.438628063877917      -0.443132382737470     
 -0.446240434391786      -0.287189582847483      -0.288843062605242     
 -0.293092747549285      -0.299488705236549      -0.308264110117362     
 -0.319776133669550      -0.334118110816854      -0.350859007573899     
 -0.368991549474224      -0.387095124676128      -0.403762433690637     
 -0.418008931754051      -0.429409942598971      -0.438090135853536     
 -0.444436641220072      -0.448940960079623      -0.452049011733930     
 -0.291350347287000      -0.293003827044748      -0.297253511988796     
 -0.303649469676070      -0.312424874556884      -0.323936898109063     
 -0.338278875256364      -0.355019772013403      -0.373152313913746     
 -0.391255889115642      -0.407923198130151      -0.422169696193570     
 -0.433570707038490      -0.442250900293032      -0.448597405659591     
 -0.453101724519146      -0.456209776173450      -0.294292422124882     
 -0.295945901882645      -0.300195586826685      -0.306591544513948     
 -0.315366949394785      -0.326878972946950      -0.341220950094258     
 -0.357961846851308      -0.376094388751628      -0.394197963953534     
 -0.410865272968031      -0.425111771031446      -0.436512781876379     
 -0.445192975130931      -0.451539480497475      -0.456043799357029     
 -0.459151851011337     
  0.000000000000000E+000 -2.059343134687265E-004 -5.967154644315922E-004
 -1.288783171780619E-003 -2.918895425121374E-003 -5.573396522451829E-003
 -9.167771110016921E-003 -1.357217217812317E-002 -1.838427778900438E-002
 -2.320014315178548E-002 -2.763890288787426E-002 -3.143970394449276E-002
 -3.447539076661003E-002 -3.679168976136481E-002 -3.848528426515805E-002
 -3.968682183911389E-002 -4.051708164825068E-002  0.000000000000000E+000
 -2.059343134687265E-004 -5.967154644315922E-004 -1.288783171780619E-003
 -2.918895425121374E-003 -5.573396522451829E-003 -9.167771110016921E-003
 -1.357217217812317E-002 -1.838427778900438E-002 -2.320014315178548E-002
 -2.763890288787426E-002 -3.143970394449276E-002 -3.447539076661003E-002
 -3.679168976136481E-002 -3.848528426515805E-002 -3.968682183911389E-002
 -4.051708164825068E-002  0.000000000000000E+000 -2.059343134687265E-004
 -5.967154644315922E-004 -1.288783171780619E-003 -2.918895425121374E-003
 -5.573396522451829E-003 -9.167771110016921E-003 -1.357217217812317E-002
 -1.838427778900438E-002 -2.320014315178548E-002 -2.763890288787426E-002
 -3.143970394449276E-002 -3.447539076661003E-002 -3.679168976136481E-002
 -3.848528426515805E-002 -3.968682183911389E-002 -4.051708164825068E-002
  0.000000000000000E+000 -2.059343134687265E-004 -5.967154644315922E-004
 -1.288783171780619E-003 -2.918895425121374E-003 -5.573396522451829E-003
 -9.167771110016921E-003 -1.357217217812317E-002 -1.838427778900438E-002
 -2.320014315178548E-002 -2.763890288787426E-002 -3.143970394449276E-002
 -3.447539076661003E-002 -3.679168976136481E-002 -3.848528426515805E-002
 -3.968682183911389E-002 -4.051708164825068E-002  0.000000000000000E+000
 -2.059343134687265E-004 -5.967154644315922E-004 -1.288783171780619E-003
 -2.918895425121374E-003 -5.573396522451829E-003 -9.167771110016921E-003
 -1.357217217812317E-002 -1.838427778900438E-002 -2.320014315178548E-002
 -2.763890288787426E-002 -3.143970394449276E-002 -3.447539076661003E-002
 -3.679168976136481E-002 -3.848528426515805E-002 -3.968682183911389E-002
 -4.051708164825068E-002  0.000000000000000E+000 -2.059343134687265E-004
 -5.967154644315922E-004 -1.288783171780619E-003 -2.918895425121374E-003
 -5.573396522451829E-003 -9.167771110016921E-003 -1.357217217812317E-002
 -1.838427778900438E-002 -2.320014315178548E-002 -2.763890288787426E-002
 -3.143970394449276E-002 -3.447539076661003E-002 -3.679168976136481E-002
 -3.848528426515805E-002 -3.968682183911389E-002 -4.051708164825068E-002
  0.000000000000000E+000 -2.059343134687265E-004 -5.967154644315922E-004
 -1.288783171780619E-003 -2.918895425121374E-003 -5.573396522451829E-003
 -9.167771110016921E-003 -1.357217217812317E-002 -1.838427778900438E-002
 -2.320014315178548E-002 -2.763890288787426E-002 -3.143970394449276E-002
 -3.447539076661003E-002 -3.679168976136481E-002 -3.848528426515805E-002
 -3.968682183911389E-002 -4.051708164825068E-002  0.000000000000000E+000
 -2.059343134687265E-004 -5.967154644315922E-004 -1.288783171780619E-003
 -2.918895425121374E-003 -5.573396522451829E-003 -9.167771110016921E-003
 -1.357217217812317E-002 -1.838427778900438E-002 -2.320014315178548E-002
 -2.763890288787426E-002 -3.143970394449276E-002 -3.447539076661003E-002
 -3.679168976136481E-002 -3.848528426515805E-002 -3.968682183911389E-002
 -4.051708164825068E-002  0.000000000000000E+000 -2.059343134687265E-004
 -5.967154644315922E-004 -1.288783171780619E-003 -2.918895425121374E-003
 -5.573396522451829E-003 -9.167771110016921E-003 -1.357217217812317E-002
 -1.838427778900438E-002 -2.320014315178548E-002 -2.763890288787426E-002
 -3.143970394449276E-002 -3.447539076661003E-002 -3.679168976136481E-002
 -3.848528426515805E-002 -3.968682183911389E-002 -4.051708164825068E-002
  0.000000000000000E+000 -2.059343134687265E-004 -5.967154644315922E-004
 -1.288783171780619E-003 -2.918895425121374E-003 -5.573396522451829E-003
 -9.167771110016921E-003 -1.357217217812317E-002 -1.838427778900438E-002
 -2.320014315178548E-002 -2.763890288787426E-002 -3.143970394449276E-002
 -3.447539076661003E-002 -3.679168976136481E-002 -3.848528426515805E-002
 -3.968682183911389E-002 -4.051708164825068E-002  0.000000000000000E+000
 -2.059343134687265E-004 -5.967154644315922E-004 -1.288783171780619E-003
 -2.918895425121374E-003 -5.573396522451829E-003 -9.167771110016921E-003
 -1.357217217812317E-002 -1.838427778900438E-002 -2.320014315178548E-002
 -2.763890288787426E-002 -3.143970394449276E-002 -3.447539076661003E-002
 -3.679168976136481E-002 -3.848528426515805E-002 -3.968682183911389E-002
 -4.051708164825068E-002  0.000000000000000E+000 -2.059343134687265E-004
 -5.967154644315922E-004 -1.288783171780619E-003 -2.918895425121374E-003
 -5.573396522451829E-003 -9.167771110016921E-003 -1.357217217812317E-002
 -1.838427778900438E-002 -2.320014315178548E-002 -2.763890288787426E-002
 -3.143970394449276E-002 -3.447539076661003E-002 -3.679168976136481E-002
 -3.848528426515805E-002 -3.968682183911389E-002 -4.051708164825068E-002
  0.000000000000000E+000 -2.059343134687265E-004 -5.967154644315922E-004
 -1.288783171780619E-003 -2.918895425121374E-003 -5.573396522451829E-003
 -9.167771110016921E-003 -1.357217217812317E-002 -1.838427778900438E-002
 -2.320014315178548E-002 -2.763890288787426E-002 -3.143970394449276E-002
 -3.447539076661003E-002 -3.679168976136481E-002 -3.848528426515805E-002
 -3.968682183911389E-002 -4.051708164825068E-002  0.000000000000000E+000
 -2.059343134687265E-004 -5.967154644315922E-004 -1.288783171780619E-003
 -2.918895425121374E-003 -5.573396522451829E-003 -9.167771110016921E-003
 -1.357217217812317E-002 -1.838427778900438E-002 -2.320014315178548E-002
 -2.763890288787426E-002 -3.143970394449276E-002 -3.447539076661003E-002
 -3.679168976136481E-002 -3.848528426515805E-002 -3.968682183911389E-002
 -4.051708164825068E-002  0.000000000000000E+000 -2.059343134687265E-004
 -5.967154644315922E-004 -1.288783171780619E-003 -2.918895425121374E-003
 -5.573396522451829E-003 -9.167771110016921E-003 -1.357217217812317E-002
 -1.838427778900438E-002 -2.320014315178548E-002 -2.763890288787426E-002
 -3.143970394449276E-002 -3.447539076661003E-002 -3.679168976136481E-002
 -3.848528426515805E-002 -3.968682183911389E-002 -4.051708164825068E-002
  0.000000000000000E+000 -2.059343134687265E-004 -5.967154644315922E-004
 -1.288783171780619E-003 -2.918895425121374E-003 -5.573396522451829E-003
 -9.167771110016921E-003 -1.357217217812317E-002 -1.838427778900438E-002
 -2.320014315178548E-002 -2.763890288787426E-002 -3.143970394449276E-002
 -3.447539076661003E-002 -3.679168976136481E-002 -3.848528426515805E-002
 -3.968682183911389E-002 -4.051708164825068E-002  0.000000000000000E+000
 -2.059343134687265E-004 -5.967154644315922E-004 -1.288783171780619E-003
 -2.918895425121374E-003 -5.573396522451829E-003 -9.167771110016921E-003
 -1.357217217812317E-002 -1.838427778900438E-002 -2.320014315178548E-002
 -2.763890288787426E-002 -3.143970394449276E-002 -3.447539076661003E-002
 -3.679168976136481E-002 -3.848528426515805E-002 -3.968682183911389E-002
 -4.051708164825068E-002  0.000000000000000E+000 -2.059343134687265E-004
 -5.967154644315922E-004 -1.288783171780619E-003 -2.918895425121374E-003
 -5.573396522451829E-003 -9.167771110016921E-003 -1.357217217812317E-002
 -1.838427778900438E-002 -2.320014315178548E-002 -2.763890288787426E-002
 -3.143970394449276E-002 -3.447539076661003E-002 -3.679168976136481E-002
 -3.848528426515805E-002 -3.968682183911389E-002 -4.051708164825068E-002
  0.000000000000000E+000 -2.059343134687265E-004 -5.967154644315922E-004
 -1.288783171780619E-003 -2.918895425121374E-003 -5.573396522451829E-003
 -9.167771110016921E-003 -1.357217217812317E-002 -1.838427778900438E-002
 -2.320014315178548E-002 -2.763890288787426E-002 -3.143970394449276E-002
 -3.447539076661003E-002 -3.679168976136481E-002 -3.848528426515805E-002
 -3.968682183911389E-002 -4.051708164825068E-002  0.000000000000000E+000
 -2.059343134687265E-004 -5.967154644315922E-004 -1.288783171780619E-003
 -2.918895425121374E-003 -5.573396522451829E-003 -9.167771110016921E-003
 -1.357217217812317E-002 -1.838427778900438E-002 -2.320014315178548E-002
 -2.763890288787426E-002 -3.143970394449276E-002 -3.447539076661003E-002
 -3.679168976136481E-002 -3.848528426515805E-002 -3.968682183911389E-002
 -4.051708164825068E-002
 -0.148163794957964      -0.289010040622664      -0.354170212232518     
 -0.327725056325979      -0.285566991473763      -0.253281346159329     
 -0.229499896449021      -0.222837238754626      -0.225591612293424     
 -0.234536137336976      -0.246979190885012      -0.261328202192255     
 -0.273752752776524      -0.284235729374078      -0.292128263761766     
 -0.297067923417004      -0.179494178509197      -0.359966089093380     
 -0.458474654474471      -0.443175575166761      -0.393226690715610     
 -0.347039621270808      -0.310477902800403      -0.297633605201784     
 -0.299803761940502      -0.312427292990560      -0.331458665240492     
 -0.354053174220304      -0.374885354017087      -0.393048483461880     
 -0.406633083997474      -0.414279671457432      -0.186805835066665     
 -0.377365817814691      -0.485695831843878      -0.474636811905047     
 -0.420845668822487      -0.364277125905317      -0.315685072904279     
 -0.294285383443484      -0.292653446162344      -0.305793617244899     
 -0.328460157594961      -0.356190085501832      -0.381756528666912     
 -0.402932976113385      -0.417611545526441      -0.425220633099851     
 -0.176146621392095      -0.356510292355523      -0.455030458453982     
 -0.431308860585503      -0.362907109109272      -0.289786949326431     
 -0.224044114563819      -0.188397080862595      -0.177060603620910     
 -0.185017585244576      -0.205660931542700      -0.232652923214570     
 -0.257270284806531      -0.277129333694956      -0.290523725544615     
 -0.297220791500945      -0.145248262144549      -0.293316634496538     
 -0.360331592998544      -0.301587207779586      -0.197746260544083     
 -9.064494912725249E-002  6.609919945704507E-003  6.893358805121645E-002
  0.101310337584010       0.108981574740266       9.982373015038058E-002
  8.140221490455410E-002  6.318013215635725E-002  4.770014636454396E-002
  3.707354830041873E-002  3.185673485498150E-002 -8.846890638830233E-002
 -0.176261203600393      -0.184475216398905      -6.179894975785687E-002
  0.106865250915065       0.276000862126254       0.430151139833000     
  0.541191784907554       0.613585052775215       0.652803096710367     
  0.667576107742732       0.666305181984726       0.659700300058182     
  0.651530565007689       0.645196504456908       0.642061466906557     
  9.578013082874306E-004  8.621272407313465E-003  9.327739955345149E-002
  0.315867720876140       0.586561378802143       0.854641662377595     
   1.10058001758736        1.29127976723594        1.42968320393974     
   1.52085756779848        1.57425558984866        1.59976131602422     
   1.61072755687670        1.61334206778935        1.61308856293563     
   1.61273268811750       0.127382591098055       0.270294276004293     
  0.486087571104808       0.848650625750958        1.26276070853745     
   1.67106921300577        2.04815329403032        2.35358201697772     
   2.58719895870723        2.75284644727211        2.86094993709986     
   2.92396199533691        2.95930289190262        2.97665165833985     
   2.98447358368673        2.98768543373852       0.287446566173394     
  0.601718659255970       0.983152851841023        1.52147323725261     
   2.11576275223663        2.70082791706461        3.24379087515335     
   3.69490758817793        4.04962434482915        4.30996028065609     
   4.48758268160945        4.59829779832395        4.66458143646631     
   4.70047729727667        4.71831526016087        4.72588256576963     
  0.465472569885595       0.970310827368969        1.53559782697254     
   2.26838340196201        3.06184567710204        3.84232349124922     
   4.56881002142265        5.18148298088655        5.67099089548824     
   6.03731359167185        6.29333168355487        6.45827892004726     
   6.55992394551710        6.61703475466332        6.64630115785072     
   6.65881951048524       0.634435639438371        1.31994509588823     
   2.05949050368833        2.97668711835062        3.95854827345670     
   4.92321415803742        5.82231975443989        6.58711062834347     
   7.20444761344691        7.67262396584470        8.00528656640460     
   8.22422122426808        8.36165174158441        8.44052143320699     
   8.48162442347190        8.49930320099370       0.765182296831035     
   1.59001747124396        2.46410810038183        3.52442252595113     
   4.65133397307135        5.75588362055600        6.78463667070767     
   7.66321984265866        8.37752946822166        8.92544565361201     
   9.32062493358200        9.58545798324942        9.75450916009417     
   9.85326653525962        9.90548822666309        9.92811007124288     
  0.838762560482387        1.74098837854381        2.68986423826818     
   3.83070586590445        5.03644956146874        6.21245910000243     
   7.30341187810111        8.23432996730431        8.99486066329515     
   9.58519633102546        10.0184807477654        10.3148600325983     