 Title = "Wing and Wake"
 VARIABLES = "X" "Y" "Z" "GAM" "skew"
 Zone I=   17 J=   20 K=1  T="Blade 01"
 DATAPACKING=BLOCK
 VARLOCATION=([4]=CELLCENTERED,[5]=CELLCENTERED)
 -0.430513849156728      -0.429910303135933      -0.428359101540890     
 -0.426024476763531      -0.422821316475762      -0.418619247491487     
 -0.413384201101008      -0.407273511463084      -0.400654849541472     
 -0.394046760918678      -0.387962931959865      -0.382762736931115     
 -0.378601189324501      -0.375432782772237      -0.373116208866839     
 -0.371472061902647      -0.370337574347187      -0.438573982141874     
 -0.437970436121080      -0.436419234526037      -0.434084609748679     
 -0.430881449460910      -0.426679380476634      -0.421444334086155     
 -0.415333644448232      -0.408714982526619      -0.402106893903825     
 -0.396023064945013      -0.390822869916263      -0.386661322309649     
 -0.383492915757385      -0.381176341851987      -0.379532194887794     
 -0.378397707332335      -0.449972847415614      -0.449369301394820     
 -0.447818099799777      -0.445483475022418      -0.442280314734649     
 -0.438078245750374      -0.432843199359895      -0.426732509721971     
 -0.420113847800358      -0.413505759177565      -0.407421930218752     
 -0.402221735190002      -0.398060187583388      -0.394891781031124     
 -0.392575207125726      -0.390931060161533      -0.389796572606074     
 -0.465886074784703      -0.465282528763908      -0.463731327168865     
 -0.461396702391506      -0.458193542103738      -0.453991473119462     
 -0.448756426728984      -0.442645737091060      -0.436027075169447     
 -0.429418986546653      -0.423335157587840      -0.418134962559091     
 -0.413973414952476      -0.410805008400213      -0.408488434494814     
 -0.406844287530622      -0.405709799975163      -0.487704880984103     
 -0.487101334963308      -0.485550133368266      -0.483215508590907     
 -0.480012348303137      -0.475810279318862      -0.470575232928384     
 -0.464464543290461      -0.457845881368848      -0.451237792746054     
 -0.445153963787241      -0.439953768758491      -0.435792221151876     
 -0.432623814599613      -0.430307240694214      -0.428663093730022     
 -0.427528606174563      -0.516893284434774      -0.516289738413980     
 -0.514738536818937      -0.512403912041578      -0.509200751753809     
 -0.504998682769533      -0.499763636379055      -0.493652946741131     
 -0.487034284819518      -0.480426196196724      -0.474342367237912     
 -0.469142172209163      -0.464980624602548      -0.461812218050284     
 -0.459495644144885      -0.457851497180693      -0.456717009625234     
 -0.554680271533983      -0.554076725513188      -0.552525523918145     
 -0.550190899140786      -0.546987738853017      -0.542785669868742     
 -0.537550623478263      -0.531439933840339      -0.524821271918727     
 -0.518213183295933      -0.512129354337120      -0.506929159308370     
 -0.502767611701756      -0.499599205149493      -0.497282631244094     
 -0.495638484279901      -0.494503996724442      -0.601574420769445     
 -0.600970874748650      -0.599419673153607      -0.597085048376249     
 -0.593881888088480      -0.589679819104204      -0.584444772713725     
 -0.578334083075801      -0.571715421154189      -0.565107332531395     
 -0.559023503572583      -0.553823308543833      -0.549661760937218     
 -0.546493354384955      -0.544176780479556      -0.542532633515364     
 -0.541398145959905      -0.656811361407036      -0.656207815386242     
 -0.654656613791199      -0.652321989013841      -0.649118828726071     
 -0.644916759741795      -0.639681713351318      -0.633571023713394     
 -0.626952361791780      -0.620344273168988      -0.614260444210174     
 -0.609060249181424      -0.604898701574810      -0.601730295022547     
 -0.599413721117148      -0.597769574152956      -0.596635086597496     
 -0.718012967662670      -0.717409421641875      -0.715858220046833     
 -0.713523595269475      -0.710320434981706      -0.706118365997430     
 -0.700883319606951      -0.694772629969027      -0.688153968047415     
 -0.681545879424621      -0.675462050465809      -0.670261855437060     
 -0.666100307830444      -0.662931901278180      -0.660615327372783     
 -0.658971180408590      -0.657836692853131      -0.781391579173724     
 -0.780788033152931      -0.779236831557888      -0.776902206780529     
 -0.773699046492760      -0.769496977508485      -0.764261931118005     
 -0.758151241480083      -0.751532579558469      -0.744924490935674     
 -0.738840661976862      -0.733640466948113      -0.729478919341498     
 -0.726310512789236      -0.723993938883836      -0.722349791919644     
 -0.721215304364185      -0.842593185429360      -0.841989639408564     
 -0.840438437813522      -0.838103813036164      -0.834900652748395     
 -0.830698583764119      -0.825463537373640      -0.819352847735716     
 -0.812734185814104      -0.806126097191310      -0.800042268232496     
 -0.794842073203747      -0.790680525597132      -0.787512119044869     
 -0.785195545139471      -0.783551398175278      -0.782416910619818     
 -0.897830126066951      -0.897226580046156      -0.895675378451114     
 -0.893340753673755      -0.890137593385986      -0.885935524401710     
 -0.880700478011231      -0.874589788373309      -0.867971126451695     
 -0.861363037828902      -0.855279208870089      -0.850079013841339     
 -0.845917466234723      -0.842749059682461      -0.840432485777062     
 -0.838788338812869      -0.837653851257410      -0.944724275302413     
 -0.944120729281618      -0.942569527686576      -0.940234902909217     
 -0.937031742621448      -0.932829673637172      -0.927594627246694     
 -0.921483937608771      -0.914865275687157      -0.908257187064364     
 -0.902173358105551      -0.896973163076801      -0.892811615470187     
 -0.889643208917924      -0.887326635012526      -0.885682488048333     
 -0.884548000492873      -0.982511262401621      -0.981907716380826     
 -0.980356514785785      -0.978021890008425      -0.974818729720657     
 -0.970616660736381      -0.965381614345902      -0.959270924707979     
 -0.952652262786366      -0.946044174163572      -0.939960345204759     
 -0.934760150176010      -0.930598602569395      -0.927430196017131     
 -0.925113622111732      -0.923469475147541      -0.922334987592081     
  -1.01169966585229       -1.01109611983150       -1.00954491823646     
  -1.00721029345909       -1.00400713317133      -0.999805064187052     
 -0.994570017796572      -0.988459328158650      -0.981840666237035     
 -0.975232577614244      -0.969148748655430      -0.963948553626680     
 -0.959787006020065      -0.956618599467802      -0.954302025562404     
 -0.952657878598211      -0.951523391042753       -1.03351847205169     
  -1.03291492603090       -1.03136372443586       -1.02902909965850     
  -1.02582593937073       -1.02162387038645       -1.01638882399597     
  -1.01027813435805       -1.00365947243644      -0.997051383813644     
 -0.990967554854829      -0.985767359826079      -0.981605812219466     
 -0.978437405667202      -0.976120831761805      -0.974476684797613     
 -0.973342197242152       -1.04943169942078       -1.04882815339999     
  -1.04727695180494       -1.04494232702759       -1.04173916673982     
  -1.03753709775554       -1.03230205136506       -1.02619136172714     
  -1.01957269980553       -1.01296461118273       -1.00688078222392     
  -1.00168058719517      -0.997519039588554      -0.994350633036292     
 -0.992034059130893      -0.990389912166701      -0.989255424611240     
  -1.06083056469452       -1.06022701867372       -1.05867581707868     
  -1.05634119230132       -1.05313803201356       -1.04893596302928     
  -1.04370091663880       -1.03759022700088       -1.03097156507927     
  -1.02436347645647       -1.01827964749766       -1.01307945246891     
  -1.00891790486229       -1.00574949831003       -1.00343292440463     
  -1.00178877744044       -1.00065428988498       -1.06889069767967     
  -1.06828715165887       -1.06673595006383       -1.06440132528647     
  -1.06119816499870       -1.05699609601443       -1.05176104962395     
  -1.04565035998602       -1.03903169806441       -1.03242360944162     
  -1.02633978048280       -1.02113958545406       -1.01697803784744     
  -1.01380963129518       -1.01149305738978       -1.00984891042559     
  -1.00871442287013     
  6.127486936345632E-002  6.292834912121538E-002  6.717803406525408E-002
  7.357399175252687E-002  8.234939663334979E-002  9.386142018551741E-002
  0.108203397332822       0.124944294089873       0.143076835990200     
  0.161180411192101       0.177847720206611       0.192094218270029     
  0.203495229114946       0.212175422369504       0.218521927736046     
  0.223026246595597       0.226134298249904       6.421694420134556E-002
  6.587042395910483E-002  7.012010890314375E-002  7.651606659041679E-002
  8.529147147123937E-002  9.680349502340732E-002  0.111145472170711     
  0.127886368927763       0.146018910828089       0.164122486029990     
  0.180789795044501       0.195036293107919       0.206437303952836     
  0.215117497207393       0.221464002573935       0.225968321433487     
  0.229076373087794       6.837770864086073E-002  7.003118839862001E-002
  7.428087334265861E-002  8.067683102993155E-002  8.945223591075396E-002
  0.100964259462922       0.115306236610227       0.132047133367277     
  0.150179675267605       0.168283250469505       0.184950559484016     
  0.199197057547434       0.210598068392351       0.219278261646908     
  0.225624767013451       0.230129085873002       0.233237137527309     
  7.418628598300706E-002  7.583976574076615E-002  8.008945068480453E-002
  8.648540837207749E-002  9.526081325290056E-002  0.106772836805068     
  0.121114813952372       0.137855710709423       0.155988252609751     
  0.174091827811651       0.190759136826162       0.205005634889580     
  0.216406645734496       0.225086838989054       0.231433344355596     
  0.235937663215148       0.239045714869455       8.215049213572627E-002
  8.380397189348542E-002  8.805365683752368E-002  9.444961452479721E-002
  0.103225019405620       0.114737042957787       0.129079020105092     
  0.145819916862143       0.163952458762470       0.182056033964370     
  0.198723342978881       0.212969841042299       0.224370851887216     
  0.233051045141774       0.239397550508316       0.243901869367867     
  0.247009921022174       9.280471676311564E-002  9.445819652087457E-002
  9.870788146491291E-002  0.105103839152186       0.113879244033009     
  0.125391267585177       0.139733244732481       0.156474141489532     
  0.174606683389859       0.192710258591759       0.209377567606270     
  0.223624065669689       0.235025076514605       0.243705269769163     
  0.250051775135705       0.254556093995256       0.257664145649563     
  0.106597559157788       0.108251038915547       0.112500723859586     
  0.118896681546859       0.127672086427682       0.139184109979849     
  0.153526087127154       0.170266983884204       0.188399525784531     
  0.206503100986432       0.223170410000943       0.237416908064360     
  0.248817918909277       0.257498112163836       0.263844617530377     
  0.268348936389929       0.271456988044235       0.123714658436934     
  0.125368138194694       0.129617823138732       0.136013780826005     
  0.144789185706829       0.156301209258996       0.170643186406300     
  0.187384083163351       0.205516625063678       0.223620200265579     
  0.240287509280090       0.254534007343508       0.265935018188424     
  0.274615211442982       0.280961716809524       0.285466035669075     
  0.288574087323383       0.143877007305288       0.145530487063047     
  0.149780172007086       0.156176129694358       0.164951534575181     
  0.176463558127349       0.190805535274654       0.207546432031704     
  0.225678973932031       0.243782549133932       0.260449858148443     
  0.274696356211861       0.286097367056777       0.294777560311336     
  0.301124065677877       0.305628384537429       0.308736436191736     
  0.166216552587596       0.167870032345355       0.172119717289394     
  0.178515674976667       0.187291079857490       0.198803103409658     
  0.213145080556962       0.229885977314013       0.248018519214341     
  0.266122094416241       0.282789403430752       0.297035901494169     
  0.308436912339086       0.317117105593644       0.323463610960186     
  0.327967929819737       0.331075981474045       0.189350738900732     
  0.191004218658492       0.195253903602531       0.201649861289803     
  0.210425266170625       0.221937289722794       0.236279266870098     
  0.253020163627149       0.271152705527476       0.289256280729377     
  0.305923589743888       0.320170087807305       0.331571098652222     
  0.340251291906780       0.346597797273322       0.351102116132873     
  0.354210167787181       0.211690284183041       0.213343763940800     
  0.217593448884839       0.223989406572112       0.232764811452935     
  0.244276835005102       0.258618812152407       0.275359708909457     
  0.293492250809785       0.311595826011686       0.328263135026196     
  0.342509633089613       0.353910643934531       0.362590837189089     
  0.368937342555631       0.373441661415181       0.376549713069488     
  0.231852633051394       0.233506112809152       0.237755797753192     
  0.244151755440465       0.252927160321288       0.264439183873455     
  0.278781161020760       0.295522057777811       0.313654599678138     
  0.331758174880038       0.348425483894549       0.362671981957967     
  0.374072992802884       0.382753186057442       0.389099691423984     
  0.393604010283535       0.396712061937842       0.248969732330541     
  0.250623212088301       0.254872897032339       0.261268854719611     
  0.270044259600435       0.281556283152601       0.295898260299907     
  0.312639157056957       0.330771698957284       0.348875274159185     
  0.365542583173696       0.379789081237114       0.391190092082031     
  0.399870285336588       0.406216790703130       0.410721109562682     
  0.413829161216989       0.262762574725213       0.264416054482972     
  0.268665739427012       0.275061697114285       0.283837101995107     
  0.295349125547275       0.309691102694579       0.326431999451631     
  0.344564541351957       0.362668116553858       0.379335425568368     
  0.393581923631786       0.404982934476703       0.413663127731261     
  0.420009633097802       0.424513951957354       0.427622003611661     
  0.273416799352602       0.275070279110362       0.279319964054401     
  0.285715921741673       0.294491326622496       0.306003350174664     
  0.320345327321969       0.337086224079019       0.355218765979346     
  0.373322341181247       0.389989650195758       0.404236148259175     
  0.415637159104092       0.424317352358650       0.430663857725191     
  0.435168176584743       0.438276228239051       0.281381005505322     
  0.283034485263082       0.287284170207120       0.293680127894393     
  0.302455532775216       0.313967556327383       0.328309533474687     
  0.345050430231739       0.363182972132066       0.381286547333967     
  0.397953856348476       0.412200354411895       0.423601365256811     
  0.432281558511369       0.438628063877911       0.443132382737464     
  0.446240434391770       0.287189582847468       0.288843062605226     
  0.293092747549266       0.299488705236539       0.308264110117362     
  0.319776133669530       0.334118110816834       0.350859007573885     
  0.368991549474212       0.387095124676113       0.403762433690623     
  0.418008931754041       0.429409942598957       0.438090135853516     
  0.444436641220058       0.448940960079609       0.452049011733916     
  0.291350347286983       0.293003827044742       0.297253511988781     
  0.303649469676053       0.312424874556877       0.323936898109044     
  0.338278875256349       0.355019772013400       0.373152313913727     
  0.391255889115628       0.407923198130139       0.422169696193555     
  0.433570707038472       0.442250900293030       0.448597405659572     
  0.453101724519124       0.456209776173430       0.294292422124873     
  0.295945901882632       0.300195586826671       0.306591544513943     
  0.315366949394767       0.326878972946933       0.341220950094238     
  0.357961846851289       0.376094388751617       0.394197963953516     
  0.410865272968027       0.425111771031446       0.436512781876363     
  0.445192975130919       0.451539480497462       0.456043799357014     
  0.459151851011321     
  0.000000000000000E+000 -2.059343134687265E-004 -5.967154644315922E-004
 -1.288783171780619E-003 -2.918895425121374E-003 -5.573396522451829E-003
 -9.167771110016921E-003 -1.357217217812317E-002 -1.838427778900438E-002
 -2.320014315178548E-002 -2.763890288787426E-002 -3.143970394449276E-002
 -3.447539076661003E-002 -3.679168976136481E-002 -3.848528426515805E-002
 -3.968682183911389E-002 -4.051708164825068E-002  0.000000000000000E+000
 -2.059343134687265E-004 -5.967154644315922E-004 -1.288783171780619E-003
 -2.918895425121374E-003 -5.573396522451829E-003 -9.167771110016921E-003
 -1.357217217812317E-002 -1.838427778900438E-002 -2.320014315178548E-002
 -2.763890288787426E-002 -3.143970394449276E-002 -3.447539076661003E-002
 -3.679168976136481E-002 -3.848528426515805E-002 -3.968682183911389E-002
 -4.051708164825068E-002  0.000000000000000E+000 -2.059343134687265E-004
 -5.967154644315922E-004 -1.288783171780619E-003 -2.918895425121374E-003
 -5.573396522451829E-003 -9.167771110016921E-003 -1.357217217812317E-002
 -1.838427778900438E-002 -2.320014315178548E-002 -2.763890288787426E-002
 -3.143970394449276E-002 -3.447539076661003E-002 -3.679168976136481E-002
 -3.848528426515805E-002 -3.968682183911389E-002 -4.051708164825068E-002
  0.000000000000000E+000 -2.059343134687265E-004 -5.967154644315922E-004
 -1.288783171780619E-003 -2.918895425121374E-003 -5.573396522451829E-003
 -9.167771110016921E-003 -1.357217217812317E-002 -1.838427778900438E-002
 -2.320014315178548E-002 -2.763890288787426E-002 -3.143970394449276E-002
 -3.447539076661003E-002 -3.679168976136481E-002 -3.848528426515805E-002
 -3.968682183911389E-002 -4.051708164825068E-002  0.000000000000000E+000
 -2.059343134687265E-004 -5.967154644315922E-004 -1.288783171780619E-003
 -2.918895425121374E-003 -5.573396522451829E-003 -9.167771110016921E-003
 -1.357217217812317E-002 -1.838427778900438E-002 -2.320014315178548E-002
 -2.763890288787426E-002 -3.143970394449276E-002 -3.447539076661003E-002
 -3.679168976136481E-002 -3.848528426515805E-002 -3.968682183911389E-002
 -4.051708164825068E-002  0.000000000000000E+000 -2.059343134687265E-004
 -5.967154644315922E-004 -1.288783171780619E-003 -2.918895425121374E-003
 -5.573396522451829E-003 -9.167771110016921E-003 -1.357217217812317E-002
 -1.838427778900438E-002 -2.320014315178548E-002 -2.763890288787426E-002
 -3.143970394449276E-002 -3.447539076661003E-002 -3.679168976136481E-002
 -3.848528426515805E-002 -3.968682183911389E-002 -4.051708164825068E-002
  0.000000000000000E+000 -2.059343134687265E-004 -5.967154644315922E-004
 -1.288783171780619E-003 -2.918895425121374E-003 -5.573396522451829E-003
 -9.167771110016921E-003 -1.357217217812317E-002 -1.838427778900438E-002
 -2.320014315178548E-002 -2.763890288787426E-002 -3.143970394449276E-002
 -3.447539076661003E-002 -3.679168976136481E-002 -3.848528426515805E-002
 -3.968682183911389E-002 -4.051708164825068E-002  0.000000000000000E+000
 -2.059343134687265E-004 -5.967154644315922E-004 -1.288783171780619E-003
 -2.918895425121374E-003 -5.573396522451829E-003 -9.167771110016921E-003
 -1.357217217812317E-002 -1.838427778900438E-002 -2.320014315178548E-002
 -2.763890288787426E-002 -3.143970394449276E-002 -3.447539076661003E-002
 -3.679168976136481E-002 -3.848528426515805E-002 -3.968682183911389E-002
 -4.051708164825068E-002  0.000000000000000E+000 -2.059343134687265E-004
 -5.967154644315922E-004 -1.288783171780619E-003 -2.918895425121374E-003
 -5.573396522451829E-003 -9.167771110016921E-003 -1.357217217812317E-002
 -1.838427778900438E-002 -2.320014315178548E-002 -2.763890288787426E-002
 -3.143970394449276E-002 -3.447539076661003E-002 -3.679168976136481E-002
 -3.848528426515805E-002 -3.968682183911389E-002 -4.051708164825068E-002
  0.000000000000000E+000 -2.059343134687265E-004 -5.967154644315922E-004
 -1.288783171780619E-003 -2.918895425121374E-003 -5.573396522451829E-003
 -9.167771110016921E-003 -1.357217217812317E-002 -1.838427778900438E-002
 -2.320014315178548E-002 -2.763890288787426E-002 -3.143970394449276E-002
 -3.447539076661003E-002 -3.679168976136481E-002 -3.848528426515805E-002
 -3.968682183911389E-002 -4.051708164825068E-002  0.000000000000000E+000
 -2.059343134687265E-004 -5.967154644315922E-004 -1.288783171780619E-003
 -2.918895425121374E-003 -5.573396522451829E-003 -9.167771110016921E-003
 -1.357217217812317E-002 -1.838427778900438E-002 -2.320014315178548E-002
 -2.763890288787426E-002 -3.143970394449276E-002 -3.447539076661003E-002
 -3.679168976136481E-002 -3.848528426515805E-002 -3.968682183911389E-002
 -4.051708164825068E-002  0.000000000000000E+000 -2.059343134687265E-004
 -5.967154644315922E-004 -1.288783171780619E-003 -2.918895425121374E-003
 -5.573396522451829E-003 -9.167771110016921E-003 -1.357217217812317E-002
 -1.838427778900438E-002 -2.320014315178548E-002 -2.763890288787426E-002
 -3.143970394449276E-002 -3.447539076661003E-002 -3.679168976136481E-002
 -3.848528426515805E-002 -3.968682183911389E-002 -4.051708164825068E-002
  0.000000000000000E+000 -2.059343134687265E-004 -5.967154644315922E-004
 -1.288783171780619E-003 -2.918895425121374E-003 -5.573396522451829E-003
 -9.167771110016921E-003 -1.357217217812317E-002 -1.838427778900438E-002
 -2.320014315178548E-002 -2.763890288787426E-002 -3.143970394449276E-002
 -3.447539076661003E-002 -3.679168976136481E-002 -3.848528426515805E-002
 -3.968682183911389E-002 -4.051708164825068E-002  0.000000000000000E+000
 -2.059343134687265E-004 -5.967154644315922E-004 -1.288783171780619E-003
 -2.918895425121374E-003 -5.573396522451829E-003 -9.167771110016921E-003
 -1.357217217812317E-002 -1.838427778900438E-002 -2.320014315178548E-002
 -2.763890288787426E-002 -3.143970394449276E-002 -3.447539076661003E-002
 -3.679168976136481E-002 -3.848528426515805E-002 -3.968682183911389E-002
 -4.051708164825068E-002  0.000000000000000E+000 -2.059343134687265E-004
 -5.967154644315922E-004 -1.288783171780619E-003 -2.918895425121374E-003
 -5.573396522451829E-003 -9.167771110016921E-003 -1.357217217812317E-002
 -1.838427778900438E-002 -2.320014315178548E-002 -2.763890288787426E-002
 -3.143970394449276E-002 -3.447539076661003E-002 -3.679168976136481E-002
 -3.848528426515805E-002 -3.968682183911389E-002 -4.051708164825068E-002
  0.000000000000000E+000 -2.059343134687265E-004 -5.967154644315922E-004
 -1.288783171780619E-003 -2.918895425121374E-003 -5.573396522451829E-003
 -9.167771110016921E-003 -1.357217217812317E-002 -1.838427778900438E-002
 -2.320014315178548E-002 -2.763890288787426E-002 -3.143970394449276E-002
 -3.447539076661003E-002 -3.679168976136481E-002 -3.848528426515805E-002
 -3.968682183911389E-002 -4.051708164825068E-002  0.000000000000000E+000
 -2.059343134687265E-004 -5.967154644315922E-004 -1.288783171780619E-003
 -2.918895425121374E-003 -5.573396522451829E-003 -9.167771110016921E-003
 -1.357217217812317E-002 -1.838427778900438E-002 -2.320014315178548E-002
 -2.763890288787426E-002 -3.143970394449276E-002 -3.447539076661003E-002
 -3.679168976136481E-002 -3.848528426515805E-002 -3.968682183911389E-002
 -4.051708164825068E-002  0.000000000000000E+000 -2.059343134687265E-004
 -5.967154644315922E-004 -1.288783171780619E-003 -2.918895425121374E-003
 -5.573396522451829E-003 -9.167771110016921E-003 -1.357217217812317E-002
 -1.838427778900438E-002 -2.320014315178548E-002 -2.763890288787426E-002
 -3.143970394449276E-002 -3.447539076661003E-002 -3.679168976136481E-002
 -3.848528426515805E-002 -3.968682183911389E-002 -4.051708164825068E-002
  0.000000000000000E+000 -2.059343134687265E-004 -5.967154644315922E-004
 -1.288783171780619E-003 -2.918895425121374E-003 -5.573396522451829E-003
 -9.167771110016921E-003 -1.357217217812317E-002 -1.838427778900438E-002
 -2.320014315178548E-002 -2.763890288787426E-002 -3.143970394449276E-002
 -3.447539076661003E-002 -3.679168976136481E-002 -3.848528426515805E-002
 -3.968682183911389E-002 -4.051708164825068E-002  0.000000000000000E+000
 -2.059343134687265E-004 -5.967154644315922E-004 -1.288783171780619E-003
 -2.918895425121374E-003 -5.573396522451829E-003 -9.167771110016921E-003
 -1.357217217812317E-002 -1.838427778900438E-002 -2.320014315178548E-002
 -2.763890288787426E-002 -3.143970394449276E-002 -3.447539076661003E-002
 -3.679168976136481E-002 -3.848528426515805E-002 -3.968682183911389E-002
 -4.051708164825068E-002
 -0.111145724931755      -0.217797389814202      -0.259076359055340     
 -0.215693388806844      -0.160153238020526      -0.116536679338379     
 -8.267918296193537E-002 -6.622899963472391E-002 -5.898440151314702E-002
 -5.763013274629269E-002 -5.993140051047483E-002 -6.504189912019959E-002
 -6.977610701180105E-002 -7.435585963234298E-002 -7.800661794464976E-002
 -8.030371703960705E-002 -0.134165309963216      -0.269411592853122     
 -0.332429594985316      -0.289902639138017      -0.218309769025045     
 -0.154267594422371      -0.102197670939173      -7.447485097752399E-002
 -6.134582902938625E-002 -5.791653963677045E-002 -6.068864789253531E-002
 -6.784213156328497E-002 -7.496655875105554E-002 -8.178044611826493E-002
 -8.702894799156462E-002 -9.008513398453533E-002 -0.140012545311075     
 -0.282760469535532      -0.351684244081138      -0.308533659639681     
 -0.228224503563545      -0.149653569219052      -8.212382324343173E-002
 -4.261590354461248E-002 -2.207576656825690E-002 -1.486576975516783E-002
 -1.637541687365406E-002 -2.365189849310655E-002 -3.117279366252924E-002
 -3.812122680137584E-002 -4.319476217097692E-002 -4.601983635847909E-002
 -0.134599228987359      -0.272118517330700      -0.334698776455666     
 -0.281030769915829      -0.187269477235693      -9.279976021762759E-002
 -8.552114057257712E-003  4.515011908123645E-002  7.610727058819435E-002
  9.012535262093002E-002  9.281690967206610E-002  8.823661383164300E-002
  8.276643264137708E-002  7.737384757115696E-002  7.336586749654798E-002
  7.112769977421245E-002 -0.117962268134870      -0.237973029475086     
 -0.281866512091854      -0.204667171568741      -8.588330066274480E-002
  3.327261396782792E-002  0.140932305954894       0.214523580649540     
  0.261187830527312       0.286842881710511       0.297919703161580     
  0.299264608171608       0.297938375870111       0.295214668076221     
  0.292816478409204       0.291396161868246      -8.811878948696523E-002
 -0.176313031444097      -0.187085344788480      -7.032187646326808E-002
  8.967296191165128E-002  0.248362470773359       0.392160803583761     
  0.495992599561011       0.566794261161977       0.610761056669779     
  0.635095007292789       0.645449074798913       0.649993360713002     
  0.650837503531916       0.650493689928821       0.650068538388080     
 -4.227583745179513E-002 -8.138226784518540E-002 -4.173704291898183E-002
  0.133812046685482       0.354949240683252       0.572459460407306     
  0.769887603180621       0.918468694248449        1.02468481126596     
   1.09505319063976        1.13788206864253        1.16025770359066     
   1.17230240916036        1.17752854554981        1.17958197748257     
   1.18027189323252       2.233952640424142E-002  5.252492356526393E-002
  0.162539819618855       0.418658874012313       0.723485562715100     
   1.02181841068948        1.29306704556269        1.50325682892943     
   1.65779950351769        1.76352010632723        1.83043689929730     
   1.86798445347214        1.88917472205462        1.89951415140710     
   1.90421443653096        1.90610077618465       0.108158121524609     
  0.230356992825900       0.432689714095794       0.792584261901378     
   1.20478801239667        1.60692611491980        1.97303656448574     
   2.26250086989321        2.47904503979762        2.62980180215278     
   2.72708221378917        2.78350179062889        2.81582522639711     
   2.83218830665739        2.83988320738163        2.84310360152632     
  0.217078921776426       0.455854884755764       0.773442669931039     
   1.26014749843235        1.80259110527789        2.33036615410245     
   2.81120812280780        3.19694430343388        3.48928858219635     
   3.69571258149478        3.83111069850044        3.91168250104982     
   3.95846078013020        3.98271811448621        3.99434543864958     
   3.99932166583513       0.345895530230357       0.722075347171148     
   1.17333121617553        1.80376763639517        2.49214389058022     
   3.15975049092213        3.76785503973076        4.26095352883656     
   4.63915222926179        4.91046884668983        5.09219546781380     
   5.20370465857518        5.27000798409808        5.30550664657634     
   5.32297969324626        5.33059456592005       0.475889593266441     
  0.990115050899090        1.57393658991234        2.34445831541958     
   3.17308580294583        3.97341815083346        4.70137355878075     
   5.29602681494568        5.75741848904098        6.09460772726753     
   6.32642734961989        6.47387383583279        6.56451412800690     
   6.61502181144682        6.64075015130066        6.65212255544088     
  0.577661123414825        1.19913588849529        1.88491947899899     
   2.76210218164610        3.69505864399558        4.59112344489550     
   5.40333249248536        6.06907124891020        6.59134274464776     
   6.98140344961517        7.25823634130088        7.44161878460697     