 Title = "Wing and Wake"
 VARIABLES = "X" "Y" "Z" "GAM" "skew"
 Zone I=   17 J=   20 K=1  T="Blade 01"
 DATAPACKING=BLOCK
 VARLOCATION=([4]=CELLCENTERED,[5]=CELLCENTERED)
  0.430513849156728       0.429910303135933       0.428359101540891     
  0.426024476763531       0.422821316475762       0.418619247491487     
  0.413384201101009       0.407273511463084       0.400654849541472     
  0.394046760918678       0.387962931959865       0.382762736931115     
  0.378601189324501       0.375432782772237       0.373116208866839     
  0.371472061902647       0.370337574347187       0.438573982141875     
  0.437970436121080       0.436419234526037       0.434084609748679     
  0.430881449460910       0.426679380476634       0.421444334086155     
  0.415333644448232       0.408714982526619       0.402106893903825     
  0.396023064945013       0.390822869916263       0.386661322309649     
  0.383492915757385       0.381176341851987       0.379532194887794     
  0.378397707332335       0.449972847415614       0.449369301394820     
  0.447818099799778       0.445483475022418       0.442280314734649     
  0.438078245750374       0.432843199359896       0.426732509721971     
  0.420113847800358       0.413505759177565       0.407421930218752     
  0.402221735190002       0.398060187583388       0.394891781031124     
  0.392575207125726       0.390931060161533       0.389796572606074     
  0.465886074784703       0.465282528763908       0.463731327168866     
  0.461396702391506       0.458193542103738       0.453991473119463     
  0.448756426728984       0.442645737091060       0.436027075169447     
  0.429418986546653       0.423335157587841       0.418134962559091     
  0.413973414952476       0.410805008400213       0.408488434494814     
  0.406844287530622       0.405709799975163       0.487704880984103     
  0.487101334963308       0.485550133368267       0.483215508590908     
  0.480012348303138       0.475810279318862       0.470575232928384     
  0.464464543290461       0.457845881368848       0.451237792746054     
  0.445153963787241       0.439953768758491       0.435792221151876     
  0.432623814599613       0.430307240694214       0.428663093730023     
  0.427528606174563       0.516893284434775       0.516289738413980     
  0.514738536818937       0.512403912041578       0.509200751753809     
  0.504998682769533       0.499763636379055       0.493652946741131     
  0.487034284819518       0.480426196196725       0.474342367237912     
  0.469142172209163       0.464980624602548       0.461812218050284     
  0.459495644144885       0.457851497180693       0.456717009625234     
  0.554680271533983       0.554076725513188       0.552525523918146     
  0.550190899140786       0.546987738853017       0.542785669868742     
  0.537550623478264       0.531439933840340       0.524821271918727     
  0.518213183295933       0.512129354337121       0.506929159308370     
  0.502767611701756       0.499599205149493       0.497282631244094     
  0.495638484279902       0.494503996724442       0.601574420769445     
  0.600970874748650       0.599419673153608       0.597085048376249     
  0.593881888088481       0.589679819104204       0.584444772713725     
  0.578334083075802       0.571715421154189       0.565107332531395     
  0.559023503572583       0.553823308543833       0.549661760937217     
  0.546493354384955       0.544176780479556       0.542532633515364     
  0.541398145959906       0.656811361407036       0.656207815386242     
  0.654656613791200       0.652321989013841       0.649118828726071     
  0.644916759741796       0.639681713351318       0.633571023713394     
  0.626952361791781       0.620344273168988       0.614260444210174     
  0.609060249181425       0.604898701574810       0.601730295022547     
  0.599413721117148       0.597769574152956       0.596635086597496     
  0.718012967662671       0.717409421641875       0.715858220046833     
  0.713523595269475       0.710320434981706       0.706118365997430     
  0.700883319606952       0.694772629969028       0.688153968047415     
  0.681545879424621       0.675462050465809       0.670261855437060     
  0.666100307830445       0.662931901278180       0.660615327372783     
  0.658971180408590       0.657836692853131       0.781391579173725     
  0.780788033152931       0.779236831557888       0.776902206780529     
  0.773699046492760       0.769496977508485       0.764261931118006     
  0.758151241480083       0.751532579558469       0.744924490935674     
  0.738840661976862       0.733640466948114       0.729478919341499     
  0.726310512789236       0.723993938883836       0.722349791919644     
  0.721215304364185       0.842593185429360       0.841989639408565     
  0.840438437813523       0.838103813036164       0.834900652748395     
  0.830698583764120       0.825463537373640       0.819352847735716     
  0.812734185814104       0.806126097191310       0.800042268232496     
  0.794842073203747       0.790680525597132       0.787512119044870     
  0.785195545139471       0.783551398175279       0.782416910619818     
  0.897830126066951       0.897226580046156       0.895675378451114     
  0.893340753673756       0.890137593385987       0.885935524401711     
  0.880700478011231       0.874589788373309       0.867971126451695     
  0.861363037828902       0.855279208870089       0.850079013841339     
  0.845917466234723       0.842749059682461       0.840432485777062     
  0.838788338812869       0.837653851257410       0.944724275302412     
  0.944120729281618       0.942569527686576       0.940234902909217     
  0.937031742621448       0.932829673637173       0.927594627246694     
  0.921483937608771       0.914865275687158       0.908257187064365     
  0.902173358105551       0.896973163076802       0.892811615470188     
  0.889643208917924       0.887326635012526       0.885682488048333     
  0.884548000492874       0.982511262401621       0.981907716380826     
  0.980356514785785       0.978021890008425       0.974818729720657     
  0.970616660736382       0.965381614345902       0.959270924707979     
  0.952652262786366       0.946044174163573       0.939960345204759     
  0.934760150176010       0.930598602569395       0.927430196017132     
  0.925113622111732       0.923469475147541       0.922334987592081     
   1.01169966585229        1.01109611983150        1.00954491823646     
   1.00721029345910        1.00400713317133       0.999805064187052     
  0.994570017796572       0.988459328158650       0.981840666237035     
  0.975232577614244       0.969148748655430       0.963948553626680     
  0.959787006020065       0.956618599467802       0.954302025562404     
  0.952657878598212       0.951523391042753        1.03351847205170     
   1.03291492603090        1.03136372443586        1.02902909965850     
   1.02582593937073        1.02162387038645        1.01638882399597     
   1.01027813435805        1.00365947243644       0.997051383813644     
  0.990967554854829       0.985767359826079       0.981605812219466     
  0.978437405667203       0.976120831761804       0.974476684797613     
  0.973342197242153        1.04943169942078        1.04882815339999     
   1.04727695180494        1.04494232702759        1.04173916673982     
   1.03753709775554        1.03230205136506        1.02619136172714     
   1.01957269980553        1.01296461118273        1.00688078222392     
   1.00168058719517       0.997519039588554       0.994350633036293     
  0.992034059130894       0.990389912166701       0.989255424611241     
   1.06083056469452        1.06022701867373        1.05867581707868     
   1.05634119230132        1.05313803201356        1.04893596302928     
   1.04370091663880        1.03759022700088        1.03097156507927     
   1.02436347645647        1.01827964749766        1.01307945246891     
   1.00891790486229        1.00574949831003        1.00343292440463     
   1.00178877744044        1.00065428988498        1.06889069767967     
   1.06828715165888        1.06673595006383        1.06440132528647     
   1.06119816499870        1.05699609601443        1.05176104962395     
   1.04565035998602        1.03903169806441        1.03242360944162     
   1.02633978048281        1.02113958545406        1.01697803784744     
   1.01380963129518        1.01149305738978        1.00984891042559     
   1.00871442287013     
 -6.127486936345656E-002 -6.292834912121556E-002 -6.717803406525430E-002
 -7.357399175252703E-002 -8.234939663334995E-002 -9.386142018551753E-002
 -0.108203397332822      -0.124944294089873      -0.143076835990200     
 -0.161180411192101      -0.177847720206611      -0.192094218270030     
 -0.203495229114946      -0.212175422369504      -0.218521927736046     
 -0.223026246595597      -0.226134298249904      -6.421694420134551E-002
 -6.587042395910495E-002 -7.012010890314398E-002 -7.651606659041696E-002
 -8.529147147123961E-002 -9.680349502340745E-002 -0.111145472170711     
 -0.127886368927763      -0.146018910828090      -0.164122486029990     
 -0.180789795044501      -0.195036293107919      -0.206437303952836     
 -0.215117497207394      -0.221464002573936      -0.225968321433487     
 -0.229076373087794      -6.837770864086094E-002 -7.003118839862023E-002
 -7.428087334265876E-002 -8.067683102993174E-002 -8.945223591075406E-002
 -0.100964259462922      -0.115306236610227      -0.132047133367278     
 -0.150179675267605      -0.168283250469505      -0.184950559484016     
 -0.199197057547434      -0.210598068392351      -0.219278261646908     
 -0.225624767013451      -0.230129085873002      -0.233237137527309     
 -7.418628598300726E-002 -7.583976574076629E-002 -8.008945068480479E-002
 -8.648540837207762E-002 -9.526081325290096E-002 -0.106772836805068     
 -0.121114813952373      -0.137855710709424      -0.155988252609751     
 -0.174091827811652      -0.190759136826162      -0.205005634889580     
 -0.216406645734497      -0.225086838989055      -0.231433344355596     
 -0.235937663215148      -0.239045714869455      -8.215049213572659E-002
 -8.380397189348565E-002 -8.805365683752393E-002 -9.444961452479735E-002
 -0.103225019405620      -0.114737042957788      -0.129079020105092     
 -0.145819916862143      -0.163952458762470      -0.182056033964370     
 -0.198723342978881      -0.212969841042299      -0.224370851887216     
 -0.233051045141774      -0.239397550508316      -0.243901869367867     
 -0.247009921022174      -9.280471676311593E-002 -9.445819652087484E-002
 -9.870788146491324E-002 -0.105103839152186      -0.113879244033009     
 -0.125391267585177      -0.139733244732481      -0.156474141489532     
 -0.174606683389859      -0.192710258591759      -0.209377567606270     
 -0.223624065669689      -0.235025076514605      -0.243705269769163     
 -0.250051775135705      -0.254556093995256      -0.257664145649563     
 -0.106597559157788      -0.108251038915547      -0.112500723859586     
 -0.118896681546859      -0.127672086427682      -0.139184109979849     
 -0.153526087127154      -0.170266983884205      -0.188399525784531     
 -0.206503100986432      -0.223170410000943      -0.237416908064360     
 -0.248817918909278      -0.257498112163836      -0.263844617530377     
 -0.268348936389929      -0.271456988044236      -0.123714658436935     
 -0.125368138194694      -0.129617823138732      -0.136013780826006     
 -0.144789185706829      -0.156301209258997      -0.170643186406300     
 -0.187384083163351      -0.205516625063679      -0.223620200265579     
 -0.240287509280090      -0.254534007343508      -0.265935018188424     
 -0.274615211442983      -0.280961716809525      -0.285466035669075     
 -0.288574087323383      -0.143877007305288      -0.145530487063047     
 -0.149780172007086      -0.156176129694359      -0.164951534575182     
 -0.176463558127349      -0.190805535274654      -0.207546432031705     
 -0.225678973932032      -0.243782549133933      -0.260449858148443     
 -0.274696356211861      -0.286097367056778      -0.294777560311336     
 -0.301124065677877      -0.305628384537429      -0.308736436191736     
 -0.166216552587597      -0.167870032345355      -0.172119717289394     
 -0.178515674976667      -0.187291079857490      -0.198803103409658     
 -0.213145080556963      -0.229885977314014      -0.248018519214341     
 -0.266122094416241      -0.282789403430752      -0.297035901494170     
 -0.308436912339086      -0.317117105593645      -0.323463610960186     
 -0.327967929819737      -0.331075981474045      -0.189350738900732     
 -0.191004218658493      -0.195253903602531      -0.201649861289804     
 -0.210425266170626      -0.221937289722795      -0.236279266870098     
 -0.253020163627150      -0.271152705527477      -0.289256280729377     
 -0.305923589743888      -0.320170087807306      -0.331571098652222     
 -0.340251291906780      -0.346597797273323      -0.351102116132873     
 -0.354210167787181      -0.211690284183041      -0.213343763940800     
 -0.217593448884840      -0.223989406572113      -0.232764811452936     
 -0.244276835005103      -0.258618812152407      -0.275359708909458     
 -0.293492250809785      -0.311595826011686      -0.328263135026196     
 -0.342509633089613      -0.353910643934531      -0.362590837189089     
 -0.368937342555631      -0.373441661415182      -0.376549713069489     
 -0.231852633051395      -0.233506112809153      -0.237755797753192     
 -0.244151755440465      -0.252927160321289      -0.264439183873456     
 -0.278781161020760      -0.295522057777811      -0.313654599678139     
 -0.331758174880038      -0.348425483894550      -0.362671981957967     
 -0.374072992802884      -0.382753186057442      -0.389099691423984     
 -0.393604010283535      -0.396712061937842      -0.248969732330541     
 -0.250623212088301      -0.254872897032340      -0.261268854719612     
 -0.270044259600435      -0.281556283152602      -0.295898260299907     
 -0.312639157056957      -0.330771698957284      -0.348875274159185     
 -0.365542583173697      -0.379789081237114      -0.391190092082031     
 -0.399870285336589      -0.406216790703130      -0.410721109562682     
 -0.413829161216990      -0.262762574725214      -0.264416054482973     
 -0.268665739427012      -0.275061697114285      -0.283837101995107     
 -0.295349125547276      -0.309691102694580      -0.326431999451631     
 -0.344564541351958      -0.362668116553859      -0.379335425568369     
 -0.393581923631787      -0.404982934476704      -0.413663127731262     
 -0.420009633097803      -0.424513951957355      -0.427622003611661     
 -0.273416799352602      -0.275070279110362      -0.279319964054402     
 -0.285715921741674      -0.294491326622497      -0.306003350174664     
 -0.320345327321969      -0.337086224079020      -0.355218765979346     
 -0.373322341181248      -0.389989650195758      -0.404236148259175     
 -0.415637159104092      -0.424317352358650      -0.430663857725192     
 -0.435168176584743      -0.438276228239051      -0.281381005505323     
 -0.283034485263082      -0.287284170207121      -0.293680127894394     
 -0.302455532775216      -0.313967556327383      -0.328309533474687     
 -0.345050430231739      -0.363182972132067      -0.381286547333967     
 -0.397953856348476      -0.412200354411896      -0.423601365256812     
 -0.432281558511369      -0.438628063877911      -0.443132382737464     
 -0.446240434391770      -0.287189582847469      -0.288843062605227     
 -0.293092747549266      -0.299488705236540      -0.308264110117362     
 -0.319776133669531      -0.334118110816835      -0.350859007573885     
 -0.368991549474212      -0.387095124676113      -0.403762433690624     
 -0.418008931754042      -0.429409942598957      -0.438090135853517     
 -0.444436641220058      -0.448940960079609      -0.452049011733916     
 -0.291350347286983      -0.293003827044742      -0.297253511988782     
 -0.303649469676054      -0.312424874556877      -0.323936898109045     
 -0.338278875256349      -0.355019772013400      -0.373152313913728     
 -0.391255889115629      -0.407923198130139      -0.422169696193555     
 -0.433570707038472      -0.442250900293031      -0.448597405659573     
 -0.453101724519125      -0.456209776173431      -0.294292422124873     
 -0.295945901882632      -0.300195586826672      -0.306591544513944     
 -0.315366949394768      -0.326878972946934      -0.341220950094239     
 -0.357961846851290      -0.376094388751617      -0.394197963953516     
 -0.410865272968027      -0.425111771031446      -0.436512781876363     
 -0.445192975130919      -0.451539480497462      -0.456043799357015     
 -0.459151851011321     
  0.000000000000000E+000 -2.059343134687265E-004 -5.967154644315922E-004
 -1.288783171780619E-003 -2.918895425121374E-003 -5.573396522451829E-003
 -9.167771110016921E-003 -1.357217217812317E-002 -1.838427778900438E-002
 -2.320014315178548E-002 -2.763890288787426E-002 -3.143970394449276E-002
 -3.447539076661003E-002 -3.679168976136481E-002 -3.848528426515805E-002
 -3.968682183911389E-002 -4.051708164825068E-002  0.000000000000000E+000
 -2.059343134687265E-004 -5.967154644315922E-004 -1.288783171780619E-003
 -2.918895425121374E-003 -5.573396522451829E-003 -9.167771110016921E-003
 -1.357217217812317E-002 -1.838427778900438E-002 -2.320014315178548E-002
 -2.763890288787426E-002 -3.143970394449276E-002 -3.447539076661003E-002
 -3.679168976136481E-002 -3.848528426515805E-002 -3.968682183911389E-002
 -4.051708164825068E-002  0.000000000000000E+000 -2.059343134687265E-004
 -5.967154644315922E-004 -1.288783171780619E-003 -2.918895425121374E-003
 -5.573396522451829E-003 -9.167771110016921E-003 -1.357217217812317E-002
 -1.838427778900438E-002 -2.320014315178548E-002 -2.763890288787426E-002
 -3.143970394449276E-002 -3.447539076661003E-002 -3.679168976136481E-002
 -3.848528426515805E-002 -3.968682183911389E-002 -4.051708164825068E-002
  0.000000000000000E+000 -2.059343134687265E-004 -5.967154644315922E-004
 -1.288783171780619E-003 -2.918895425121374E-003 -5.573396522451829E-003
 -9.167771110016921E-003 -1.357217217812317E-002 -1.838427778900438E-002
 -2.320014315178548E-002 -2.763890288787426E-002 -3.143970394449276E-002
 -3.447539076661003E-002 -3.679168976136481E-002 -3.848528426515805E-002
 -3.968682183911389E-002 -4.051708164825068E-002  0.000000000000000E+000
 -2.059343134687265E-004 -5.967154644315922E-004 -1.288783171780619E-003
 -2.918895425121374E-003 -5.573396522451829E-003 -9.167771110016921E-003
 -1.357217217812317E-002 -1.838427778900438E-002 -2.320014315178548E-002
 -2.763890288787426E-002 -3.143970394449276E-002 -3.447539076661003E-002
 -3.679168976136481E-002 -3.848528426515805E-002 -3.968682183911389E-002
 -4.051708164825068E-002  0.000000000000000E+000 -2.059343134687265E-004
 -5.967154644315922E-004 -1.288783171780619E-003 -2.918895425121374E-003
 -5.573396522451829E-003 -9.167771110016921E-003 -1.357217217812317E-002
 -1.838427778900438E-002 -2.320014315178548E-002 -2.763890288787426E-002
 -3.143970394449276E-002 -3.447539076661003E-002 -3.679168976136481E-002
 -3.848528426515805E-002 -3.968682183911389E-002 -4.051708164825068E-002
  0.000000000000000E+000 -2.059343134687265E-004 -5.967154644315922E-004
 -1.288783171780619E-003 -2.918895425121374E-003 -5.573396522451829E-003
 -9.167771110016921E-003 -1.357217217812317E-002 -1.838427778900438E-002
 -2.320014315178548E-002 -2.763890288787426E-002 -3.143970394449276E-002
 -3.447539076661003E-002 -3.679168976136481E-002 -3.848528426515805E-002
 -3.968682183911389E-002 -4.051708164825068E-002  0.000000000000000E+000
 -2.059343134687265E-004 -5.967154644315922E-004 -1.288783171780619E-003
 -2.918895425121374E-003 -5.573396522451829E-003 -9.167771110016921E-003
 -1.357217217812317E-002 -1.838427778900438E-002 -2.320014315178548E-002
 -2.763890288787426E-002 -3.143970394449276E-002 -3.447539076661003E-002
 -3.679168976136481E-002 -3.848528426515805E-002 -3.968682183911389E-002
 -4.051708164825068E-002  0.000000000000000E+000 -2.059343134687265E-004
 -5.967154644315922E-004 -1.288783171780619E-003 -2.918895425121374E-003
 -5.573396522451829E-003 -9.167771110016921E-003 -1.357217217812317E-002
 -1.838427778900438E-002 -2.320014315178548E-002 -2.763890288787426E-002
 -3.143970394449276E-002 -3.447539076661003E-002 -3.679168976136481E-002
 -3.848528426515805E-002 -3.968682183911389E-002 -4.051708164825068E-002
  0.000000000000000E+000 -2.059343134687265E-004 -5.967154644315922E-004
 -1.288783171780619E-003 -2.918895425121374E-003 -5.573396522451829E-003
 -9.167771110016921E-003 -1.357217217812317E-002 -1.838427778900438E-002
 -2.320014315178548E-002 -2.763890288787426E-002 -3.143970394449276E-002
 -3.447539076661003E-002 -3.679168976136481E-002 -3.848528426515805E-002
 -3.968682183911389E-002 -4.051708164825068E-002  0.000000000000000E+000
 -2.059343134687265E-004 -5.967154644315922E-004 -1.288783171780619E-003
 -2.918895425121374E-003 -5.573396522451829E-003 -9.167771110016921E-003
 -1.357217217812317E-002 -1.838427778900438E-002 -2.320014315178548E-002
 -2.763890288787426E-002 -3.143970394449276E-002 -3.447539076661003E-002
 -3.679168976136481E-002 -3.848528426515805E-002 -3.968682183911389E-002
 -4.051708164825068E-002  0.000000000000000E+000 -2.059343134687265E-004
 -5.967154644315922E-004 -1.288783171780619E-003 -2.918895425121374E-003
 -5.573396522451829E-003 -9.167771110016921E-003 -1.357217217812317E-002
 -1.838427778900438E-002 -2.320014315178548E-002 -2.763890288787426E-002
 -3.143970394449276E-002 -3.447539076661003E-002 -3.679168976136481E-002
 -3.848528426515805E-002 -3.968682183911389E-002 -4.051708164825068E-002
  0.000000000000000E+000 -2.059343134687265E-004 -5.967154644315922E-004
 -1.288783171780619E-003 -2.918895425121374E-003 -5.573396522451829E-003
 -9.167771110016921E-003 -1.357217217812317E-002 -1.838427778900438E-002
 -2.320014315178548E-002 -2.763890288787426E-002 -3.143970394449276E-002
 -3.447539076661003E-002 -3.679168976136481E-002 -3.848528426515805E-002
 -3.968682183911389E-002 -4.051708164825068E-002  0.000000000000000E+000
 -2.059343134687265E-004 -5.967154644315922E-004 -1.288783171780619E-003
 -2.918895425121374E-003 -5.573396522451829E-003 -9.167771110016921E-003
 -1.357217217812317E-002 -1.838427778900438E-002 -2.320014315178548E-002
 -2.763890288787426E-002 -3.143970394449276E-002 -3.447539076661003E-002
 -3.679168976136481E-002 -3.848528426515805E-002 -3.968682183911389E-002
 -4.051708164825068E-002  0.000000000000000E+000 -2.059343134687265E-004
 -5.967154644315922E-004 -1.288783171780619E-003 -2.918895425121374E-003
 -5.573396522451829E-003 -9.167771110016921E-003 -1.357217217812317E-002
 -1.838427778900438E-002 -2.320014315178548E-002 -2.763890288787426E-002
 -3.143970394449276E-002 -3.447539076661003E-002 -3.679168976136481E-002
 -3.848528426515805E-002 -3.968682183911389E-002 -4.051708164825068E-002
  0.000000000000000E+000 -2.059343134687265E-004 -5.967154644315922E-004
 -1.288783171780619E-003 -2.918895425121374E-003 -5.573396522451829E-003
 -9.167771110016921E-003 -1.357217217812317E-002 -1.838427778900438E-002
 -2.320014315178548E-002 -2.763890288787426E-002 -3.143970394449276E-002
 -3.447539076661003E-002 -3.679168976136481E-002 -3.848528426515805E-002
 -3.968682183911389E-002 -4.051708164825068E-002  0.000000000000000E+000
 -2.059343134687265E-004 -5.967154644315922E-004 -1.288783171780619E-003
 -2.918895425121374E-003 -5.573396522451829E-003 -9.167771110016921E-003
 -1.357217217812317E-002 -1.838427778900438E-002 -2.320014315178548E-002
 -2.763890288787426E-002 -3.143970394449276E-002 -3.447539076661003E-002
 -3.679168976136481E-002 -3.848528426515805E-002 -3.968682183911389E-002
 -4.051708164825068E-002  0.000000000000000E+000 -2.059343134687265E-004
 -5.967154644315922E-004 -1.288783171780619E-003 -2.918895425121374E-003
 -5.573396522451829E-003 -9.167771110016921E-003 -1.357217217812317E-002
 -1.838427778900438E-002 -2.320014315178548E-002 -2.763890288787426E-002
 -3.143970394449276E-002 -3.447539076661003E-002 -3.679168976136481E-002
 -3.848528426515805E-002 -3.968682183911389E-002 -4.051708164825068E-002
  0.000000000000000E+000 -2.059343134687265E-004 -5.967154644315922E-004
 -1.288783171780619E-003 -2.918895425121374E-003 -5.573396522451829E-003
 -9.167771110016921E-003 -1.357217217812317E-002 -1.838427778900438E-002
 -2.320014315178548E-002 -2.763890288787426E-002 -3.143970394449276E-002
 -3.447539076661003E-002 -3.679168976136481E-002 -3.848528426515805E-002
 -3.968682183911389E-002 -4.051708164825068E-002  0.000000000000000E+000
 -2.059343134687265E-004 -5.967154644315922E-004 -1.288783171780619E-003
 -2.918895425121374E-003 -5.573396522451829E-003 -9.167771110016921E-003
 -1.357217217812317E-002 -1.838427778900438E-002 -2.320014315178548E-002
 -2.763890288787426E-002 -3.143970394449276E-002 -3.447539076661003E-002
 -3.679168976136481E-002 -3.848528426515805E-002 -3.968682183911389E-002
 -4.051708164825068E-002
 -0.125178346556916      -0.245067022963589      -0.296113573129556     
 -0.260382272474113      -0.211605362908330      -0.174317238632821     
 -0.146446497369547      -0.135680996455228      -0.133731806315667     
 -0.137178408787877      -0.143656548948647      -0.152199175910650     
 -0.159575454997159      -0.166067000463562      -0.171040532864246     
 -0.174132625449463      -0.152155631032329      -0.305673889441259     
 -0.383711063811285      -0.353743714887179      -0.293286768068671     
 -0.239488888893104      -0.196988876750843      -0.178300020518616     
 -0.173622887823530      -0.177969577678831      -0.187710615092780     
 -0.200911154204356      -0.213143108772885      -0.224116891166654     
 -0.232405032681345      -0.237063307751092      -0.160027054873043     
 -0.323589408775522      -0.410472506035946      -0.383219084856863     
 -0.317519493170575      -0.252530699745718      -0.197689747787960     
 -0.170155000942845      -0.160892654922922      -0.164211556860690     
 -0.175362809695942      -0.191182247290454      -0.205907311545389     
 -0.218429851182252      -0.227202748200443      -0.231751449884879     
 -0.155071040556497      -0.314128332277877      -0.395765659877059     
 -0.359581632095453      -0.282475784700730      -0.203910464098134     
 -0.134761116321542      -9.544087689989246E-002 -7.815988026854727E-002
 -7.702064936442575E-002 -8.613048560728603E-002 -0.100973807046274     
 -0.114737362977193      -0.126206814601199      -0.134046625900340     
 -0.137959444302139      -0.136959883904794      -0.277099762298470     
 -0.339071727233120      -0.278834208365516      -0.176670819894641     
 -7.386582689161003E-002  1.785413559677794E-002  7.595866196971177E-002
  0.107712437050395       0.119305680814741       0.117673680538943     
  0.108268345634783       9.852105216358617E-002  8.977453638200214E-002
  8.365364783816345E-002  8.067476656335387E-002 -0.103004385950040     
 -0.207055013586516      -0.232200389987549      -0.129107121051921     
  1.717235322692410E-002  0.161941068413653       0.291690229637911     
  0.381429849120509       0.438359301982549       0.469136374240919     
  0.481600271024388       0.482000501529984       0.478785573497451     
  0.474082511684972       0.470324474721980       0.468521109105892     
 -4.957771010555938E-002 -9.651859672811847E-002 -6.399973494161093E-002
  0.104753326513973       0.318822815071169       0.528704300754846     
  0.717810200889049       0.857312329081773       0.953909779829962     
   1.01460679851208        1.04836841160601        1.06288354082757     
   1.06861755374081        1.06922318619234        1.06840091578033     
   1.06797239387229       2.659759158268169E-002  6.125951992463682E-002
  0.175439181625607       0.435725884035876       0.744411626719750     
   1.04584614484592        1.31894120690565        1.52925652218359     
   1.68208991086207        1.78456178471149        1.84731029840530     
   1.88048599003096        1.89769420495620        1.90486080115681     
   1.90749502094496        1.90861851329861       0.127467762529960     
  0.270234818121851       0.491614644390637       0.870312283763130     
   1.30120688441601        1.72130997080790        2.10366979870930     
   2.40656784584032        2.63300515408247        2.78999108941387     
   2.89033059868144        2.94751447402352        2.97927691160947     
   2.99458617615522        3.00138894258871        3.00433625104025     
  0.253274761921707       0.530734627785806       0.884239023902843     
   1.40650848872685        1.98489401005059        2.54828393184117     
   3.06292974431847        3.47882782204828        3.79615486918008     
   4.02157991801165        4.17012594321975        4.25887378005196     
   4.31017114910308        4.33659307941454        4.34913664473623     
   4.35458323308819       0.398355777495574       0.830708099013196     
   1.33422501762841        2.01655100193631        2.75785791756975     
   3.47877404759896        4.13874023681037        4.67980993103356     
   5.09973283408789        5.40488329604399        5.61204440391062     
   5.74118440121437        5.81876049232125        5.86084385006952     
   5.88177210643169        5.89091441932674       0.540021008327252     
   1.12297229604942        1.77077069804811        2.60485178549248     
   3.49858170170246        4.36501096625531        5.15809226939259     
   5.81412824341926        6.33024828861675        6.71318999215327     
   6.98065430440982        7.15384291077263        7.26172363147225     
   7.32282224721671        7.35435236337639        7.36825095951071     
  0.645283582243316        1.33924041976285        2.09248294457933     
   3.03664539656249        4.03826507298528        5.00420899111716     
   5.88557058618586        6.61695540354226        7.19835306584605     
   7.63847389320696        7.95485294548076        8.16719428544813     