 Title = "Wing and Wake"
 VARIABLES = "X" "Y" "Z" "GAM" "skew"
 Zone I=   17 J=   20 K=1  T="Blade 01"
 DATAPACKING=BLOCK
 VARLOCATION=([4]=CELLCENTERED,[5]=CELLCENTERED)
 -0.430513849156732      -0.429910303135936      -0.428359101540892     
 -0.426024476763534      -0.422821316475765      -0.418619247491489     
 -0.413384201101013      -0.407273511463085      -0.400654849541477     
 -0.394046760918681      -0.387962931959866      -0.382762736931117     
 -0.378601189324503      -0.375432782772238      -0.373116208866842     
 -0.371472061902649      -0.370337574347186      -0.438573982141877     
 -0.437970436121082      -0.436419234526039      -0.434084609748683     
 -0.430881449460913      -0.426679380476636      -0.421444334086158     
 -0.415333644448234      -0.408714982526621      -0.402106893903827     
 -0.396023064945016      -0.390822869916267      -0.386661322309651     
 -0.383492915757387      -0.381176341851988      -0.379532194887797     
 -0.378397707332338      -0.449972847415618      -0.449369301394822     
 -0.447818099799780      -0.445483475022421      -0.442280314734652     
 -0.438078245750375      -0.432843199359898      -0.426732509721974     
 -0.420113847800362      -0.413505759177567      -0.407421930218753     
 -0.402221735190006      -0.398060187583391      -0.394891781031127     
 -0.392575207125726      -0.390931060161534      -0.389796572606076     
 -0.465886074784707      -0.465282528763912      -0.463731327168869     
 -0.461396702391508      -0.458193542103742      -0.453991473119468     
 -0.448756426728987      -0.442645737091063      -0.436027075169450     
 -0.429418986546656      -0.423335157587842      -0.418134962559095     
 -0.413973414952476      -0.410805008400216      -0.408488434494817     
 -0.406844287530622      -0.405709799975166      -0.487704880984108     
 -0.487101334963313      -0.485550133368272      -0.483215508590912     
 -0.480012348303139      -0.475810279318864      -0.470575232928388     
 -0.464464543290462      -0.457845881368852      -0.451237792746056     
 -0.445153963787245      -0.439953768758493      -0.435792221151879     
 -0.432623814599614      -0.430307240694217      -0.428663093730024     
 -0.427528606174565      -0.516893284434779      -0.516289738413983     
 -0.514738536818941      -0.512403912041581      -0.509200751753813     
 -0.504998682769536      -0.499763636379057      -0.493652946741133     
 -0.487034284819522      -0.480426196196730      -0.474342367237914     
 -0.469142172209164      -0.464980624602552      -0.461812218050283     
 -0.459495644144884      -0.457851497180697      -0.456717009625237     
 -0.554680271533988      -0.554076725513192      -0.552525523918153     
 -0.550190899140788      -0.546987738853019      -0.542785669868742     
 -0.537550623478265      -0.531439933840344      -0.524821271918730     
 -0.518213183295936      -0.512129354337123      -0.506929159308369     
 -0.502767611701760      -0.499599205149493      -0.497282631244097     
 -0.495638484279905      -0.494503996724447      -0.601574420769447     
 -0.600970874748651      -0.599419673153608      -0.597085048376256     
 -0.593881888088487      -0.589679819104212      -0.584444772713733     
 -0.578334083075806      -0.571715421154191      -0.565107332531399     
 -0.559023503572587      -0.553823308543840      -0.549661760937218     
 -0.546493354384959      -0.544176780479559      -0.542532633515365     
 -0.541398145959909      -0.656811361407037      -0.656207815386245     
 -0.654656613791205      -0.652321989013845      -0.649118828726076     
 -0.644916759741799      -0.639681713351323      -0.633571023713402     
 -0.626952361791786      -0.620344273168991      -0.614260444210174     
 -0.609060249181426      -0.604898701574814      -0.601730295022550     
 -0.599413721117150      -0.597769574152958      -0.596635086597498     
 -0.718012967662674      -0.717409421641878      -0.715858220046836     
 -0.713523595269477      -0.710320434981712      -0.706118365997435     
 -0.700883319606957      -0.694772629969033      -0.688153968047419     
 -0.681545879424627      -0.675462050465815      -0.670261855437068     
 -0.666100307830447      -0.662931901278183      -0.660615327372787     
 -0.658971180408591      -0.657836692853135      -0.781391579173730     
 -0.780788033152939      -0.779236831557895      -0.776902206780534     
 -0.773699046492769      -0.769496977508492      -0.764261931118013     
 -0.758151241480090      -0.751532579558470      -0.744924490935678     
 -0.738840661976866      -0.733640466948117      -0.729478919341499     
 -0.726310512789243      -0.723993938883838      -0.722349791919647     
 -0.721215304364188      -0.842593185429369      -0.841989639408572     
 -0.840438437813528      -0.838103813036172      -0.834900652748399     
 -0.830698583764127      -0.825463537373645      -0.819352847735724     
 -0.812734185814108      -0.806126097191316      -0.800042268232504     
 -0.794842073203748      -0.790680525597138      -0.787512119044875     
 -0.785195545139477      -0.783551398175285      -0.782416910619819     
 -0.897830126066957      -0.897226580046165      -0.895675378451119     
 -0.893340753673761      -0.890137593385991      -0.885935524401715     
 -0.880700478011232      -0.874589788373314      -0.867971126451704     
 -0.861363037828902      -0.855279208870096      -0.850079013841347     
 -0.845917466234723      -0.842749059682466      -0.840432485777068     
 -0.838788338812875      -0.837653851257413      -0.944724275302415     
 -0.944120729281626      -0.942569527686584      -0.940234902909222     
 -0.937031742621453      -0.932829673637179      -0.927594627246700     
 -0.921483937608778      -0.914865275687163      -0.908257187064374     
 -0.902173358105557      -0.896973163076811      -0.892811615470193     
 -0.889643208917929      -0.887326635012532      -0.885682488048337     
 -0.884548000492882      -0.982511262401625      -0.981907716380833     
 -0.980356514785788      -0.978021890008426      -0.974818729720665     
 -0.970616660736388      -0.965381614345903      -0.959270924707988     
 -0.952652262786374      -0.946044174163577      -0.939960345204765     
 -0.934760150176016      -0.930598602569402      -0.927430196017138     
 -0.925113622111735      -0.923469475147549      -0.922334987592087     
  -1.01169966585229       -1.01109611983150       -1.00954491823646     
  -1.00721029345910       -1.00400713317134      -0.999805064187062     
 -0.994570017796573      -0.988459328158659      -0.981840666237035     
 -0.975232577614256      -0.969148748655442      -0.963948553626687     
 -0.959787006020073      -0.956618599467807      -0.954302025562412     
 -0.952657878598217      -0.951523391042760       -1.03351847205170     
  -1.03291492603091       -1.03136372443587       -1.02902909965851     
  -1.02582593937073       -1.02162387038646       -1.01638882399598     
  -1.01027813435806       -1.00365947243644      -0.997051383813653     
 -0.990967554854827      -0.985767359826084      -0.981605812219469     
 -0.978437405667209      -0.976120831761801      -0.974476684797617     
 -0.973342197242153       -1.04943169942080       -1.04882815339999     
  -1.04727695180495       -1.04494232702760       -1.04173916673982     
  -1.03753709775555       -1.03230205136507       -1.02619136172715     
  -1.01957269980553       -1.01296461118274       -1.00688078222392     
  -1.00168058719517      -0.997519039588562      -0.994350633036300     
 -0.992034059130901      -0.990389912166712      -0.989255424611245     
  -1.06083056469453       -1.06022701867373       -1.05867581707869     
  -1.05634119230133       -1.05313803201356       -1.04893596302929     
  -1.04370091663881       -1.03759022700088       -1.03097156507928     
  -1.02436347645647       -1.01827964749766       -1.01307945246892     
  -1.00891790486230       -1.00574949831003       -1.00343292440464     
  -1.00178877744045       -1.00065428988499       -1.06889069767968     
  -1.06828715165889       -1.06673595006384       -1.06440132528648     
  -1.06119816499871       -1.05699609601443       -1.05176104962395     
  -1.04565035998603       -1.03903169806442       -1.03242360944163     
  -1.02633978048281       -1.02113958545406       -1.01697803784745     
  -1.01380963129519       -1.01149305738979       -1.00984891042560     
  -1.00871442287013     
  6.127486936345942E-002  6.292834912121824E-002  6.717803406525896E-002
  7.357399175253078E-002  8.234939663335367E-002  9.386142018552125E-002
  0.108203397332826       0.124944294089876       0.143076835990204     
  0.161180411192104       0.177847720206614       0.192094218270034     
  0.203495229114948       0.212175422369508       0.218521927736052     
  0.223026246595601       0.226134298249906       6.421694420134891E-002
  6.587042395910911E-002  7.012010890314734E-002  7.651606659042101E-002
  8.529147147124415E-002  9.680349502341067E-002  0.111145472170715     
  0.127886368927768       0.146018910828092       0.164122486029994     
  0.180789795044505       0.195036293107922       0.206437303952841     
  0.215117497207398       0.221464002573939       0.225968321433492     
  0.229076373087799       6.837770864086529E-002  7.003118839862513E-002
  7.428087334266158E-002  8.067683102993591E-002  8.945223591075820E-002
  0.100964259462925       0.115306236610229       0.132047133367282     
  0.150179675267609       0.168283250469510       0.184950559484021     
  0.199197057547439       0.210598068392356       0.219278261646912     
  0.225624767013454       0.230129085873002       0.233237137527314     
  7.418628598301084E-002  7.583976574076969E-002  8.008945068480820E-002
  8.648540837208245E-002  9.526081325290477E-002  0.106772836805072     
  0.121114813952377       0.137855710709428       0.155988252609756     
  0.174091827811656       0.190759136826165       0.205005634889585     
  0.216406645734500       0.225086838989060       0.231433344355601     
  0.235937663215154       0.239045714869460       8.215049213573038E-002
  8.380397189348975E-002  8.805365683752839E-002  9.444961452480170E-002
  0.103225019405625       0.114737042957791       0.129079020105097     
  0.145819916862147       0.163952458762474       0.182056033964375     
  0.198723342978887       0.212969841042305       0.224370851887222     
  0.233051045141778       0.239397550508322       0.243901869367872     
  0.247009921022177       9.280471676311945E-002  9.445819652087951E-002
  9.870788146491823E-002  0.105103839152191       0.113879244033014     
  0.125391267585182       0.139733244732487       0.156474141489537     
  0.174606683389864       0.192710258591765       0.209377567606275     
  0.223624065669693       0.235025076514612       0.243705269769167     
  0.250051775135709       0.254556093995262       0.257664145649570     
  0.106597559157793       0.108251038915553       0.112500723859591     
  0.118896681546863       0.127672086427688       0.139184109979850     
  0.153526087127159       0.170266983884209       0.188399525784538     
  0.206503100986437       0.223170410000949       0.237416908064361     
  0.248817918909284       0.257498112163839       0.263844617530385     
  0.268348936389936       0.271456988044244       0.123714658436938     
  0.125368138194699       0.129617823138736       0.136013780826012     
  0.144789185706835       0.156301209259002       0.170643186406306     
  0.187384083163358       0.205516625063682       0.223620200265583     
  0.240287509280096       0.254534007343514       0.265935018188425     
  0.274615211442988       0.280961716809532       0.285466035669079     
  0.288574087323388       0.143877007305290       0.145530487063055     
  0.149780172007093       0.156176129694362       0.164951534575188     
  0.176463558127357       0.190805535274660       0.207546432031713     
  0.225678973932039       0.243782549133938       0.260449858148448     
  0.274696356211862       0.286097367056785       0.294777560311341     
  0.301124065677880       0.305628384537435       0.308736436191740     
  0.166216552587600       0.167870032345362       0.172119717289400     
  0.178515674976670       0.187291079857498       0.198803103409663     
  0.213145080556967       0.229885977314020       0.248018519214348     
  0.266122094416248       0.282789403430758       0.297035901494179     
  0.308436912339093       0.317117105593652       0.323463610960193     
  0.327967929819744       0.331075981474053       0.189350738900739     
  0.191004218658500       0.195253903602540       0.201649861289807     
  0.210425266170633       0.221937289722803       0.236279266870107     
  0.253020163627159       0.271152705527478       0.289256280729384     
  0.305923589743895       0.320170087807309       0.331571098652229     
  0.340251291906786       0.346597797273332       0.351102116132882     
  0.354210167787187       0.211690284183047       0.213343763940810     
  0.217593448884849       0.223989406572118       0.232764811452942     
  0.244276835005112       0.258618812152413       0.275359708909464     
  0.293492250809793       0.311595826011696       0.328263135026203     
  0.342509633089614       0.353910643934540       0.362590837189097     
  0.368937342555640       0.373441661415191       0.376549713069499     
  0.231852633051404       0.233506112809158       0.237755797753200     
  0.244151755440473       0.252927160321299       0.264439183873464     
  0.278781161020768       0.295522057777822       0.313654599678148     
  0.331758174880039       0.348425483894559       0.362671981957976     
  0.374072992802884       0.382753186057448       0.389099691423991     
  0.393604010283546       0.396712061937847       0.248969732330548     
  0.250623212088311       0.254872897032347       0.261268854719622     
  0.270044259600441       0.281556283152610       0.295898260299917     
  0.312639157056960       0.330771698957294       0.348875274159194     
  0.365542583173703       0.379789081237125       0.391190092082040     
  0.399870285336598       0.406216790703140       0.410721109562691     
  0.413829161217000       0.262762574725221       0.264416054482981     
  0.268665739427020       0.275061697114287       0.283837101995113     
  0.295349125547286       0.309691102694581       0.326431999451640     
  0.344564541351970       0.362668116553867       0.379335425568377     
  0.393581923631794       0.404982934476713       0.413663127731271     
  0.420009633097811       0.424513951957360       0.427622003611672     
  0.273416799352609       0.275070279110376       0.279319964054410     
  0.285715921741685       0.294491326622508       0.306003350174674     
  0.320345327321978       0.337086224079031       0.355218765979347     
  0.373322341181257       0.389989650195768       0.404236148259182     
  0.415637159104103       0.424317352358658       0.430663857725204     
  0.435168176584754       0.438276228239063       0.281381005505330     
  0.283034485263093       0.287284170207130       0.293680127894403     
  0.302455532775222       0.313967556327396       0.328309533474697     
  0.345050430231751       0.363182972132076       0.381286547333980     
  0.397953856348480       0.412200354411905       0.423601365256823     
  0.432281558511382       0.438628063877917       0.443132382737470     
  0.446240434391778       0.287189582847478       0.288843062605236     
  0.293092747549279       0.299488705236549       0.308264110117362     
  0.319776133669542       0.334118110816846       0.350859007573895     
  0.368991549474222       0.387095124676123       0.403762433690633     
  0.418008931754051       0.429409942598968       0.438090135853530     
  0.444436641220067       0.448940960079620       0.452049011733923     
  0.291350347286993       0.293003827044748       0.297253511988790     
  0.303649469676065       0.312424874556883       0.323936898109057     
  0.338278875256358       0.355019772013403       0.373152313913740     
  0.391255889115636       0.407923198130146       0.422169696193567     
  0.433570707038481       0.442250900293032       0.448597405659583     
  0.453101724519139       0.456209776173445       0.294292422124880     
  0.295945901882643       0.300195586826680       0.306591544513948     
  0.315366949394780       0.326878972946943       0.341220950094250     
  0.357961846851300       0.376094388751625       0.394197963953528     
  0.410865272968031       0.425111771031446       0.436512781876373     
  0.445192975130929       0.451539480497470       0.456043799357023     
  0.459151851011331     
  0.000000000000000E+000 -2.059343134687265E-004 -5.967154644315922E-004
 -1.288783171780619E-003 -2.918895425121374E-003 -5.573396522451829E-003
 -9.167771110016921E-003 -1.357217217812317E-002 -1.838427778900438E-002
 -2.320014315178548E-002 -2.763890288787426E-002 -3.143970394449276E-002
 -3.447539076661003E-002 -3.679168976136481E-002 -3.848528426515805E-002
 -3.968682183911389E-002 -4.051708164825068E-002  0.000000000000000E+000
 -2.059343134687265E-004 -5.967154644315922E-004 -1.288783171780619E-003
 -2.918895425121374E-003 -5.573396522451829E-003 -9.167771110016921E-003
 -1.357217217812317E-002 -1.838427778900438E-002 -2.320014315178548E-002
 -2.763890288787426E-002 -3.143970394449276E-002 -3.447539076661003E-002
 -3.679168976136481E-002 -3.848528426515805E-002 -3.968682183911389E-002
 -4.051708164825068E-002  0.000000000000000E+000 -2.059343134687265E-004
 -5.967154644315922E-004 -1.288783171780619E-003 -2.918895425121374E-003
 -5.573396522451829E-003 -9.167771110016921E-003 -1.357217217812317E-002
 -1.838427778900438E-002 -2.320014315178548E-002 -2.763890288787426E-002
 -3.143970394449276E-002 -3.447539076661003E-002 -3.679168976136481E-002
 -3.848528426515805E-002 -3.968682183911389E-002 -4.051708164825068E-002
  0.000000000000000E+000 -2.059343134687265E-004 -5.967154644315922E-004
 -1.288783171780619E-003 -2.918895425121374E-003 -5.573396522451829E-003
 -9.167771110016921E-003 -1.357217217812317E-002 -1.838427778900438E-002
 -2.320014315178548E-002 -2.763890288787426E-002 -3.143970394449276E-002
 -3.447539076661003E-002 -3.679168976136481E-002 -3.848528426515805E-002
 -3.968682183911389E-002 -4.051708164825068E-002  0.000000000000000E+000
 -2.059343134687265E-004 -5.967154644315922E-004 -1.288783171780619E-003
 -2.918895425121374E-003 -5.573396522451829E-003 -9.167771110016921E-003
 -1.357217217812317E-002 -1.838427778900438E-002 -2.320014315178548E-002
 -2.763890288787426E-002 -3.143970394449276E-002 -3.447539076661003E-002
 -3.679168976136481E-002 -3.848528426515805E-002 -3.968682183911389E-002
 -4.051708164825068E-002  0.000000000000000E+000 -2.059343134687265E-004
 -5.967154644315922E-004 -1.288783171780619E-003 -2.918895425121374E-003
 -5.573396522451829E-003 -9.167771110016921E-003 -1.357217217812317E-002
 -1.838427778900438E-002 -2.320014315178548E-002 -2.763890288787426E-002
 -3.143970394449276E-002 -3.447539076661003E-002 -3.679168976136481E-002
 -3.848528426515805E-002 -3.968682183911389E-002 -4.051708164825068E-002
  0.000000000000000E+000 -2.059343134687265E-004 -5.967154644315922E-004
 -1.288783171780619E-003 -2.918895425121374E-003 -5.573396522451829E-003
 -9.167771110016921E-003 -1.357217217812317E-002 -1.838427778900438E-002
 -2.320014315178548E-002 -2.763890288787426E-002 -3.143970394449276E-002
 -3.447539076661003E-002 -3.679168976136481E-002 -3.848528426515805E-002
 -3.968682183911389E-002 -4.051708164825068E-002  0.000000000000000E+000
 -2.059343134687265E-004 -5.967154644315922E-004 -1.288783171780619E-003
 -2.918895425121374E-003 -5.573396522451829E-003 -9.167771110016921E-003
 -1.357217217812317E-002 -1.838427778900438E-002 -2.320014315178548E-002
 -2.763890288787426E-002 -3.143970394449276E-002 -3.447539076661003E-002
 -3.679168976136481E-002 -3.848528426515805E-002 -3.968682183911389E-002
 -4.051708164825068E-002  0.000000000000000E+000 -2.059343134687265E-004
 -5.967154644315922E-004 -1.288783171780619E-003 -2.918895425121374E-003
 -5.573396522451829E-003 -9.167771110016921E-003 -1.357217217812317E-002
 -1.838427778900438E-002 -2.320014315178548E-002 -2.763890288787426E-002
 -3.143970394449276E-002 -3.447539076661003E-002 -3.679168976136481E-002
 -3.848528426515805E-002 -3.968682183911389E-002 -4.051708164825068E-002
  0.000000000000000E+000 -2.059343134687265E-004 -5.967154644315922E-004
 -1.288783171780619E-003 -2.918895425121374E-003 -5.573396522451829E-003
 -9.167771110016921E-003 -1.357217217812317E-002 -1.838427778900438E-002
 -2.320014315178548E-002 -2.763890288787426E-002 -3.143970394449276E-002
 -3.447539076661003E-002 -3.679168976136481E-002 -3.848528426515805E-002
 -3.968682183911389E-002 -4.051708164825068E-002  0.000000000000000E+000
 -2.059343134687265E-004 -5.967154644315922E-004 -1.288783171780619E-003
 -2.918895425121374E-003 -5.573396522451829E-003 -9.167771110016921E-003
 -1.357217217812317E-002 -1.838427778900438E-002 -2.320014315178548E-002
 -2.763890288787426E-002 -3.143970394449276E-002 -3.447539076661003E-002
 -3.679168976136481E-002 -3.848528426515805E-002 -3.968682183911389E-002
 -4.051708164825068E-002  0.000000000000000E+000 -2.059343134687265E-004
 -5.967154644315922E-004 -1.288783171780619E-003 -2.918895425121374E-003
 -5.573396522451829E-003 -9.167771110016921E-003 -1.357217217812317E-002
 -1.838427778900438E-002 -2.320014315178548E-002 -2.763890288787426E-002
 -3.143970394449276E-002 -3.447539076661003E-002 -3.679168976136481E-002
 -3.848528426515805E-002 -3.968682183911389E-002 -4.051708164825068E-002
  0.000000000000000E+000 -2.059343134687265E-004 -5.967154644315922E-004
 -1.288783171780619E-003 -2.918895425121374E-003 -5.573396522451829E-003
 -9.167771110016921E-003 -1.357217217812317E-002 -1.838427778900438E-002
 -2.320014315178548E-002 -2.763890288787426E-002 -3.143970394449276E-002
 -3.447539076661003E-002 -3.679168976136481E-002 -3.848528426515805E-002
 -3.968682183911389E-002 -4.051708164825068E-002  0.000000000000000E+000
 -2.059343134687265E-004 -5.967154644315922E-004 -1.288783171780619E-003
 -2.918895425121374E-003 -5.573396522451829E-003 -9.167771110016921E-003
 -1.357217217812317E-002 -1.838427778900438E-002 -2.320014315178548E-002
 -2.763890288787426E-002 -3.143970394449276E-002 -3.447539076661003E-002
 -3.679168976136481E-002 -3.848528426515805E-002 -3.968682183911389E-002
 -4.051708164825068E-002  0.000000000000000E+000 -2.059343134687265E-004
 -5.967154644315922E-004 -1.288783171780619E-003 -2.918895425121374E-003
 -5.573396522451829E-003 -9.167771110016921E-003 -1.357217217812317E-002
 -1.838427778900438E-002 -2.320014315178548E-002 -2.763890288787426E-002
 -3.143970394449276E-002 -3.447539076661003E-002 -3.679168976136481E-002
 -3.848528426515805E-002 -3.968682183911389E-002 -4.051708164825068E-002
  0.000000000000000E+000 -2.059343134687265E-004 -5.967154644315922E-004
 -1.288783171780619E-003 -2.918895425121374E-003 -5.573396522451829E-003
 -9.167771110016921E-003 -1.357217217812317E-002 -1.838427778900438E-002
 -2.320014315178548E-002 -2.763890288787426E-002 -3.143970394449276E-002
 -3.447539076661003E-002 -3.679168976136481E-002 -3.848528426515805E-002
 -3.968682183911389E-002 -4.051708164825068E-002  0.000000000000000E+000
 -2.059343134687265E-004 -5.967154644315922E-004 -1.288783171780619E-003
 -2.918895425121374E-003 -5.573396522451829E-003 -9.167771110016921E-003
 -1.357217217812317E-002 -1.838427778900438E-002 -2.320014315178548E-002
 -2.763890288787426E-002 -3.143970394449276E-002 -3.447539076661003E-002
 -3.679168976136481E-002 -3.848528426515805E-002 -3.968682183911389E-002
 -4.051708164825068E-002  0.000000000000000E+000 -2.059343134687265E-004
 -5.967154644315922E-004 -1.288783171780619E-003 -2.918895425121374E-003
 -5.573396522451829E-003 -9.167771110016921E-003 -1.357217217812317E-002
 -1.838427778900438E-002 -2.320014315178548E-002 -2.763890288787426E-002
 -3.143970394449276E-002 -3.447539076661003E-002 -3.679168976136481E-002
 -3.848528426515805E-002 -3.968682183911389E-002 -4.051708164825068E-002
  0.000000000000000E+000 -2.059343134687265E-004 -5.967154644315922E-004
 -1.288783171780619E-003 -2.918895425121374E-003 -5.573396522451829E-003
 -9.167771110016921E-003 -1.357217217812317E-002 -1.838427778900438E-002
 -2.320014315178548E-002 -2.763890288787426E-002 -3.143970394449276E-002
 -3.447539076661003E-002 -3.679168976136481E-002 -3.848528426515805E-002
 -3.968682183911389E-002 -4.051708164825068E-002  0.000000000000000E+000
 -2.059343134687265E-004 -5.967154644315922E-004 -1.288783171780619E-003
 -2.918895425121374E-003 -5.573396522451829E-003 -9.167771110016921E-003
 -1.357217217812317E-002 -1.838427778900438E-002 -2.320014315178548E-002
 -2.763890288787426E-002 -3.143970394449276E-002 -3.447539076661003E-002
 -3.679168976136481E-002 -3.848528426515805E-002 -3.968682183911389E-002
 -4.051708164825068E-002
 -0.167307898385788      -0.326827178217038      -0.407024833463380     
 -0.393900989206254      -0.364395277549309      -0.344252046686675     
 -0.331785893389396      -0.335105277817759      -0.346021511773956     
 -0.361033198305325      -0.377465085497031      -0.394003869826372     
 -0.407286838519852      -0.417853286087995      -0.425644423932930     
 -0.430700544149660      -0.206580519387090      -0.415187260718093     
 -0.538281444295422      -0.545556751934451      -0.517051945825380     
 -0.491245183363877      -0.473533342406181      -0.477281553157082     
 -0.493097644625943      -0.516079584085170      -0.542326182984048     
 -0.569573287553315      -0.593347820843187      -0.613516791945325     
 -0.628562246510515      -0.637144045086433      -0.221185401708116     
 -0.448077197497705      -0.589211837109162      -0.609299031375695     
 -0.585707098185767      -0.558015960427277      -0.536135407858178     
 -0.538276936901670      -0.556161317443232      -0.584441305072707     
 -0.618158278691871      -0.653604264677021      -0.684431829330374     
 -0.709037582019056      -0.725739454613930      -0.734372156969236     
 -0.218383532637667      -0.443682152772909      -0.583340760180880     
 -0.599408105082141      -0.570308081561371      -0.535281680035065     
 -0.505053256753453      -0.500888482179797      -0.515882345811995     
 -0.544573016230481      -0.580629258513796      -0.618423775904001     
 -0.650111907522027      -0.674163121481928      -0.689757050190614     
 -0.697482407210973      -0.196385994997770      -0.399015758867438     
 -0.516289508470454      -0.506599719032054      -0.451765355133924     
 -0.392722677667933      -0.340723034473401      -0.318834020832987     
 -0.320498983705133      -0.339742520009922      -0.368814309079061     
 -0.400885943277589      -0.427679795683974      -0.447993608134326     
 -0.461050332280037      -0.467380453184387      -0.149507264636357     
 -0.302503461504063      -0.370933630406041      -0.307262788962411     
 -0.197874111419540      -8.726679702766335E-002  1.137846061301460E-002
  7.253813306357447E-002  0.102812750690415       0.108795192335100     
  9.919399736214086E-002  8.146456134961179E-002  6.468656777206037E-002
  5.083202970769465E-002  4.163997398443959E-002  3.720229669023432E-002
 -6.998268947644910E-002 -0.138136321142111      -0.123560438660700     
  3.026920072429034E-002  0.231746566408220       0.431290054250409     
  0.612024318488658       0.743973933980960       0.832729589819422     
  0.884790268278243       0.909592868687946       0.915822371849454     
  0.914829646573598       0.910686104316129       0.906986205615829     
  0.905068544451674       4.905673876583903E-002  0.108236259101461     
  0.246602800969294       0.533166052365828       0.870720238052090     
   1.20315232341446        1.50797294538870        1.74823463775375     
   1.92676287333438        2.04900130742531        2.12531829229681     
   2.16679216763476        2.18863732255905        2.19825389569030     
   2.20208176892121        2.20349695814357       0.208072227725559     
  0.437451372435293       0.740324209429853        1.20146248405600     
   1.71791363246360        2.22573427213923        2.69505248845427     
   3.07971527612602        3.37825293828557        3.59432160656580     
   3.73949372149379        3.82814702066256        3.88052794795760     
   3.90840190204551        3.92207152966349        3.92777669455502     
  0.394305564320920       0.822949508598365        1.31758777920628     
   1.98078773695645        2.70384743260478        3.41422443027534     
   4.07369074942283        4.62580516168088        5.06415513966356     
   5.39028362402616        5.61696824924562        5.76207445210692     
   5.85127799402988        5.90124011926402        5.92680471201466     
   5.93767835273302       0.579653155038726        1.20638566304684     
   1.89120585900970        2.75419354113303        3.68082216318312     
   4.59008492963732        5.43589366216427        6.15237908746003     
   6.72898055728823        7.16539553546139        7.47519628278796     
   7.67896157861135        7.80709242240337        7.88074120156880     
   7.91919393377745        7.93570131708830       0.729933233430863     
   1.51677850342895        2.35518264925832        3.37971312983836     
   4.46962651055295        5.53650552346709        6.52857437408310     
   7.37371138874402        8.05991107959190        8.58623983784493     
   8.96632258483132        9.22157251482447        9.38508903201992     
   9.48095534819149        9.53181042902165        9.55383669365771     
  0.820944704167478        1.70373736801361        2.63393221561030     
   3.75545994956747        4.94053425103673        6.09479752962495     
   7.16403623728895        8.07494240174576        8.81880011093713     
   9.39675417757706        9.82192814482617        10.1137062799867     