 Title = "Wing and Wake"
 VARIABLES = "X" "Y" "Z" "GAM" "skew"
 Zone I=   17 J=   20 K=1  T="Blade 01"
 DATAPACKING=BLOCK
 VARLOCATION=([4]=CELLCENTERED,[5]=CELLCENTERED)
 -0.430513849156732      -0.429910303135935      -0.428359101540892     
 -0.426024476763534      -0.422821316475765      -0.418619247491489     
 -0.413384201101012      -0.407273511463085      -0.400654849541476     
 -0.394046760918681      -0.387962931959866      -0.382762736931117     
 -0.378601189324503      -0.375432782772238      -0.373116208866841     
 -0.371472061902649      -0.370337574347186      -0.438573982141877     
 -0.437970436121082      -0.436419234526039      -0.434084609748683     
 -0.430881449460913      -0.426679380476636      -0.421444334086158     
 -0.415333644448234      -0.408714982526621      -0.402106893903827     
 -0.396023064945015      -0.390822869916267      -0.386661322309651     
 -0.383492915757387      -0.381176341851988      -0.379532194887797     
 -0.378397707332338      -0.449972847415618      -0.449369301394822     
 -0.447818099799780      -0.445483475022421      -0.442280314734652     
 -0.438078245750375      -0.432843199359898      -0.426732509721974     
 -0.420113847800361      -0.413505759177567      -0.407421930218753     
 -0.402221735190006      -0.398060187583391      -0.394891781031127     
 -0.392575207125726      -0.390931060161534      -0.389796572606076     
 -0.465886074784707      -0.465282528763912      -0.463731327168868     
 -0.461396702391508      -0.458193542103742      -0.453991473119467     
 -0.448756426728987      -0.442645737091063      -0.436027075169450     
 -0.429418986546656      -0.423335157587842      -0.418134962559094     
 -0.413973414952476      -0.410805008400216      -0.408488434494816     
 -0.406844287530622      -0.405709799975165      -0.487704880984108     
 -0.487101334963313      -0.485550133368271      -0.483215508590912     
 -0.480012348303139      -0.475810279318864      -0.470575232928387     
 -0.464464543290462      -0.457845881368852      -0.451237792746056     
 -0.445153963787245      -0.439953768758493      -0.435792221151878     
 -0.432623814599614      -0.430307240694217      -0.428663093730024     
 -0.427528606174565      -0.516893284434778      -0.516289738413983     
 -0.514738536818941      -0.512403912041581      -0.509200751753813     
 -0.504998682769536      -0.499763636379056      -0.493652946741133     
 -0.487034284819522      -0.480426196196730      -0.474342367237914     
 -0.469142172209164      -0.464980624602552      -0.461812218050283     
 -0.459495644144884      -0.457851497180696      -0.456717009625237     
 -0.554680271533988      -0.554076725513192      -0.552525523918152     
 -0.550190899140787      -0.546987738853019      -0.542785669868742     
 -0.537550623478264      -0.531439933840344      -0.524821271918730     
 -0.518213183295936      -0.512129354337123      -0.506929159308369     
 -0.502767611701760      -0.499599205149493      -0.497282631244097     
 -0.495638484279905      -0.494503996724446      -0.601574420769447     
 -0.600970874748651      -0.599419673153607      -0.597085048376256     
 -0.593881888088486      -0.589679819104211      -0.584444772713732     
 -0.578334083075805      -0.571715421154191      -0.565107332531398     
 -0.559023503572587      -0.553823308543839      -0.549661760937218     
 -0.546493354384959      -0.544176780479559      -0.542532633515365     
 -0.541398145959909      -0.656811361407037      -0.656207815386245     
 -0.654656613791205      -0.652321989013845      -0.649118828726075     
 -0.644916759741799      -0.639681713351323      -0.633571023713401     
 -0.626952361791786      -0.620344273168991      -0.614260444210174     
 -0.609060249181426      -0.604898701574815      -0.601730295022550     
 -0.599413721117150      -0.597769574152958      -0.596635086597498     
 -0.718012967662674      -0.717409421641877      -0.715858220046835     
 -0.713523595269477      -0.710320434981712      -0.706118365997434     
 -0.700883319606957      -0.694772629969032      -0.688153968047419     
 -0.681545879424626      -0.675462050465815      -0.670261855437067     
 -0.666100307830447      -0.662931901278182      -0.660615327372787     
 -0.658971180408591      -0.657836692853135      -0.781391579173729     
 -0.780788033152939      -0.779236831557894      -0.776902206780534     
 -0.773699046492768      -0.769496977508492      -0.764261931118013     
 -0.758151241480090      -0.751532579558470      -0.744924490935678     
 -0.738840661976865      -0.733640466948117      -0.729478919341499     
 -0.726310512789243      -0.723993938883839      -0.722349791919647     
 -0.721215304364188      -0.842593185429369      -0.841989639408571     
 -0.840438437813528      -0.838103813036171      -0.834900652748399     
 -0.830698583764127      -0.825463537373645      -0.819352847735723     
 -0.812734185814107      -0.806126097191316      -0.800042268232503     
 -0.794842073203748      -0.790680525597138      -0.787512119044875     
 -0.785195545139476      -0.783551398175284      -0.782416910619820     
 -0.897830126066957      -0.897226580046165      -0.895675378451119     
 -0.893340753673761      -0.890137593385991      -0.885935524401714     
 -0.880700478011232      -0.874589788373313      -0.867971126451704     
 -0.861363037828902      -0.855279208870096      -0.850079013841346     
 -0.845917466234723      -0.842749059682466      -0.840432485777068     
 -0.838788338812875      -0.837653851257412      -0.944724275302415     
 -0.944120729281626      -0.942569527686584      -0.940234902909222     
 -0.937031742621453      -0.932829673637178      -0.927594627246700     
 -0.921483937608777      -0.914865275687163      -0.908257187064373     
 -0.902173358105556      -0.896973163076810      -0.892811615470193     
 -0.889643208917928      -0.887326635012531      -0.885682488048337     
 -0.884548000492881      -0.982511262401625      -0.981907716380832     
 -0.980356514785788      -0.978021890008426      -0.974818729720665     
 -0.970616660736388      -0.965381614345903      -0.959270924707987     
 -0.952652262786373      -0.946044174163576      -0.939960345204764     
 -0.934760150176015      -0.930598602569402      -0.927430196017137     
 -0.925113622111735      -0.923469475147548      -0.922334987592086     
  -1.01169966585229       -1.01109611983150       -1.00954491823646     
  -1.00721029345910       -1.00400713317134      -0.999805064187061     
 -0.994570017796573      -0.988459328158659      -0.981840666237035     
 -0.975232577614255      -0.969148748655441      -0.963948553626687     
 -0.959787006020074      -0.956618599467807      -0.954302025562411     
 -0.952657878598217      -0.951523391042760       -1.03351847205170     
  -1.03291492603091       -1.03136372443587       -1.02902909965850     
  -1.02582593937073       -1.02162387038646       -1.01638882399598     
  -1.01027813435806       -1.00365947243644      -0.997051383813652     
 -0.990967554854827      -0.985767359826083      -0.981605812219469     
 -0.978437405667209      -0.976120831761801      -0.974476684797617     
 -0.973342197242153       -1.04943169942079       -1.04882815339999     
  -1.04727695180495       -1.04494232702760       -1.04173916673982     
  -1.03753709775555       -1.03230205136507       -1.02619136172715     
  -1.01957269980553       -1.01296461118274       -1.00688078222392     
  -1.00168058719517      -0.997519039588561      -0.994350633036299     
 -0.992034059130901      -0.990389912166712      -0.989255424611245     
  -1.06083056469453       -1.06022701867373       -1.05867581707868     
  -1.05634119230133       -1.05313803201356       -1.04893596302929     
  -1.04370091663881       -1.03759022700088       -1.03097156507927     
  -1.02436347645647       -1.01827964749766       -1.01307945246892     
  -1.00891790486230       -1.00574949831003       -1.00343292440464     
  -1.00178877744045       -1.00065428988499       -1.06889069767968     
  -1.06828715165889       -1.06673595006384       -1.06440132528648     
  -1.06119816499871       -1.05699609601443       -1.05176104962395     
  -1.04565035998603       -1.03903169806442       -1.03242360944163     
  -1.02633978048281       -1.02113958545406       -1.01697803784745     
  -1.01380963129519       -1.01149305738979       -1.00984891042559     
  -1.00871442287013     
  6.127486936345898E-002  6.292834912121768E-002  6.717803406525875E-002
  7.357399175253058E-002  8.234939663335340E-002  9.386142018552096E-002
  0.108203397332826       0.124944294089876       0.143076835990204     
  0.161180411192104       0.177847720206614       0.192094218270034     
  0.203495229114948       0.212175422369508       0.218521927736051     
  0.223026246595601       0.226134298249906       6.421694420134859E-002
  6.587042395910869E-002  7.012010890314709E-002  7.651606659042071E-002
  8.529147147124386E-002  9.680349502341033E-002  0.111145472170714     
  0.127886368927767       0.146018910828092       0.164122486029994     
  0.180789795044505       0.195036293107922       0.206437303952840     
  0.215117497207397       0.221464002573939       0.225968321433492     
  0.229076373087798       6.837770864086480E-002  7.003118839862457E-002
  7.428087334266119E-002  8.067683102993550E-002  8.945223591075774E-002
  0.100964259462925       0.115306236610229       0.132047133367281     
  0.150179675267608       0.168283250469510       0.184950559484021     
  0.199197057547439       0.210598068392355       0.219278261646912     
  0.225624767013454       0.230129085873002       0.233237137527313     
  7.418628598301057E-002  7.583976574076932E-002  8.008945068480781E-002
  8.648540837208211E-002  9.526081325290466E-002  0.106772836805071     
  0.121114813952376       0.137855710709427       0.155988252609756     
  0.174091827811656       0.190759136826164       0.205005634889584     
  0.216406645734500       0.225086838989059       0.231433344355601     
  0.235937663215153       0.239045714869460       8.215049213573002E-002
  8.380397189348947E-002  8.805365683752799E-002  9.444961452480131E-002
  0.103225019405625       0.114737042957791       0.129079020105096     
  0.145819916862147       0.163952458762473       0.182056033964374     
  0.198723342978886       0.212969841042304       0.224370851887222     
  0.233051045141777       0.239397550508321       0.243901869367871     
  0.247009921022177       9.280471676311935E-002  9.445819652087913E-002
  9.870788146491780E-002  0.105103839152191       0.113879244033013     
  0.125391267585181       0.139733244732486       0.156474141489536     
  0.174606683389863       0.192710258591764       0.209377567606275     
  0.223624065669693       0.235025076514611       0.243705269769167     
  0.250051775135708       0.254556093995262       0.257664145649570     
  0.106597559157793       0.108251038915553       0.112500723859590     
  0.118896681546863       0.127672086427688       0.139184109979850     
  0.153526087127159       0.170266983884209       0.188399525784537     
  0.206503100986437       0.223170410000949       0.237416908064361     
  0.248817918909284       0.257498112163839       0.263844617530384     
  0.268348936389935       0.271456988044243       0.123714658436938     
  0.125368138194698       0.129617823138736       0.136013780826012     
  0.144789185706834       0.156301209259001       0.170643186406305     
  0.187384083163357       0.205516625063682       0.223620200265582     
  0.240287509280096       0.254534007343513       0.265935018188426     
  0.274615211442987       0.280961716809531       0.285466035669079     
  0.288574087323388       0.143877007305290       0.145530487063054     
  0.149780172007093       0.156176129694361       0.164951534575187     
  0.176463558127357       0.190805535274659       0.207546432031712     
  0.225678973932039       0.243782549133937       0.260449858148447     
  0.274696356211862       0.286097367056785       0.294777560311340     
  0.301124065677880       0.305628384537434       0.308736436191740     
  0.166216552587600       0.167870032345362       0.172119717289399     
  0.178515674976670       0.187291079857498       0.198803103409663     
  0.213145080556967       0.229885977314019       0.248018519214348     
  0.266122094416247       0.282789403430757       0.297035901494178     
  0.308436912339092       0.317117105593651       0.323463610960192     
  0.327967929819743       0.331075981474052       0.189350738900738     
  0.191004218658499       0.195253903602539       0.201649861289807     
  0.210425266170632       0.221937289722802       0.236279266870106     
  0.253020163627158       0.271152705527478       0.289256280729383     
  0.305923589743894       0.320170087807309       0.331571098652228     
  0.340251291906786       0.346597797273331       0.351102116132881     
  0.354210167787186       0.211690284183047       0.213343763940809     
  0.217593448884848       0.223989406572117       0.232764811452942     
  0.244276835005111       0.258618812152413       0.275359708909463     
  0.293492250809792       0.311595826011696       0.328263135026203     
  0.342509633089614       0.353910643934539       0.362590837189097     
  0.368937342555639       0.373441661415190       0.376549713069498     
  0.231852633051404       0.233506112809158       0.237755797753199     
  0.244151755440472       0.252927160321298       0.264439183873463     
  0.278781161020767       0.295522057777821       0.313654599678147     
  0.331758174880039       0.348425483894558       0.362671981957976     
  0.374072992802884       0.382753186057447       0.389099691423990     
  0.393604010283544       0.396712061937846       0.248969732330548     
  0.250623212088311       0.254872897032347       0.261268854719621     
  0.270044259600440       0.281556283152609       0.295898260299916     
  0.312639157056960       0.330771698957293       0.348875274159193     
  0.365542583173702       0.379789081237124       0.391190092082039     
  0.399870285336597       0.406216790703139       0.410721109562690     
  0.413829161216999       0.262762574725220       0.264416054482981     
  0.268665739427019       0.275061697114287       0.283837101995113     
  0.295349125547285       0.309691102694581       0.326431999451640     
  0.344564541351969       0.362668116553865       0.379335425568376     
  0.393581923631793       0.404982934476712       0.413663127731270     
  0.420009633097810       0.424513951957360       0.427622003611670     
  0.273416799352608       0.275070279110375       0.279319964054409     
  0.285715921741684       0.294491326622507       0.306003350174672     
  0.320345327321977       0.337086224079030       0.355218765979347     
  0.373322341181256       0.389989650195767       0.404236148259182     
  0.415637159104103       0.424317352358658       0.430663857725202     
  0.435168176584753       0.438276228239062       0.281381005505330     
  0.283034485263093       0.287284170207130       0.293680127894402     
  0.302455532775221       0.313967556327395       0.328309533474696     
  0.345050430231749       0.363182972132075       0.381286547333979     
  0.397953856348480       0.412200354411904       0.423601365256822     
  0.432281558511381       0.438628063877917       0.443132382737470     
  0.446240434391778       0.287189582847478       0.288843062605235     
  0.293092747549278       0.299488705236549       0.308264110117362     
  0.319776133669541       0.334118110816845       0.350859007573894     
  0.368991549474221       0.387095124676122       0.403762433690631     
  0.418008931754051       0.429409942598967       0.438090135853529     
  0.444436641220067       0.448940960079620       0.452049011733922     
  0.291350347286993       0.293003827044748       0.297253511988789     
  0.303649469676064       0.312424874556882       0.323936898109055     
  0.338278875256358       0.355019772013403       0.373152313913739     
  0.391255889115636       0.407923198130145       0.422169696193566     
  0.433570707038481       0.442250900293032       0.448597405659582     
  0.453101724519138       0.456209776173444       0.294292422124880     
  0.295945901882642       0.300195586826680       0.306591544513948     
  0.315366949394779       0.326878972946942       0.341220950094249     
  0.357961846851299       0.376094388751624       0.394197963953527     
  0.410865272968031       0.425111771031446       0.436512781876372     
  0.445192975130928       0.451539480497469       0.456043799357022     
  0.459151851011331     
  0.000000000000000E+000 -2.059343134687265E-004 -5.967154644315922E-004
 -1.288783171780619E-003 -2.918895425121374E-003 -5.573396522451829E-003
 -9.167771110016921E-003 -1.357217217812317E-002 -1.838427778900438E-002
 -2.320014315178548E-002 -2.763890288787426E-002 -3.143970394449276E-002
 -3.447539076661003E-002 -3.679168976136481E-002 -3.848528426515805E-002
 -3.968682183911389E-002 -4.051708164825068E-002  0.000000000000000E+000
 -2.059343134687265E-004 -5.967154644315922E-004 -1.288783171780619E-003
 -2.918895425121374E-003 -5.573396522451829E-003 -9.167771110016921E-003
 -1.357217217812317E-002 -1.838427778900438E-002 -2.320014315178548E-002
 -2.763890288787426E-002 -3.143970394449276E-002 -3.447539076661003E-002
 -3.679168976136481E-002 -3.848528426515805E-002 -3.968682183911389E-002
 -4.051708164825068E-002  0.000000000000000E+000 -2.059343134687265E-004
 -5.967154644315922E-004 -1.288783171780619E-003 -2.918895425121374E-003
 -5.573396522451829E-003 -9.167771110016921E-003 -1.357217217812317E-002
 -1.838427778900438E-002 -2.320014315178548E-002 -2.763890288787426E-002
 -3.143970394449276E-002 -3.447539076661003E-002 -3.679168976136481E-002
 -3.848528426515805E-002 -3.968682183911389E-002 -4.051708164825068E-002
  0.000000000000000E+000 -2.059343134687265E-004 -5.967154644315922E-004
 -1.288783171780619E-003 -2.918895425121374E-003 -5.573396522451829E-003
 -9.167771110016921E-003 -1.357217217812317E-002 -1.838427778900438E-002
 -2.320014315178548E-002 -2.763890288787426E-002 -3.143970394449276E-002
 -3.447539076661003E-002 -3.679168976136481E-002 -3.848528426515805E-002
 -3.968682183911389E-002 -4.051708164825068E-002  0.000000000000000E+000
 -2.059343134687265E-004 -5.967154644315922E-004 -1.288783171780619E-003
 -2.918895425121374E-003 -5.573396522451829E-003 -9.167771110016921E-003
 -1.357217217812317E-002 -1.838427778900438E-002 -2.320014315178548E-002
 -2.763890288787426E-002 -3.143970394449276E-002 -3.447539076661003E-002
 -3.679168976136481E-002 -3.848528426515805E-002 -3.968682183911389E-002
 -4.051708164825068E-002  0.000000000000000E+000 -2.059343134687265E-004
 -5.967154644315922E-004 -1.288783171780619E-003 -2.918895425121374E-003
 -5.573396522451829E-003 -9.167771110016921E-003 -1.357217217812317E-002
 -1.838427778900438E-002 -2.320014315178548E-002 -2.763890288787426E-002
 -3.143970394449276E-002 -3.447539076661003E-002 -3.679168976136481E-002
 -3.848528426515805E-002 -3.968682183911389E-002 -4.051708164825068E-002
  0.000000000000000E+000 -2.059343134687265E-004 -5.967154644315922E-004
 -1.288783171780619E-003 -2.918895425121374E-003 -5.573396522451829E-003
 -9.167771110016921E-003 -1.357217217812317E-002 -1.838427778900438E-002
 -2.320014315178548E-002 -2.763890288787426E-002 -3.143970394449276E-002
 -3.447539076661003E-002 -3.679168976136481E-002 -3.848528426515805E-002
 -3.968682183911389E-002 -4.051708164825068E-002  0.000000000000000E+000
 -2.059343134687265E-004 -5.967154644315922E-004 -1.288783171780619E-003
 -2.918895425121374E-003 -5.573396522451829E-003 -9.167771110016921E-003
 -1.357217217812317E-002 -1.838427778900438E-002 -2.320014315178548E-002
 -2.763890288787426E-002 -3.143970394449276E-002 -3.447539076661003E-002
 -3.679168976136481E-002 -3.848528426515805E-002 -3.968682183911389E-002
 -4.051708164825068E-002  0.000000000000000E+000 -2.059343134687265E-004
 -5.967154644315922E-004 -1.288783171780619E-003 -2.918895425121374E-003
 -5.573396522451829E-003 -9.167771110016921E-003 -1.357217217812317E-002
 -1.838427778900438E-002 -2.320014315178548E-002 -2.763890288787426E-002
 -3.143970394449276E-002 -3.447539076661003E-002 -3.679168976136481E-002
 -3.848528426515805E-002 -3.968682183911389E-002 -4.051708164825068E-002
  0.000000000000000E+000 -2.059343134687265E-004 -5.967154644315922E-004
 -1.288783171780619E-003 -2.918895425121374E-003 -5.573396522451829E-003
 -9.167771110016921E-003 -1.357217217812317E-002 -1.838427778900438E-002
 -2.320014315178548E-002 -2.763890288787426E-002 -3.143970394449276E-002
 -3.447539076661003E-002 -3.679168976136481E-002 -3.848528426515805E-002
 -3.968682183911389E-002 -4.051708164825068E-002  0.000000000000000E+000
 -2.059343134687265E-004 -5.967154644315922E-004 -1.288783171780619E-003
 -2.918895425121374E-003 -5.573396522451829E-003 -9.167771110016921E-003
 -1.357217217812317E-002 -1.838427778900438E-002 -2.320014315178548E-002
 -2.763890288787426E-002 -3.143970394449276E-002 -3.447539076661003E-002
 -3.679168976136481E-002 -3.848528426515805E-002 -3.968682183911389E-002
 -4.051708164825068E-002  0.000000000000000E+000 -2.059343134687265E-004
 -5.967154644315922E-004 -1.288783171780619E-003 -2.918895425121374E-003
 -5.573396522451829E-003 -9.167771110016921E-003 -1.357217217812317E-002
 -1.838427778900438E-002 -2.320014315178548E-002 -2.763890288787426E-002
 -3.143970394449276E-002 -3.447539076661003E-002 -3.679168976136481E-002
 -3.848528426515805E-002 -3.968682183911389E-002 -4.051708164825068E-002
  0.000000000000000E+000 -2.059343134687265E-004 -5.967154644315922E-004
 -1.288783171780619E-003 -2.918895425121374E-003 -5.573396522451829E-003
 -9.167771110016921E-003 -1.357217217812317E-002 -1.838427778900438E-002
 -2.320014315178548E-002 -2.763890288787426E-002 -3.143970394449276E-002
 -3.447539076661003E-002 -3.679168976136481E-002 -3.848528426515805E-002
 -3.968682183911389E-002 -4.051708164825068E-002  0.000000000000000E+000
 -2.059343134687265E-004 -5.967154644315922E-004 -1.288783171780619E-003
 -2.918895425121374E-003 -5.573396522451829E-003 -9.167771110016921E-003
 -1.357217217812317E-002 -1.838427778900438E-002 -2.320014315178548E-002
 -2.763890288787426E-002 -3.143970394449276E-002 -3.447539076661003E-002
 -3.679168976136481E-002 -3.848528426515805E-002 -3.968682183911389E-002
 -4.051708164825068E-002  0.000000000000000E+000 -2.059343134687265E-004
 -5.967154644315922E-004 -1.288783171780619E-003 -2.918895425121374E-003
 -5.573396522451829E-003 -9.167771110016921E-003 -1.357217217812317E-002
 -1.838427778900438E-002 -2.320014315178548E-002 -2.763890288787426E-002
 -3.143970394449276E-002 -3.447539076661003E-002 -3.679168976136481E-002
 -3.848528426515805E-002 -3.968682183911389E-002 -4.051708164825068E-002
  0.000000000000000E+000 -2.059343134687265E-004 -5.967154644315922E-004
 -1.288783171780619E-003 -2.918895425121374E-003 -5.573396522451829E-003
 -9.167771110016921E-003 -1.357217217812317E-002 -1.838427778900438E-002
 -2.320014315178548E-002 -2.763890288787426E-002 -3.143970394449276E-002
 -3.447539076661003E-002 -3.679168976136481E-002 -3.848528426515805E-002
 -3.968682183911389E-002 -4.051708164825068E-002  0.000000000000000E+000
 -2.059343134687265E-004 -5.967154644315922E-004 -1.288783171780619E-003
 -2.918895425121374E-003 -5.573396522451829E-003 -9.167771110016921E-003
 -1.357217217812317E-002 -1.838427778900438E-002 -2.320014315178548E-002
 -2.763890288787426E-002 -3.143970394449276E-002 -3.447539076661003E-002
 -3.679168976136481E-002 -3.848528426515805E-002 -3.968682183911389E-002
 -4.051708164825068E-002  0.000000000000000E+000 -2.059343134687265E-004
 -5.967154644315922E-004 -1.288783171780619E-003 -2.918895425121374E-003
 -5.573396522451829E-003 -9.167771110016921E-003 -1.357217217812317E-002
 -1.838427778900438E-002 -2.320014315178548E-002 -2.763890288787426E-002
 -3.143970394449276E-002 -3.447539076661003E-002 -3.679168976136481E-002
 -3.848528426515805E-002 -3.968682183911389E-002 -4.051708164825068E-002
  0.000000000000000E+000 -2.059343134687265E-004 -5.967154644315922E-004
 -1.288783171780619E-003 -2.918895425121374E-003 -5.573396522451829E-003
 -9.167771110016921E-003 -1.357217217812317E-002 -1.838427778900438E-002
 -2.320014315178548E-002 -2.763890288787426E-002 -3.143970394449276E-002
 -3.447539076661003E-002 -3.679168976136481E-002 -3.848528426515805E-002
 -3.968682183911389E-002 -4.051708164825068E-002  0.000000000000000E+000
 -2.059343134687265E-004 -5.967154644315922E-004 -1.288783171780619E-003
 -2.918895425121374E-003 -5.573396522451829E-003 -9.167771110016921E-003
 -1.357217217812317E-002 -1.838427778900438E-002 -2.320014315178548E-002
 -2.763890288787426E-002 -3.143970394449276E-002 -3.447539076661003E-002
 -3.679168976136481E-002 -3.848528426515805E-002 -3.968682183911389E-002
 -4.051708164825068E-002
 -0.164996210242569      -0.322330208258720      -0.400868441046252     
 -0.386392906923125      -0.355768181851217      -0.334730130390419     
 -0.321607180063639      -0.324510906134642      -0.335234714610920     
 -0.350239115970239      -0.366799704694551      -0.383550521042561     
 -0.397081142804312      -0.407879953493144      -0.415828409900663     
 -0.420913804135114      -0.203472487329373      -0.408924360211610     
 -0.529380918969857      -0.534399345305427      -0.503994602768397     
 -0.476663167253614      -0.457826725049011      -0.460851682743294     
 -0.476312721633110      -0.499241583723990      -0.525651717302935     
 -0.553186921703524      -0.577289664166036      -0.597749404414963     
 -0.612978504278189      -0.621579501109849      -0.217482893419518     
 -0.440534538785540      -0.578324364031332      -0.595417386819804     
 -0.569206151525242      -0.539359982560102      -0.515860528035284     
 -0.516936216844770      -0.534265457553684      -0.562408151741435     
 -0.596285473680946      -0.632065238651372      -0.663296324654653     
 -0.688287434341097      -0.705260645266946      -0.713949190892043     
 -0.214186955528706      -0.435090316628515      -0.570844501341983     
 -0.583319779990014      -0.550970343343340      -0.513181464268081     
 -0.480816459542153      -0.475201372913861      -0.489398103204367     
 -0.517835598863711      -0.554035983905255      -0.592223421933172     
 -0.624425970523199      -0.648991526923928      -0.664959754582800     
 -0.672780501997324      -0.191794679879436      -0.389589649548467     
 -0.502521081753361      -0.488770137597943      -0.430175164996562     
 -0.367844139791916      -0.313223362184725      -0.289497903183323     
 -0.290110297973893      -0.308978136464919      -0.338186239414253     
 -0.370726540970889      -0.398153702364128      -0.419102447206253     
 -0.432621265931439      -0.439078801024876      -0.144658531444036     
 -0.292531046156559      -0.356326865614517      -0.288274882541415     
 -0.174764230485255      -6.047754228369127E-002  4.117170662524466E-002
  0.104490094911976       0.136036115100261       0.142494994439015     
  0.132755859276302       0.114490008987678       9.698530889673779E-002
  8.240806251418692E-002  7.269236978757083E-002  6.810441693966998E-002
 -6.505582970435921E-002 -0.127989830176345      -0.108667793763642     
  4.968520324013351E-002  0.255468292065807       0.458912987266806     
  0.642887869366546       0.777207468776631       0.867381867520570     
  0.919985989800957       0.944649277477667       0.950301273905522     
  0.948529183184158       0.943616633851519       0.939361748434458     
  0.937280024910454       5.391129278902668E-002  0.118244427320446     
  0.261317967286254       0.552398854749292       0.894295082772357     
   1.23070901777721        1.53888346623462        1.78163366524827     
   1.96167563747314        2.08451413993156        2.16071465692522     
   2.20161537797570        2.22268167927630        2.23153262465175     
   2.23480944228487        2.23605748783969       0.212888927546432     
  0.447388630786706       0.754953528123898        1.22062059684871     
   1.74145951424502        2.25334686909852        2.72613826394271     
   3.11342666264207        3.41361407835760        3.63040548190654     
   3.77556810900171        3.86374241682297        3.91542909400007     
   3.94261003592179        3.95577867231770        3.96132982512227     
  0.399375299122763       0.833410676898488        1.33299402613952     
   2.00097905138936        2.72869718248088        3.44342687584828     
   4.10666268676048        4.66169916311929        5.10198659617075     
   5.42911064906412        5.65603937528879        5.80089503247625     
   5.88960130201226        5.93902672326043        5.96419264152258     
   5.97494628752953       0.585280154970268        1.21799440518784     
   1.90829622696335        2.77658552047420        3.70838280658290     
   4.62249759460762        5.47255544871190        6.19241583030017     
   6.77137932641030        7.20918664190779        7.51959783333161     
   7.72343907441991        7.85134764269235        7.92467087105836     
   7.96286006832145        7.97929614669964       0.736099394556877     
   1.52949649339327        2.37389732252744        3.40421932770732     
   4.49977866449324        5.57197079165934        6.56872827079998     
   7.41765683601184        8.10661465056959        8.63471241777039     
   9.01575798506228        9.27140009881271        9.43496124452125     
   9.53070670832462        9.58142923178610        9.60343284552292     
  0.827310962505238        1.71686472234796        2.65324009629953     
   3.78072711945077        4.97160597781866        6.13133652327656     
   7.20542261750494        8.12029722831747        8.86711862344781     
   9.44707448742142        9.87345597365271        10.1658609695284     