 Title = "Wing and Wake"
 VARIABLES = "X" "Y" "Z" "GAM" "skew"
 Zone I=   17 J=   20 K=1  T="Blade 01"
 DATAPACKING=BLOCK
 VARLOCATION=([4]=CELLCENTERED,[5]=CELLCENTERED)
  0.430513849156732       0.429910303135935       0.428359101540892     
  0.426024476763533       0.422821316475765       0.418619247491489     
  0.413384201101012       0.407273511463085       0.400654849541476     
  0.394046760918681       0.387962931959866       0.382762736931117     
  0.378601189324503       0.375432782772238       0.373116208866841     
  0.371472061902648       0.370337574347186       0.438573982141877     
  0.437970436121082       0.436419234526039       0.434084609748683     
  0.430881449460913       0.426679380476636       0.421444334086158     
  0.415333644448234       0.408714982526621       0.402106893903827     
  0.396023064945015       0.390822869916267       0.386661322309651     
  0.383492915757387       0.381176341851988       0.379532194887797     
  0.378397707332338       0.449972847415618       0.449369301394822     
  0.447818099799780       0.445483475022421       0.442280314734652     
  0.438078245750375       0.432843199359897       0.426732509721974     
  0.420113847800361       0.413505759177567       0.407421930218753     
  0.402221735190006       0.398060187583390       0.394891781031127     
  0.392575207125726       0.390931060161534       0.389796572606076     
  0.465886074784707       0.465282528763912       0.463731327168868     
  0.461396702391508       0.458193542103742       0.453991473119467     
  0.448756426728987       0.442645737091063       0.436027075169449     
  0.429418986546656       0.423335157587842       0.418134962559094     
  0.413973414952476       0.410805008400216       0.408488434494816     
  0.406844287530622       0.405709799975165       0.487704880984107     
  0.487101334963313       0.485550133368271       0.483215508590912     
  0.480012348303139       0.475810279318864       0.470575232928387     
  0.464464543290462       0.457845881368852       0.451237792746056     
  0.445153963787245       0.439953768758493       0.435792221151878     
  0.432623814599614       0.430307240694217       0.428663093730024     
  0.427528606174564       0.516893284434778       0.516289738413983     
  0.514738536818941       0.512403912041581       0.509200751753813     
  0.504998682769536       0.499763636379056       0.493652946741133     
  0.487034284819522       0.480426196196729       0.474342367237914     
  0.469142172209164       0.464980624602552       0.461812218050283     
  0.459495644144884       0.457851497180696       0.456717009625236     
  0.554680271533988       0.554076725513191       0.552525523918152     
  0.550190899140787       0.546987738853019       0.542785669868742     
  0.537550623478265       0.531439933840343       0.524821271918730     
  0.518213183295935       0.512129354337123       0.506929159308369     
  0.502767611701760       0.499599205149493       0.497282631244097     
  0.495638484279905       0.494503996724446       0.601574420769447     
  0.600970874748651       0.599419673153608       0.597085048376255     
  0.593881888088486       0.589679819104211       0.584444772713732     
  0.578334083075805       0.571715421154191       0.565107332531398     
  0.559023503572587       0.553823308543839       0.549661760937218     
  0.546493354384959       0.544176780479559       0.542532633515364     
  0.541398145959909       0.656811361407037       0.656207815386245     
  0.654656613791204       0.652321989013845       0.649118828726075     
  0.644916759741799       0.639681713351322       0.633571023713401     
  0.626952361791786       0.620344273168991       0.614260444210174     
  0.609060249181426       0.604898701574814       0.601730295022550     
  0.599413721117150       0.597769574152958       0.596635086597498     
  0.718012967662674       0.717409421641877       0.715858220046835     
  0.713523595269477       0.710320434981711       0.706118365997434     
  0.700883319606956       0.694772629969032       0.688153968047419     
  0.681545879424626       0.675462050465814       0.670261855437067     
  0.666100307830447       0.662931901278182       0.660615327372787     
  0.658971180408591       0.657836692853134       0.781391579173729     
  0.780788033152939       0.779236831557894       0.776902206780534     
  0.773699046492768       0.769496977508491       0.764261931118012     
  0.758151241480090       0.751532579558470       0.744924490935677     
  0.738840661976865       0.733640466948117       0.729478919341499     
  0.726310512789243       0.723993938883838       0.722349791919647     
  0.721215304364188       0.842593185429368       0.841989639408571     
  0.840438437813528       0.838103813036171       0.834900652748399     
  0.830698583764126       0.825463537373645       0.819352847735723     
  0.812734185814107       0.806126097191316       0.800042268232503     
  0.794842073203748       0.790680525597137       0.787512119044875     
  0.785195545139476       0.783551398175284       0.782416910619820     
  0.897830126066957       0.897226580046165       0.895675378451119     
  0.893340753673761       0.890137593385990       0.885935524401714     
  0.880700478011232       0.874589788373313       0.867971126451703     
  0.861363037828902       0.855279208870095       0.850079013841346     
  0.845917466234723       0.842749059682465       0.840432485777067     
  0.838788338812874       0.837653851257412       0.944724275302415     
  0.944120729281626       0.942569527686584       0.940234902909221     
  0.937031742621453       0.932829673637178       0.927594627246700     
  0.921483937608776       0.914865275687163       0.908257187064373     
  0.902173358105556       0.896973163076810       0.892811615470192     
  0.889643208917928       0.887326635012531       0.885682488048336     
  0.884548000492880       0.982511262401625       0.981907716380832     
  0.980356514785787       0.978021890008426       0.974818729720665     
  0.970616660736387       0.965381614345903       0.959270924707986     
  0.952652262786373       0.946044174163576       0.939960345204764     
  0.934760150176015       0.930598602569402       0.927430196017137     
  0.925113622111735       0.923469475147548       0.922334987592086     
   1.01169966585229        1.01109611983150        1.00954491823646     
   1.00721029345910        1.00400713317134       0.999805064187060     
  0.994570017796572       0.988459328158659       0.981840666237035     
  0.975232577614255       0.969148748655440       0.963948553626687     
  0.959787006020073       0.956618599467807       0.954302025562410     
  0.952657878598217       0.951523391042759        1.03351847205170     
   1.03291492603091        1.03136372443586        1.02902909965850     
   1.02582593937073        1.02162387038646        1.01638882399598     
   1.01027813435806        1.00365947243644       0.997051383813653     
  0.990967554854826       0.985767359826083       0.981605812219468     
  0.978437405667209       0.976120831761801       0.974476684797617     
  0.973342197242153        1.04943169942079        1.04882815339999     
   1.04727695180495        1.04494232702760        1.04173916673982     
   1.03753709775555        1.03230205136507        1.02619136172715     
   1.01957269980553        1.01296461118274        1.00688078222392     
   1.00168058719517       0.997519039588561       0.994350633036299     
  0.992034059130900       0.990389912166712       0.989255424611245     
   1.06083056469453        1.06022701867373        1.05867581707868     
   1.05634119230133        1.05313803201356        1.04893596302929     
   1.04370091663881        1.03759022700088        1.03097156507927     
   1.02436347645647        1.01827964749766        1.01307945246892     
   1.00891790486230        1.00574949831003        1.00343292440464     
   1.00178877744044        1.00065428988499        1.06889069767968     
   1.06828715165889        1.06673595006384        1.06440132528648     
   1.06119816499871        1.05699609601443        1.05176104962395     
   1.04565035998603        1.03903169806442        1.03242360944163     
   1.02633978048281        1.02113958545406        1.01697803784745     
   1.01380963129519        1.01149305738979        1.00984891042559     
   1.00871442287013     
 -6.127486936345872E-002 -6.292834912121738E-002 -6.717803406525863E-002
 -7.357399175253038E-002 -8.234939663335322E-002 -9.386142018552077E-002
 -0.108203397332826      -0.124944294089876      -0.143076835990203     
 -0.161180411192104      -0.177847720206614      -0.192094218270034     
 -0.203495229114948      -0.212175422369507      -0.218521927736051     
 -0.223026246595600      -0.226134298249906      -6.421694420134845E-002
 -6.587042395910851E-002 -7.012010890314692E-002 -7.651606659042057E-002
 -8.529147147124372E-002 -9.680349502341017E-002 -0.111145472170714     
 -0.127886368927767      -0.146018910828091      -0.164122486029994     
 -0.180789795044505      -0.195036293107922      -0.206437303952840     
 -0.215117497207397      -0.221464002573939      -0.225968321433492     
 -0.229076373087798      -6.837770864086468E-002 -7.003118839862416E-002
 -7.428087334266094E-002 -8.067683102993524E-002 -8.945223591075747E-002
 -0.100964259462925      -0.115306236610229      -0.132047133367281     
 -0.150179675267608      -0.168283250469510      -0.184950559484021     
 -0.199197057547439      -0.210598068392355      -0.219278261646912     
 -0.225624767013454      -0.230129085873002      -0.233237137527313     
 -7.418628598301033E-002 -7.583976574076931E-002 -8.008945068480754E-002
 -8.648540837208189E-002 -9.526081325290460E-002 -0.106772836805071     
 -0.121114813952376      -0.137855710709427      -0.155988252609755     
 -0.174091827811656      -0.190759136826164      -0.205005634889584     
 -0.216406645734500      -0.225086838989059      -0.231433344355600     
 -0.235937663215153      -0.239045714869459      -8.215049213572992E-002
 -8.380397189348930E-002 -8.805365683752786E-002 -9.444961452480113E-002
 -0.103225019405624      -0.114737042957791      -0.129079020105096     
 -0.145819916862147      -0.163952458762473      -0.182056033964374     
 -0.198723342978886      -0.212969841042304      -0.224370851887221     
 -0.233051045141777      -0.239397550508321      -0.243901869367871     
 -0.247009921022177      -9.280471676311916E-002 -9.445819652087885E-002
 -9.870788146491757E-002 -0.105103839152191      -0.113879244033013     
 -0.125391267585181      -0.139733244732486      -0.156474141489536     
 -0.174606683389863      -0.192710258591764      -0.209377567606274     
 -0.223624065669692      -0.235025076514611      -0.243705269769166     
 -0.250051775135708      -0.254556093995262      -0.257664145649569     
 -0.106597559157793      -0.108251038915553      -0.112500723859590     
 -0.118896681546863      -0.127672086427687      -0.139184109979850     
 -0.153526087127159      -0.170266983884209      -0.188399525784537     
 -0.206503100986437      -0.223170410000948      -0.237416908064361     
 -0.248817918909284      -0.257498112163839      -0.263844617530384     
 -0.268348936389935      -0.271456988044243      -0.123714658436938     
 -0.125368138194698      -0.129617823138736      -0.136013780826011     
 -0.144789185706834      -0.156301209259001      -0.170643186406305     
 -0.187384083163357      -0.205516625063682      -0.223620200265582     
 -0.240287509280096      -0.254534007343513      -0.265935018188425     
 -0.274615211442987      -0.280961716809531      -0.285466035669078     
 -0.288574087323387      -0.143877007305290      -0.145530487063054     
 -0.149780172007093      -0.156176129694361      -0.164951534575187     
 -0.176463558127357      -0.190805535274659      -0.207546432031712     
 -0.225678973932038      -0.243782549133937      -0.260449858148447     
 -0.274696356211862      -0.286097367056784      -0.294777560311340     
 -0.301124065677880      -0.305628384537434      -0.308736436191740     
 -0.166216552587600      -0.167870032345361      -0.172119717289399     
 -0.178515674976670      -0.187291079857497      -0.198803103409663     
 -0.213145080556967      -0.229885977314019      -0.248018519214348     
 -0.266122094416247      -0.282789403430757      -0.297035901494178     
 -0.308436912339092      -0.317117105593651      -0.323463610960192     
 -0.327967929819742      -0.331075981474052      -0.189350738900737     
 -0.191004218658499      -0.195253903602538      -0.201649861289807     
 -0.210425266170632      -0.221937289722802      -0.236279266870106     
 -0.253020163627158      -0.271152705527478      -0.289256280729382     
 -0.305923589743894      -0.320170087807309      -0.331571098652228     
 -0.340251291906785      -0.346597797273330      -0.351102116132881     
 -0.354210167787186      -0.211690284183046      -0.213343763940809     
 -0.217593448884848      -0.223989406572117      -0.232764811452941     
 -0.244276835005110      -0.258618812152413      -0.275359708909463     
 -0.293492250809792      -0.311595826011695      -0.328263135026203     
 -0.342509633089614      -0.353910643934539      -0.362590837189096     
 -0.368937342555638      -0.373441661415190      -0.376549713069497     
 -0.231852633051403      -0.233506112809157      -0.237755797753199     
 -0.244151755440472      -0.252927160321298      -0.264439183873463     
 -0.278781161020767      -0.295522057777821      -0.313654599678147     
 -0.331758174880039      -0.348425483894557      -0.362671981957975     
 -0.374072992802884      -0.382753186057447      -0.389099691423989     
 -0.393604010283544      -0.396712061937846      -0.248969732330548     
 -0.250623212088311      -0.254872897032347      -0.261268854719620     
 -0.270044259600440      -0.281556283152609      -0.295898260299916     
 -0.312639157056959      -0.330771698957292      -0.348875274159193     
 -0.365542583173702      -0.379789081237124      -0.391190092082039     
 -0.399870285336597      -0.406216790703138      -0.410721109562689     
 -0.413829161216999      -0.262762574725220      -0.264416054482980     
 -0.268665739427019      -0.275061697114287      -0.283837101995113     
 -0.295349125547284      -0.309691102694581      -0.326431999451640     
 -0.344564541351969      -0.362668116553865      -0.379335425568376     
 -0.393581923631792      -0.404982934476712      -0.413663127731270     
 -0.420009633097810      -0.424513951957359      -0.427622003611670     
 -0.273416799352608      -0.275070279110374      -0.279319964054409     
 -0.285715921741683      -0.294491326622507      -0.306003350174672     
 -0.320345327321976      -0.337086224079030      -0.355218765979347     
 -0.373322341181256      -0.389989650195766      -0.404236148259182     
 -0.415637159104102      -0.424317352358658      -0.430663857725201     
 -0.435168176584752      -0.438276228239062      -0.281381005505330     
 -0.283034485263092      -0.287284170207129      -0.293680127894402     
 -0.302455532775221      -0.313967556327394      -0.328309533474696     
 -0.345050430231749      -0.363182972132075      -0.381286547333979     
 -0.397953856348479      -0.412200354411904      -0.423601365256822     
 -0.432281558511380      -0.438628063877916      -0.443132382737470     
 -0.446240434391777      -0.287189582847477      -0.288843062605235     
 -0.293092747549277      -0.299488705236549      -0.308264110117362     
 -0.319776133669540      -0.334118110816844      -0.350859007573894     
 -0.368991549474221      -0.387095124676122      -0.403762433690631     
 -0.418008931754051      -0.429409942598967      -0.438090135853528     
 -0.444436641220066      -0.448940960079620      -0.452049011733922     
 -0.291350347286992      -0.293003827044748      -0.297253511988789     
 -0.303649469676064      -0.312424874556882      -0.323936898109055     
 -0.338278875256357      -0.355019772013403      -0.373152313913738     
 -0.391255889115635      -0.407923198130145      -0.422169696193565     
 -0.433570707038480      -0.442250900293032      -0.448597405659582     
 -0.453101724519137      -0.456209776173443      -0.294292422124880     
 -0.295945901882642      -0.300195586826680      -0.306591544513948     
 -0.315366949394778      -0.326878972946941      -0.341220950094249     
 -0.357961846851298      -0.376094388751623      -0.394197963953526     
 -0.410865272968031      -0.425111771031446      -0.436512781876371     
 -0.445192975130928      -0.451539480497468      -0.456043799357022     
 -0.459151851011330     
  0.000000000000000E+000 -2.059343134687265E-004 -5.967154644315922E-004
 -1.288783171780619E-003 -2.918895425121374E-003 -5.573396522451829E-003
 -9.167771110016921E-003 -1.357217217812317E-002 -1.838427778900438E-002
 -2.320014315178548E-002 -2.763890288787426E-002 -3.143970394449276E-002
 -3.447539076661003E-002 -3.679168976136481E-002 -3.848528426515805E-002
 -3.968682183911389E-002 -4.051708164825068E-002  0.000000000000000E+000
 -2.059343134687265E-004 -5.967154644315922E-004 -1.288783171780619E-003
 -2.918895425121374E-003 -5.573396522451829E-003 -9.167771110016921E-003
 -1.357217217812317E-002 -1.838427778900438E-002 -2.320014315178548E-002
 -2.763890288787426E-002 -3.143970394449276E-002 -3.447539076661003E-002
 -3.679168976136481E-002 -3.848528426515805E-002 -3.968682183911389E-002
 -4.051708164825068E-002  0.000000000000000E+000 -2.059343134687265E-004
 -5.967154644315922E-004 -1.288783171780619E-003 -2.918895425121374E-003
 -5.573396522451829E-003 -9.167771110016921E-003 -1.357217217812317E-002
 -1.838427778900438E-002 -2.320014315178548E-002 -2.763890288787426E-002
 -3.143970394449276E-002 -3.447539076661003E-002 -3.679168976136481E-002
 -3.848528426515805E-002 -3.968682183911389E-002 -4.051708164825068E-002
  0.000000000000000E+000 -2.059343134687265E-004 -5.967154644315922E-004
 -1.288783171780619E-003 -2.918895425121374E-003 -5.573396522451829E-003
 -9.167771110016921E-003 -1.357217217812317E-002 -1.838427778900438E-002
 -2.320014315178548E-002 -2.763890288787426E-002 -3.143970394449276E-002
 -3.447539076661003E-002 -3.679168976136481E-002 -3.848528426515805E-002
 -3.968682183911389E-002 -4.051708164825068E-002  0.000000000000000E+000
 -2.059343134687265E-004 -5.967154644315922E-004 -1.288783171780619E-003
 -2.918895425121374E-003 -5.573396522451829E-003 -9.167771110016921E-003
 -1.357217217812317E-002 -1.838427778900438E-002 -2.320014315178548E-002
 -2.763890288787426E-002 -3.143970394449276E-002 -3.447539076661003E-002
 -3.679168976136481E-002 -3.848528426515805E-002 -3.968682183911389E-002
 -4.051708164825068E-002  0.000000000000000E+000 -2.059343134687265E-004
 -5.967154644315922E-004 -1.288783171780619E-003 -2.918895425121374E-003
 -5.573396522451829E-003 -9.167771110016921E-003 -1.357217217812317E-002
 -1.838427778900438E-002 -2.320014315178548E-002 -2.763890288787426E-002
 -3.143970394449276E-002 -3.447539076661003E-002 -3.679168976136481E-002
 -3.848528426515805E-002 -3.968682183911389E-002 -4.051708164825068E-002
  0.000000000000000E+000 -2.059343134687265E-004 -5.967154644315922E-004
 -1.288783171780619E-003 -2.918895425121374E-003 -5.573396522451829E-003
 -9.167771110016921E-003 -1.357217217812317E-002 -1.838427778900438E-002
 -2.320014315178548E-002 -2.763890288787426E-002 -3.143970394449276E-002
 -3.447539076661003E-002 -3.679168976136481E-002 -3.848528426515805E-002
 -3.968682183911389E-002 -4.051708164825068E-002  0.000000000000000E+000
 -2.059343134687265E-004 -5.967154644315922E-004 -1.288783171780619E-003
 -2.918895425121374E-003 -5.573396522451829E-003 -9.167771110016921E-003
 -1.357217217812317E-002 -1.838427778900438E-002 -2.320014315178548E-002
 -2.763890288787426E-002 -3.143970394449276E-002 -3.447539076661003E-002
 -3.679168976136481E-002 -3.848528426515805E-002 -3.968682183911389E-002
 -4.051708164825068E-002  0.000000000000000E+000 -2.059343134687265E-004
 -5.967154644315922E-004 -1.288783171780619E-003 -2.918895425121374E-003
 -5.573396522451829E-003 -9.167771110016921E-003 -1.357217217812317E-002
 -1.838427778900438E-002 -2.320014315178548E-002 -2.763890288787426E-002
 -3.143970394449276E-002 -3.447539076661003E-002 -3.679168976136481E-002
 -3.848528426515805E-002 -3.968682183911389E-002 -4.051708164825068E-002
  0.000000000000000E+000 -2.059343134687265E-004 -5.967154644315922E-004
 -1.288783171780619E-003 -2.918895425121374E-003 -5.573396522451829E-003
 -9.167771110016921E-003 -1.357217217812317E-002 -1.838427778900438E-002
 -2.320014315178548E-002 -2.763890288787426E-002 -3.143970394449276E-002
 -3.447539076661003E-002 -3.679168976136481E-002 -3.848528426515805E-002
 -3.968682183911389E-002 -4.051708164825068E-002  0.000000000000000E+000
 -2.059343134687265E-004 -5.967154644315922E-004 -1.288783171780619E-003
 -2.918895425121374E-003 -5.573396522451829E-003 -9.167771110016921E-003
 -1.357217217812317E-002 -1.838427778900438E-002 -2.320014315178548E-002
 -2.763890288787426E-002 -3.143970394449276E-002 -3.447539076661003E-002
 -3.679168976136481E-002 -3.848528426515805E-002 -3.968682183911389E-002
 -4.051708164825068E-002  0.000000000000000E+000 -2.059343134687265E-004
 -5.967154644315922E-004 -1.288783171780619E-003 -2.918895425121374E-003
 -5.573396522451829E-003 -9.167771110016921E-003 -1.357217217812317E-002
 -1.838427778900438E-002 -2.320014315178548E-002 -2.763890288787426E-002
 -3.143970394449276E-002 -3.447539076661003E-002 -3.679168976136481E-002
 -3.848528426515805E-002 -3.968682183911389E-002 -4.051708164825068E-002
  0.000000000000000E+000 -2.059343134687265E-004 -5.967154644315922E-004
 -1.288783171780619E-003 -2.918895425121374E-003 -5.573396522451829E-003
 -9.167771110016921E-003 -1.357217217812317E-002 -1.838427778900438E-002
 -2.320014315178548E-002 -2.763890288787426E-002 -3.143970394449276E-002
 -3.447539076661003E-002 -3.679168976136481E-002 -3.848528426515805E-002
 -3.968682183911389E-002 -4.051708164825068E-002  0.000000000000000E+000
 -2.059343134687265E-004 -5.967154644315922E-004 -1.288783171780619E-003
 -2.918895425121374E-003 -5.573396522451829E-003 -9.167771110016921E-003
 -1.357217217812317E-002 -1.838427778900438E-002 -2.320014315178548E-002
 -2.763890288787426E-002 -3.143970394449276E-002 -3.447539076661003E-002
 -3.679168976136481E-002 -3.848528426515805E-002 -3.968682183911389E-002
 -4.051708164825068E-002  0.000000000000000E+000 -2.059343134687265E-004
 -5.967154644315922E-004 -1.288783171780619E-003 -2.918895425121374E-003
 -5.573396522451829E-003 -9.167771110016921E-003 -1.357217217812317E-002
 -1.838427778900438E-002 -2.320014315178548E-002 -2.763890288787426E-002
 -3.143970394449276E-002 -3.447539076661003E-002 -3.679168976136481E-002
 -3.848528426515805E-002 -3.968682183911389E-002 -4.051708164825068E-002
  0.000000000000000E+000 -2.059343134687265E-004 -5.967154644315922E-004
 -1.288783171780619E-003 -2.918895425121374E-003 -5.573396522451829E-003
 -9.167771110016921E-003 -1.357217217812317E-002 -1.838427778900438E-002
 -2.320014315178548E-002 -2.763890288787426E-002 -3.143970394449276E-002
 -3.447539076661003E-002 -3.679168976136481E-002 -3.848528426515805E-002
 -3.968682183911389E-002 -4.051708164825068E-002  0.000000000000000E+000
 -2.059343134687265E-004 -5.967154644315922E-004 -1.288783171780619E-003
 -2.918895425121374E-003 -5.573396522451829E-003 -9.167771110016921E-003
 -1.357217217812317E-002 -1.838427778900438E-002 -2.320014315178548E-002
 -2.763890288787426E-002 -3.143970394449276E-002 -3.447539076661003E-002
 -3.679168976136481E-002 -3.848528426515805E-002 -3.968682183911389E-002
 -4.051708164825068E-002  0.000000000000000E+000 -2.059343134687265E-004
 -5.967154644315922E-004 -1.288783171780619E-003 -2.918895425121374E-003
 -5.573396522451829E-003 -9.167771110016921E-003 -1.357217217812317E-002
 -1.838427778900438E-002 -2.320014315178548E-002 -2.763890288787426E-002
 -3.143970394449276E-002 -3.447539076661003E-002 -3.679168976136481E-002
 -3.848528426515805E-002 -3.968682183911389E-002 -4.051708164825068E-002
  0.000000000000000E+000 -2.059343134687265E-004 -5.967154644315922E-004
 -1.288783171780619E-003 -2.918895425121374E-003 -5.573396522451829E-003
 -9.167771110016921E-003 -1.357217217812317E-002 -1.838427778900438E-002
 -2.320014315178548E-002 -2.763890288787426E-002 -3.143970394449276E-002
 -3.447539076661003E-002 -3.679168976136481E-002 -3.848528426515805E-002
 -3.968682183911389E-002 -4.051708164825068E-002  0.000000000000000E+000
 -2.059343134687265E-004 -5.967154644315922E-004 -1.288783171780619E-003
 -2.918895425121374E-003 -5.573396522451829E-003 -9.167771110016921E-003
 -1.357217217812317E-002 -1.838427778900438E-002 -2.320014315178548E-002
 -2.763890288787426E-002 -3.143970394449276E-002 -3.447539076661003E-002
 -3.679168976136481E-002 -3.848528426515805E-002 -3.968682183911389E-002
 -4.051708164825068E-002
 -0.171023410008875      -0.334162011993615      -0.417235136936227     
 -0.406617268970854      -0.379551279553996      -0.361861190254781     
 -0.351815365477256      -0.357424156820206      -0.370374983711264     
 -0.387075492009884      -0.404812621531983      -0.422286492751902     
 -0.436191834656980      -0.447146933332452      -0.455176742597371     
 -0.460363113079500      -0.211707452615506      -0.425644833780091     
 -0.553368647412953      -0.564862420408881      -0.540449172794552     
 -0.518697335202347      -0.504948721004120      -0.512433598625092     
 -0.531587016133366      -0.557385001847914      -0.585892175964608     
 -0.614894454455914      -0.640030714699454      -0.661261592003997     
 -0.677067332762505      -0.686023584315741      -0.227499908801013     
 -0.461082345153620      -0.608251956384027      -0.634065490921672     
 -0.616144845810311      -0.594092295507519      -0.577710683850158     
 -0.585034154316081      -0.607576107366311      -0.639850808267439     
 -0.676870909006282      -0.714982339706651      -0.747917198892928     
 -0.774095025502533      -0.791808071983196      -0.800871888886140     
 -0.225876143205106      -0.459176735144070      -0.606181875973082     
 -0.629389130627800      -0.607505753077094      -0.579744942822167     
 -0.556644499566839      -0.559220711531170      -0.580310151740540     
 -0.614276579582751      -0.654724490305118      -0.696028511736728     
 -0.730385750395329      -0.756313341451920      -0.773045421835010     
 -0.781224461629078      -0.205123511108595      -0.417119069502571     
 -0.543067800157321      -0.541919900960639      -0.495831838273313     
 -0.445696093417524      -0.402509684696107      -0.388998783383783     
 -0.398260067199014      -0.424063575073836      -0.458526537835910     
 -0.494790774203709      -0.524660190979712      -0.547066489714135     
 -0.561363247021284      -0.568172908647374      -0.159560624747821     
 -0.323349381324978      -0.401816928202980      -0.348091505498650     
 -0.248948390748374      -0.148838683461223      -6.063574087052062E-002
 -9.428697121935519E-003  1.183782820360602E-002  1.010687959623826E-002
 -5.731025129720388E-003 -2.820858420026382E-002 -4.840075882226582E-002
 -6.454666225298775E-002 -7.508605161253991E-002 -8.003890727771813E-002
 -8.129734403061888E-002 -0.161601276447336      -0.158339536511765     
 -1.574174003287993E-002  0.174151496693172       0.361814085150607     
  0.530722019420444       0.651409658789601       0.730009757240519     
  0.773438344313384       0.791331317117946       0.792352963085242     
  0.787643253931752       0.781016019769789       0.775859163574947     
  0.773384708127739       3.690868593304431E-002  8.304467041435110E-002
  0.209265654171102       0.483774002553155       0.808908149764244     
   1.12861965273153        1.42079727495934        1.64904221017217     
   1.81676279057614        1.92984503121309        1.99885499678186     
   2.03483088171460        2.05275427980979        2.05975226408181     
   2.06204540860166        2.06287167204069       0.196185933765839     
  0.412798435448113       0.703777253187433        1.15310539260754     
   1.65738464945948        2.15273457235971        2.60965349933938     
   2.98252692289683        3.27045941167485        3.47754140089427     
   3.61553590596317        3.69877970024704        3.74729576672757     
   3.77258773737223        3.78474440645545        3.78986763613416     
  0.384378222384004       0.802338863774092        1.28699045256817     
   1.94023069679377        2.65296100537935        3.35267646685137     
   4.00146199898208        4.54335206351752        4.97245852927862     
   5.29073083307947        5.51113165012226        5.65149799527909     
   5.73731170744658        5.78500562415930        5.80923960155766     
   5.81960446497367       0.573185298290843        1.19291546957343     
   1.87111978391777        2.72741307927583        3.64695391948131     
   4.54872463517163        5.38684788981690        6.09582374405561     
   6.66553511817825        7.09604709853211        7.40111660528826     
   7.60131761525387        7.72690069635186        7.79883934644715     
   7.83628565201396        7.85241675849964       0.727337569912564     
   1.51130412770970        2.34687348643796        3.36837663866324     
   4.45484900364863        5.51781011945577        6.50558013745295     
   7.34628414081083        8.02826268851054        8.55090005909915     
   8.92800415316953        9.18101416804405        9.34293300554052     
   9.43772189455725        9.48794008611534        9.50974209547103     
  0.821534680623416        1.70484375027576        2.63532083449847     
   3.75684976234641        4.94150670259476        6.09483498431104     
   7.16262692663527        8.07171965215947        8.81365407393619     
   9.38983608555282        9.81355504319221        10.1042413883600     