 Title = "Wing and Wake"
 VARIABLES = "X" "Y" "Z" "GAM" "skew"
 Zone I=   17 J=   20 K=1  T="Blade 01"
 DATAPACKING=BLOCK
 VARLOCATION=([4]=CELLCENTERED,[5]=CELLCENTERED)
  0.430513849156729       0.429910303135934       0.428359101540891     
  0.426024476763532       0.422821316475763       0.418619247491488     
  0.413384201101010       0.407273511463085       0.400654849541473     
  0.394046760918680       0.387962931959866       0.382762736931116     
  0.378601189324502       0.375432782772237       0.373116208866840     
  0.371472061902647       0.370337574347187       0.438573982141875     
  0.437970436121080       0.436419234526038       0.434084609748680     
  0.430881449460911       0.426679380476634       0.421444334086155     
  0.415333644448233       0.408714982526620       0.402106893903826     
  0.396023064945013       0.390822869916264       0.386661322309650     
  0.383492915757386       0.381176341851987       0.379532194887795     
  0.378397707332336       0.449972847415616       0.449369301394821     
  0.447818099799779       0.445483475022419       0.442280314734650     
  0.438078245750375       0.432843199359897       0.426732509721973     
  0.420113847800359       0.413505759177566       0.407421930218752     
  0.402221735190003       0.398060187583388       0.394891781031125     
  0.392575207125726       0.390931060161534       0.389796572606075     
  0.465886074784705       0.465282528763909       0.463731327168866     
  0.461396702391507       0.458193542103740       0.453991473119463     
  0.448756426728985       0.442645737091061       0.436027075169448     
  0.429418986546654       0.423335157587841       0.418134962559092     
  0.413973414952477       0.410805008400214       0.408488434494815     
  0.406844287530622       0.405709799975164       0.487704880984105     
  0.487101334963310       0.485550133368268       0.483215508590909     
  0.480012348303138       0.475810279318862       0.470575232928385     
  0.464464543290462       0.457845881368849       0.451237792746054     
  0.445153963787242       0.439953768758492       0.435792221151877     
  0.432623814599613       0.430307240694216       0.428663093730023     
  0.427528606174564       0.516893284434776       0.516289738413981     
  0.514738536818938       0.512403912041579       0.509200751753811     
  0.504998682769534       0.499763636379055       0.493652946741132     
  0.487034284819519       0.480426196196726       0.474342367237913     
  0.469142172209164       0.464980624602549       0.461812218050284     
  0.459495644144884       0.457851497180694       0.456717009625235     
  0.554680271533985       0.554076725513190       0.552525523918147     
  0.550190899140786       0.546987738853017       0.542785669868742     
  0.537550623478265       0.531439933840340       0.524821271918727     
  0.518213183295934       0.512129354337121       0.506929159308369     
  0.502767611701757       0.499599205149493       0.497282631244095     
  0.495638484279903       0.494503996724443       0.601574420769445     
  0.600970874748650       0.599419673153608       0.597085048376251     
  0.593881888088482       0.589679819104206       0.584444772713727     
  0.578334083075803       0.571715421154190       0.565107332531396     
  0.559023503572585       0.553823308543835       0.549661760937218     
  0.546493354384956       0.544176780479557       0.542532633515364     
  0.541398145959907       0.656811361407038       0.656207815386244     
  0.654656613791201       0.652321989013842       0.649118828726073     
  0.644916759741796       0.639681713351320       0.633571023713396     
  0.626952361791783       0.620344273168989       0.614260444210174     
  0.609060249181424       0.604898701574811       0.601730295022548     
  0.599413721117150       0.597769574152957       0.596635086597496     
  0.718012967662672       0.717409421641876       0.715858220046834     
  0.713523595269476       0.710320434981707       0.706118365997431     
  0.700883319606954       0.694772629969029       0.688153968047416     
  0.681545879424623       0.675462050465810       0.670261855437062     
  0.666100307830445       0.662931901278181       0.660615327372784     
  0.658971180408590       0.657836692853132       0.781391579173726     
  0.780788033152934       0.779236831557889       0.776902206780531     
  0.773699046492762       0.769496977508487       0.764261931118008     
  0.758151241480085       0.751532579558470       0.744924490935675     
  0.738840661976863       0.733640466948114       0.729478919341499     
  0.726310512789239       0.723993938883837       0.722349791919645     
  0.721215304364187       0.842593185429363       0.841989639408567     
  0.840438437813525       0.838103813036166       0.834900652748398     
  0.830698583764121       0.825463537373642       0.819352847735719     
  0.812734185814105       0.806126097191313       0.800042268232498     
  0.794842073203747       0.790680525597134       0.787512119044871     
  0.785195545139473       0.783551398175281       0.782416910619818     
  0.897830126066954       0.897226580046159       0.895675378451116     
  0.893340753673758       0.890137593385988       0.885935524401712     
  0.880700478011232       0.874589788373311       0.867971126451698     
  0.861363037828902       0.855279208870092       0.850079013841342     
  0.845917466234723       0.842749059682463       0.840432485777064     
  0.838788338812871       0.837653851257410       0.944724275302413     
  0.944120729281621       0.942569527686580       0.940234902909218     
  0.937031742621449       0.932829673637175       0.927594627246696     
  0.921483937608773       0.914865275687160       0.908257187064367     
  0.902173358105553       0.896973163076805       0.892811615470190     
  0.889643208917925       0.887326635012528       0.885682488048334     
  0.884548000492876       0.982511262401623       0.981907716380828     
  0.980356514785785       0.978021890008426       0.974818729720662     
  0.970616660736383       0.965381614345902       0.959270924707982     
  0.952652262786369       0.946044174163573       0.939960345204760     
  0.934760150176012       0.930598602569398       0.927430196017134     
  0.925113622111733       0.923469475147543       0.922334987592084     
   1.01169966585229        1.01109611983150        1.00954491823646     
   1.00721029345910        1.00400713317133       0.999805064187054     
  0.994570017796573       0.988459328158654       0.981840666237035     
  0.975232577614247       0.969148748655433       0.963948553626682     
  0.959787006020068       0.956618599467805       0.954302025562406     
  0.952657878598215       0.951523391042756        1.03351847205170     
   1.03291492603090        1.03136372443586        1.02902909965850     
   1.02582593937073        1.02162387038646        1.01638882399597     
   1.01027813435805        1.00365947243644       0.997051383813647     
  0.990967554854828       0.985767359826082       0.981605812219466     
  0.978437405667205       0.976120831761804       0.974476684797616     
  0.973342197242152        1.04943169942079        1.04882815339999     
   1.04727695180495        1.04494232702759        1.04173916673982     
   1.03753709775554        1.03230205136506        1.02619136172714     
   1.01957269980553        1.01296461118273        1.00688078222392     
   1.00168058719517       0.997519039588557       0.994350633036295     
  0.992034059130896       0.990389912166705       0.989255424611242     
   1.06083056469452        1.06022701867373        1.05867581707868     
   1.05634119230133        1.05313803201356        1.04893596302928     
   1.04370091663880        1.03759022700088        1.03097156507927     
   1.02436347645647        1.01827964749766        1.01307945246891     
   1.00891790486229        1.00574949831003        1.00343292440463     
   1.00178877744044        1.00065428988498        1.06889069767967     
   1.06828715165888        1.06673595006383        1.06440132528648     
   1.06119816499871        1.05699609601443        1.05176104962395     
   1.04565035998603        1.03903169806441        1.03242360944162     
   1.02633978048281        1.02113958545406        1.01697803784744     
   1.01380963129518        1.01149305738978        1.00984891042559     
   1.00871442287013     
 -6.127486936345750E-002 -6.292834912121617E-002 -6.717803406525576E-002
 -7.357399175252821E-002 -8.234939663335074E-002 -9.386142018551845E-002
 -0.108203397332824      -0.124944294089874      -0.143076835990201     
 -0.161180411192102      -0.177847720206612      -0.192094218270031     
 -0.203495229114947      -0.212175422369505      -0.218521927736048     
 -0.223026246595598      -0.226134298249905      -6.421694420134627E-002
 -6.587042395910629E-002 -7.012010890314467E-002 -7.651606659041839E-002
 -8.529147147124098E-002 -9.680349502340811E-002 -0.111145472170712     
 -0.127886368927764      -0.146018910828090      -0.164122486029992     
 -0.180789795044502      -0.195036293107920      -0.206437303952837     
 -0.215117497207395      -0.221464002573937      -0.225968321433489     
 -0.229076373087795      -6.837770864086223E-002 -7.003118839862141E-002
 -7.428087334265950E-002 -8.067683102993300E-002 -8.945223591075493E-002
 -0.100964259462923      -0.115306236610228      -0.132047133367279     
 -0.150179675267606      -0.168283250469506      -0.184950559484017     
 -0.199197057547436      -0.210598068392352      -0.219278261646909     
 -0.225624767013453      -0.230129085873002      -0.233237137527311     
 -7.418628598300854E-002 -7.583976574076726E-002 -8.008945068480616E-002
 -8.648540837207867E-002 -9.526081325290257E-002 -0.106772836805069     
 -0.121114813952374      -0.137855710709424      -0.155988252609752     
 -0.174091827811653      -0.190759136826163      -0.205005634889582     
 -0.216406645734498      -0.225086838989057      -0.231433344355597     
 -0.235937663215150      -0.239045714869456      -8.215049213572788E-002
 -8.380397189348729E-002 -8.805365683752517E-002 -9.444961452479843E-002
 -0.103225019405622      -0.114737042957789      -0.129079020105093     
 -0.145819916862144      -0.163952458762471      -0.182056033964371     
 -0.198723342978883      -0.212969841042301      -0.224370851887218     
 -0.233051045141775      -0.239397550508318      -0.243901869367869     
 -0.247009921022175      -9.280471676311718E-002 -9.445819652087625E-002
 -9.870788146491424E-002 -0.105103839152187      -0.113879244033010     
 -0.125391267585179      -0.139733244732483      -0.156474141489533     
 -0.174606683389860      -0.192710258591761      -0.209377567606272     
 -0.223624065669691      -0.235025076514607      -0.243705269769164     
 -0.250051775135706      -0.254556093995258      -0.257664145649565     
 -0.106597559157790      -0.108251038915549      -0.112500723859587     
 -0.118896681546860      -0.127672086427684      -0.139184109979850     
 -0.153526087127156      -0.170266983884205      -0.188399525784533     
 -0.206503100986434      -0.223170410000944      -0.237416908064361     
 -0.248817918909280      -0.257498112163837      -0.263844617530380     
 -0.268348936389931      -0.271456988044238      -0.123714658436935     
 -0.125368138194696      -0.129617823138733      -0.136013780826008     
 -0.144789185706830      -0.156301209258998      -0.170643186406302     
 -0.187384083163353      -0.205516625063680      -0.223620200265580     
 -0.240287509280092      -0.254534007343510      -0.265935018188425     
 -0.274615211442984      -0.280961716809527      -0.285466035669076     
 -0.288574087323384      -0.143877007305290      -0.145530487063050     
 -0.149780172007089      -0.156176129694359      -0.164951534575184     
 -0.176463558127351      -0.190805535274656      -0.207546432031708     
 -0.225678973932034      -0.243782549133934      -0.260449858148444     
 -0.274696356211861      -0.286097367056779      -0.294777560311337     
 -0.301124065677879      -0.305628384537431      -0.308736436191738     
 -0.166216552587599      -0.167870032345357      -0.172119717289396     
 -0.178515674976668      -0.187291079857493      -0.198803103409659     
 -0.213145080556964      -0.229885977314015      -0.248018519214343     
 -0.266122094416242      -0.282789403430754      -0.297035901494172     
 -0.308436912339088      -0.317117105593647      -0.323463610960188     
 -0.327967929819739      -0.331075981474048      -0.189350738900733     
 -0.191004218658495      -0.195253903602533      -0.201649861289806     
 -0.210425266170628      -0.221937289722797      -0.236279266870101     
 -0.253020163627152      -0.271152705527478      -0.289256280729379     
 -0.305923589743890      -0.320170087807307      -0.331571098652224     
 -0.340251291906782      -0.346597797273325      -0.351102116132876     
 -0.354210167787183      -0.211690284183043      -0.213343763940804     
 -0.217593448884842      -0.223989406572114      -0.232764811452939     
 -0.244276835005104      -0.258618812152409      -0.275359708909459     
 -0.293492250809787      -0.311595826011690      -0.328263135026198     
 -0.342509633089614      -0.353910643934534      -0.362590837189092     
 -0.368937342555633      -0.373441661415185      -0.376549713069491     
 -0.231852633051398      -0.233506112809154      -0.237755797753195     
 -0.244151755440468      -0.252927160321292      -0.264439183873458     
 -0.278781161020762      -0.295522057777815      -0.313654599678141     
 -0.331758174880039      -0.348425483894552      -0.362671981957970     
 -0.374072992802884      -0.382753186057445      -0.389099691423985     
 -0.393604010283538      -0.396712061937843      -0.248969732330544     
 -0.250623212088304      -0.254872897032343      -0.261268854719615     
 -0.270044259600437      -0.281556283152605      -0.295898260299911     
 -0.312639157056958      -0.330771698957287      -0.348875274159187     
 -0.365542583173698      -0.379789081237117      -0.391190092082034     
 -0.399870285336592      -0.406216790703133      -0.410721109562684     
 -0.413829161216992      -0.262762574725216      -0.264416054482975     
 -0.268665739427014      -0.275061697114287      -0.283837101995110     
 -0.295349125547278      -0.309691102694581      -0.326431999451634     
 -0.344564541351962      -0.362668116553861      -0.379335425568372     
 -0.393581923631789      -0.404982934476707      -0.413663127731265     
 -0.420009633097805      -0.424513951957356      -0.427622003611664     
 -0.273416799352604      -0.275070279110366      -0.279319964054405     
 -0.285715921741677      -0.294491326622500      -0.306003350174666     
 -0.320345327321971      -0.337086224079023      -0.355218765979347     
 -0.373322341181251      -0.389989650195762      -0.404236148259178     
 -0.415637159104095      -0.424317352358653      -0.430663857725196     
 -0.435168176584746      -0.438276228239055      -0.281381005505326     
 -0.283034485263086      -0.287284170207124      -0.293680127894395     
 -0.302455532775218      -0.313967556327388      -0.328309533474690     
 -0.345050430231742      -0.363182972132069      -0.381286547333971     
 -0.397953856348477      -0.412200354411899      -0.423601365256814     
 -0.432281558511373      -0.438628063877912      -0.443132382737468     
 -0.446240434391772      -0.287189582847472      -0.288843062605229     
 -0.293092747549269      -0.299488705236543      -0.308264110117362     
 -0.319776133669534      -0.334118110816836      -0.350859007573889     
 -0.368991549474215      -0.387095124676115      -0.403762433690626     
 -0.418008931754044      -0.429409942598961      -0.438090135853520     
 -0.444436641220061      -0.448940960079613      -0.452049011733918     
 -0.291350347286986      -0.293003827044745      -0.297253511988784     
 -0.303649469676057      -0.312424874556878      -0.323936898109049     
 -0.338278875256351      -0.355019772013403      -0.373152313913731     
 -0.391255889115631      -0.407923198130141      -0.422169696193558     
 -0.433570707038474      -0.442250900293032      -0.448597405659576     
 -0.453101724519129      -0.456209776173435      -0.294292422124876     
 -0.295945901882636      -0.300195586826674      -0.306591544513947     
 -0.315366949394770      -0.326878972946937      -0.341220950094242     
 -0.357961846851293      -0.376094388751619      -0.394197963953519     
 -0.410865272968030      -0.425111771031446      -0.436512781876365     
 -0.445192975130923      -0.451539480497464      -0.456043799357016     
 -0.459151851011325     
  0.000000000000000E+000 -2.059343134687265E-004 -5.967154644315922E-004
 -1.288783171780619E-003 -2.918895425121374E-003 -5.573396522451829E-003
 -9.167771110016921E-003 -1.357217217812317E-002 -1.838427778900438E-002
 -2.320014315178548E-002 -2.763890288787426E-002 -3.143970394449276E-002
 -3.447539076661003E-002 -3.679168976136481E-002 -3.848528426515805E-002
 -3.968682183911389E-002 -4.051708164825068E-002  0.000000000000000E+000
 -2.059343134687265E-004 -5.967154644315922E-004 -1.288783171780619E-003
 -2.918895425121374E-003 -5.573396522451829E-003 -9.167771110016921E-003
 -1.357217217812317E-002 -1.838427778900438E-002 -2.320014315178548E-002
 -2.763890288787426E-002 -3.143970394449276E-002 -3.447539076661003E-002
 -3.679168976136481E-002 -3.848528426515805E-002 -3.968682183911389E-002
 -4.051708164825068E-002  0.000000000000000E+000 -2.059343134687265E-004
 -5.967154644315922E-004 -1.288783171780619E-003 -2.918895425121374E-003
 -5.573396522451829E-003 -9.167771110016921E-003 -1.357217217812317E-002
 -1.838427778900438E-002 -2.320014315178548E-002 -2.763890288787426E-002
 -3.143970394449276E-002 -3.447539076661003E-002 -3.679168976136481E-002
 -3.848528426515805E-002 -3.968682183911389E-002 -4.051708164825068E-002
  0.000000000000000E+000 -2.059343134687265E-004 -5.967154644315922E-004
 -1.288783171780619E-003 -2.918895425121374E-003 -5.573396522451829E-003
 -9.167771110016921E-003 -1.357217217812317E-002 -1.838427778900438E-002
 -2.320014315178548E-002 -2.763890288787426E-002 -3.143970394449276E-002
 -3.447539076661003E-002 -3.679168976136481E-002 -3.848528426515805E-002
 -3.968682183911389E-002 -4.051708164825068E-002  0.000000000000000E+000
 -2.059343134687265E-004 -5.967154644315922E-004 -1.288783171780619E-003
 -2.918895425121374E-003 -5.573396522451829E-003 -9.167771110016921E-003
 -1.357217217812317E-002 -1.838427778900438E-002 -2.320014315178548E-002
 -2.763890288787426E-002 -3.143970394449276E-002 -3.447539076661003E-002
 -3.679168976136481E-002 -3.848528426515805E-002 -3.968682183911389E-002
 -4.051708164825068E-002  0.000000000000000E+000 -2.059343134687265E-004
 -5.967154644315922E-004 -1.288783171780619E-003 -2.918895425121374E-003
 -5.573396522451829E-003 -9.167771110016921E-003 -1.357217217812317E-002
 -1.838427778900438E-002 -2.320014315178548E-002 -2.763890288787426E-002
 -3.143970394449276E-002 -3.447539076661003E-002 -3.679168976136481E-002
 -3.848528426515805E-002 -3.968682183911389E-002 -4.051708164825068E-002
  0.000000000000000E+000 -2.059343134687265E-004 -5.967154644315922E-004
 -1.288783171780619E-003 -2.918895425121374E-003 -5.573396522451829E-003
 -9.167771110016921E-003 -1.357217217812317E-002 -1.838427778900438E-002
 -2.320014315178548E-002 -2.763890288787426E-002 -3.143970394449276E-002
 -3.447539076661003E-002 -3.679168976136481E-002 -3.848528426515805E-002
 -3.968682183911389E-002 -4.051708164825068E-002  0.000000000000000E+000
 -2.059343134687265E-004 -5.967154644315922E-004 -1.288783171780619E-003
 -2.918895425121374E-003 -5.573396522451829E-003 -9.167771110016921E-003
 -1.357217217812317E-002 -1.838427778900438E-002 -2.320014315178548E-002
 -2.763890288787426E-002 -3.143970394449276E-002 -3.447539076661003E-002
 -3.679168976136481E-002 -3.848528426515805E-002 -3.968682183911389E-002
 -4.051708164825068E-002  0.000000000000000E+000 -2.059343134687265E-004
 -5.967154644315922E-004 -1.288783171780619E-003 -2.918895425121374E-003
 -5.573396522451829E-003 -9.167771110016921E-003 -1.357217217812317E-002
 -1.838427778900438E-002 -2.320014315178548E-002 -2.763890288787426E-002
 -3.143970394449276E-002 -3.447539076661003E-002 -3.679168976136481E-002
 -3.848528426515805E-002 -3.968682183911389E-002 -4.051708164825068E-002
  0.000000000000000E+000 -2.059343134687265E-004 -5.967154644315922E-004
 -1.288783171780619E-003 -2.918895425121374E-003 -5.573396522451829E-003
 -9.167771110016921E-003 -1.357217217812317E-002 -1.838427778900438E-002
 -2.320014315178548E-002 -2.763890288787426E-002 -3.143970394449276E-002
 -3.447539076661003E-002 -3.679168976136481E-002 -3.848528426515805E-002
 -3.968682183911389E-002 -4.051708164825068E-002  0.000000000000000E+000
 -2.059343134687265E-004 -5.967154644315922E-004 -1.288783171780619E-003
 -2.918895425121374E-003 -5.573396522451829E-003 -9.167771110016921E-003
 -1.357217217812317E-002 -1.838427778900438E-002 -2.320014315178548E-002
 -2.763890288787426E-002 -3.143970394449276E-002 -3.447539076661003E-002
 -3.679168976136481E-002 -3.848528426515805E-002 -3.968682183911389E-002
 -4.051708164825068E-002  0.000000000000000E+000 -2.059343134687265E-004
 -5.967154644315922E-004 -1.288783171780619E-003 -2.918895425121374E-003
 -5.573396522451829E-003 -9.167771110016921E-003 -1.357217217812317E-002
 -1.838427778900438E-002 -2.320014315178548E-002 -2.763890288787426E-002
 -3.143970394449276E-002 -3.447539076661003E-002 -3.679168976136481E-002
 -3.848528426515805E-002 -3.968682183911389E-002 -4.051708164825068E-002
  0.000000000000000E+000 -2.059343134687265E-004 -5.967154644315922E-004
 -1.288783171780619E-003 -2.918895425121374E-003 -5.573396522451829E-003
 -9.167771110016921E-003 -1.357217217812317E-002 -1.838427778900438E-002
 -2.320014315178548E-002 -2.763890288787426E-002 -3.143970394449276E-002
 -3.447539076661003E-002 -3.679168976136481E-002 -3.848528426515805E-002
 -3.968682183911389E-002 -4.051708164825068E-002  0.000000000000000E+000
 -2.059343134687265E-004 -5.967154644315922E-004 -1.288783171780619E-003
 -2.918895425121374E-003 -5.573396522451829E-003 -9.167771110016921E-003
 -1.357217217812317E-002 -1.838427778900438E-002 -2.320014315178548E-002
 -2.763890288787426E-002 -3.143970394449276E-002 -3.447539076661003E-002
 -3.679168976136481E-002 -3.848528426515805E-002 -3.968682183911389E-002
 -4.051708164825068E-002  0.000000000000000E+000 -2.059343134687265E-004
 -5.967154644315922E-004 -1.288783171780619E-003 -2.918895425121374E-003
 -5.573396522451829E-003 -9.167771110016921E-003 -1.357217217812317E-002
 -1.838427778900438E-002 -2.320014315178548E-002 -2.763890288787426E-002
 -3.143970394449276E-002 -3.447539076661003E-002 -3.679168976136481E-002
 -3.848528426515805E-002 -3.968682183911389E-002 -4.051708164825068E-002
  0.000000000000000E+000 -2.059343134687265E-004 -5.967154644315922E-004
 -1.288783171780619E-003 -2.918895425121374E-003 -5.573396522451829E-003
 -9.167771110016921E-003 -1.357217217812317E-002 -1.838427778900438E-002
 -2.320014315178548E-002 -2.763890288787426E-002 -3.143970394449276E-002
 -3.447539076661003E-002 -3.679168976136481E-002 -3.848528426515805E-002
 -3.968682183911389E-002 -4.051708164825068E-002  0.000000000000000E+000
 -2.059343134687265E-004 -5.967154644315922E-004 -1.288783171780619E-003
 -2.918895425121374E-003 -5.573396522451829E-003 -9.167771110016921E-003
 -1.357217217812317E-002 -1.838427778900438E-002 -2.320014315178548E-002
 -2.763890288787426E-002 -3.143970394449276E-002 -3.447539076661003E-002
 -3.679168976136481E-002 -3.848528426515805E-002 -3.968682183911389E-002
 -4.051708164825068E-002  0.000000000000000E+000 -2.059343134687265E-004
 -5.967154644315922E-004 -1.288783171780619E-003 -2.918895425121374E-003
 -5.573396522451829E-003 -9.167771110016921E-003 -1.357217217812317E-002
 -1.838427778900438E-002 -2.320014315178548E-002 -2.763890288787426E-002
 -3.143970394449276E-002 -3.447539076661003E-002 -3.679168976136481E-002
 -3.848528426515805E-002 -3.968682183911389E-002 -4.051708164825068E-002
  0.000000000000000E+000 -2.059343134687265E-004 -5.967154644315922E-004
 -1.288783171780619E-003 -2.918895425121374E-003 -5.573396522451829E-003
 -9.167771110016921E-003 -1.357217217812317E-002 -1.838427778900438E-002
 -2.320014315178548E-002 -2.763890288787426E-002 -3.143970394449276E-002
 -3.447539076661003E-002 -3.679168976136481E-002 -3.848528426515805E-002
 -3.968682183911389E-002 -4.051708164825068E-002  0.000000000000000E+000
 -2.059343134687265E-004 -5.967154644315922E-004 -1.288783171780619E-003
 -2.918895425121374E-003 -5.573396522451829E-003 -9.167771110016921E-003
 -1.357217217812317E-002 -1.838427778900438E-002 -2.320014315178548E-002
 -2.763890288787426E-002 -3.143970394449276E-002 -3.447539076661003E-002
 -3.679168976136481E-002 -3.848528426515805E-002 -3.968682183911389E-002
 -4.051708164825068E-002
 -0.148270828307768      -0.290112847892768      -0.357723923422149     
 -0.335359607275153      -0.298457489656769      -0.272133877906819     
 -0.254398561360688      -0.252968897417719      -0.259421354340659     
 -0.270152925272728      -0.282588072906728      -0.295627456432578     
 -0.306096291928540      -0.314557786444844      -0.320820839689610     
 -0.324833439861237      -0.182756354259646      -0.367497481672744     
 -0.471576723836239      -0.463851394593331      -0.423231540517469     
 -0.387493392854553      -0.361482809902611      -0.357861802555255     
 -0.366749305992268      -0.382987552630776      -0.402742319181271     
 -0.424005934824175      -0.442545183783378      -0.458377733675755     
 -0.470182018151960      -0.476873617383518      -0.195708825307714     
 -0.396471960212205      -0.515761031321358      -0.517590150986275     
 -0.478660334080688      -0.438269175759655      -0.405850282459675     
 -0.398723894468020      -0.407863139735924      -0.427481220403302     
 -0.452649758205289      -0.480056616630110      -0.503896022530400     
 -0.523043371778311      -0.536058113850218      -0.542756555440410     
 -0.194206277242335      -0.394459899232357      -0.512741068724241     
 -0.510422421813093      -0.465408044805033      -0.416946302579333     
 -0.375516371904062      -0.361498860845918      -0.367090625489010     
 -0.386284286411670      -0.412862252496102      -0.441864170514871     
 -0.466223158444032      -0.484856599781360      -0.496967821275899     
 -0.502938860633414      -0.177491962157233      -0.360502923403393     
 -0.461007810698831      -0.436938939431294      -0.369685774120553     
 -0.300223584731895      -0.239630395598672      -0.210143210320580     
 -0.204299384417434      -0.215606615359097      -0.236555130177788     
 -0.261095164292706      -0.281688522438992      -0.297467939175394     
 -0.307641797521960      -0.312540413981605      -0.141576465497980     
 -0.286496341523908      -0.348497054670164      -0.280159026406919     
 -0.167652565749583      -5.539986264242035E-002  4.376525779434131E-002
  0.105251353381855       0.136606105074904       0.144949993325963     
  0.138786977022693       0.124886982248299       0.111622122980190     
  0.100516111897865       9.312912774319916E-002  8.960401126351183E-002
 -8.041220921898011E-002 -0.159965031921254      -0.156678576684785     
 -1.519373863878507E-002  0.172660995670223       0.357573487547487     
  0.523418701398082       0.641527206751817       0.718736682461580     
  0.762332227710552       0.781782530039875       0.785206036010010     
  0.783082289140045       0.778681599422899       0.775039456036598     
  0.773234634128199       1.297475343190947E-002  3.346765966566565E-002
  0.135580612076722       0.385652424976404       0.685600181701101     
  0.979831113600721        1.24720718818684        1.45272598052047     
   1.60105352523626        1.69892159968085        1.75707593859749     
   1.78610420486686        1.80005993992097        1.80506571580475     
   1.80646518618456        1.80688261893831       0.144244660320403     
  0.305375309438081       0.544875086861900       0.943209487468303     
   1.39581498347186        1.83953569731821        2.24652484881735     
   2.57331605302400        2.82099078942071        2.99506334209012     
   3.10782589059141        3.17322783228013        3.21009036416576     
   3.22844073772785        3.23689680596282        3.24037478638563     
  0.312141660450858       0.652923032377275        1.06607149306579     
   1.64874840129839        2.29010359521678        2.91854202790185     
   3.49834888197993        3.97635434709707        4.34929464308982     
   4.62103831312811        4.80532907276694        4.91962552826244     
   4.98798274597094        5.02499740960233        5.04341336672965     
   5.05121504300373       0.498497146925216        1.03827036606982     
   1.64214170675104        2.42476942988834        3.26936373509228     
   4.09578465269066        4.86050422359291        5.50112172820173     
   6.01054151999451        6.39108477363419        6.65744324396105     
   6.82976600593165        6.93670540021553        6.99722256187877     
   7.02843322483741        7.04184135530369       0.666389823888841     
   1.38485545185939        2.15903389038132        3.11900661790540     
   4.14205542050049        5.14035546632380        6.06430714339960     
   6.84500095590438        7.47381632619244        7.95249521820618     
   8.29586727022024        8.52495881740991        8.67116148785066     
   8.75646407553754        8.80155725379749        8.82115354430444     
  0.780007536120035        1.61839196659644        2.50615786983821     
   3.58402470391094        4.72272553119056        5.82822356791147     
   6.84794613470280        7.71126987352813        8.41243640366203     
   8.95500673829826        9.35324409065014        9.62626030022880     