 Title = "Wing and Wake"
 VARIABLES = "X" "Y" "Z" "GAM" "skew"
 Zone I=   17 J=   20 K=1  T="Blade 01"
 DATAPACKING=BLOCK
 VARLOCATION=([4]=CELLCENTERED,[5]=CELLCENTERED)
 -0.430513849156731      -0.429910303135935      -0.428359101540892     
 -0.426024476763533      -0.422821316475764      -0.418619247491488     
 -0.413384201101012      -0.407273511463085      -0.400654849541475     
 -0.394046760918681      -0.387962931959866      -0.382762736931117     
 -0.378601189324503      -0.375432782772238      -0.373116208866841     
 -0.371472061902648      -0.370337574347186      -0.438573982141877     
 -0.437970436121082      -0.436419234526038      -0.434084609748682     
 -0.430881449460912      -0.426679380476636      -0.421444334086157     
 -0.415333644448234      -0.408714982526621      -0.402106893903826     
 -0.396023064945014      -0.390822869916266      -0.386661322309651     
 -0.383492915757387      -0.381176341851988      -0.379532194887797     
 -0.378397707332337      -0.449972847415617      -0.449369301394822     
 -0.447818099799779      -0.445483475022420      -0.442280314734651     
 -0.438078245750375      -0.432843199359897      -0.426732509721973     
 -0.420113847800361      -0.413505759177567      -0.407421930218753     
 -0.402221735190005      -0.398060187583390      -0.394891781031126     
 -0.392575207125726      -0.390931060161534      -0.389796572606076     
 -0.465886074784706      -0.465282528763911      -0.463731327168868     
 -0.461396702391508      -0.458193542103741      -0.453991473119466     
 -0.448756426728986      -0.442645737091062      -0.436027075169449     
 -0.429418986546655      -0.423335157587842      -0.418134962559094     
 -0.413973414952476      -0.410805008400215      -0.408488434494816     
 -0.406844287530622      -0.405709799975165      -0.487704880984106     
 -0.487101334963312      -0.485550133368270      -0.483215508590911     
 -0.480012348303139      -0.475810279318864      -0.470575232928387     
 -0.464464543290462      -0.457845881368851      -0.451237792746055     
 -0.445153963787244      -0.439953768758493      -0.435792221151878     
 -0.432623814599614      -0.430307240694217      -0.428663093730024     
 -0.427528606174564      -0.516893284434778      -0.516289738413982     
 -0.514738536818940      -0.512403912041581      -0.509200751753813     
 -0.504998682769535      -0.499763636379056      -0.493652946741133     
 -0.487034284819522      -0.480426196196728      -0.474342367237913     
 -0.469142172209164      -0.464980624602551      -0.461812218050283     
 -0.459495644144884      -0.457851497180696      -0.456717009625236     
 -0.554680271533987      -0.554076725513191      -0.552525523918150     
 -0.550190899140787      -0.546987738853019      -0.542785669868742     
 -0.537550623478265      -0.531439933840343      -0.524821271918729     
 -0.518213183295935      -0.512129354337122      -0.506929159308369     
 -0.502767611701759      -0.499599205149493      -0.497282631244096     
 -0.495638484279904      -0.494503996724445      -0.601574420769447     
 -0.600970874748651      -0.599419673153608      -0.597085048376254     
 -0.593881888088485      -0.589679819104210      -0.584444772713731     
 -0.578334083075805      -0.571715421154191      -0.565107332531398     
 -0.559023503572587      -0.553823308543838      -0.549661760937218     
 -0.546493354384958      -0.544176780479559      -0.542532633515364     
 -0.541398145959909      -0.656811361407037      -0.656207815386245     
 -0.654656613791203      -0.652321989013844      -0.649118828726074     
 -0.644916759741798      -0.639681713351322      -0.633571023713400     
 -0.626952361791786      -0.620344273168990      -0.614260444210173     
 -0.609060249181426      -0.604898701574814      -0.601730295022549     
 -0.599413721117150      -0.597769574152957      -0.596635086597498     
 -0.718012967662674      -0.717409421641877      -0.715858220046835     
 -0.713523595269477      -0.710320434981710      -0.706118365997433     
 -0.700883319606956      -0.694772629969031      -0.688153968047419     
 -0.681545879424625      -0.675462050465813      -0.670261855437066     
 -0.666100307830446      -0.662931901278182      -0.660615327372787     
 -0.658971180408591      -0.657836692853134      -0.781391579173728     
 -0.780788033152939      -0.779236831557893      -0.776902206780533     
 -0.773699046492767      -0.769496977508490      -0.764261931118011     
 -0.758151241480089      -0.751532579558470      -0.744924490935677     
 -0.738840661976865      -0.733640466948117      -0.729478919341499     
 -0.726310512789242      -0.723993938883838      -0.722349791919646     
 -0.721215304364188      -0.842593185429367      -0.841989639408570     
 -0.840438437813527      -0.838103813036170      -0.834900652748399     
 -0.830698583764125      -0.825463537373644      -0.819352847735722     
 -0.812734185814107      -0.806126097191315      -0.800042268232502     
 -0.794842073203748      -0.790680525597136      -0.787512119044874     
 -0.785195545139476      -0.783551398175284      -0.782416910619819     
 -0.897830126066956      -0.897226580046163      -0.895675378451118     
 -0.893340753673759      -0.890137593385990      -0.885935524401714     
 -0.880700478011232      -0.874589788373312      -0.867971126451702     
 -0.861363037828902      -0.855279208870094      -0.850079013841345     
 -0.845917466234723      -0.842749059682465      -0.840432485777067     
 -0.838788338812873      -0.837653851257411      -0.944724275302415     
 -0.944120729281625      -0.942569527686584      -0.940234902909220     
 -0.937031742621451      -0.932829673637177      -0.927594627246699     
 -0.921483937608775      -0.914865275687162      -0.908257187064371     
 -0.902173358105555      -0.896973163076808      -0.892811615470191     
 -0.889643208917927      -0.887326635012530      -0.885682488048336     
 -0.884548000492880      -0.982511262401624      -0.981907716380831     
 -0.980356514785786      -0.978021890008426      -0.974818729720665     
 -0.970616660736386      -0.965381614345903      -0.959270924707985     
 -0.952652262786371      -0.946044174163575      -0.939960345204763     
 -0.934760150176014      -0.930598602569400      -0.927430196017136     
 -0.925113622111734      -0.923469475147547      -0.922334987592085     
  -1.01169966585229       -1.01109611983150       -1.00954491823646     
  -1.00721029345910       -1.00400713317133      -0.999805064187059     
 -0.994570017796573      -0.988459328158658      -0.981840666237035     
 -0.975232577614254      -0.969148748655439      -0.963948553626686     
 -0.959787006020071      -0.956618599467807      -0.954302025562410     
 -0.952657878598217      -0.951523391042759       -1.03351847205170     
  -1.03291492603091       -1.03136372443586       -1.02902909965850     
  -1.02582593937073       -1.02162387038646       -1.01638882399598     
  -1.01027813435806       -1.00365947243644      -0.997051383813652     
 -0.990967554854828      -0.985767359826083      -0.981605812219468     
 -0.978437405667207      -0.976120831761801      -0.974476684797617     
 -0.973342197242153       -1.04943169942079       -1.04882815339999     
  -1.04727695180495       -1.04494232702760       -1.04173916673982     
  -1.03753709775555       -1.03230205136507       -1.02619136172715     
  -1.01957269980553       -1.01296461118274       -1.00688078222392     
  -1.00168058719517      -0.997519039588560      -0.994350633036298     
 -0.992034059130900      -0.990389912166709      -0.989255424611244     
  -1.06083056469453       -1.06022701867373       -1.05867581707868     
  -1.05634119230133       -1.05313803201356       -1.04893596302929     
  -1.04370091663881       -1.03759022700088       -1.03097156507927     
  -1.02436347645647       -1.01827964749766       -1.01307945246891     
  -1.00891790486230       -1.00574949831003       -1.00343292440464     
  -1.00178877744044       -1.00065428988499       -1.06889069767967     
  -1.06828715165889       -1.06673595006384       -1.06440132528648     
  -1.06119816499871       -1.05699609601443       -1.05176104962395     
  -1.04565035998603       -1.03903169806442       -1.03242360944163     
  -1.02633978048281       -1.02113958545406       -1.01697803784745     
  -1.01380963129519       -1.01149305738979       -1.00984891042559     
  -1.00871442287013     
  6.127486936345838E-002  6.292834912121685E-002  6.717803406525796E-002
  7.357399175252972E-002  8.234939663335229E-002  9.386142018552035E-002
  0.108203397332826       0.124944294089876       0.143076835990203     
  0.161180411192104       0.177847720206613       0.192094218270033     
  0.203495229114948       0.212175422369507       0.218521927736050     
  0.223026246595600       0.226134298249906       6.421694420134767E-002
  6.587042395910792E-002  7.012010890314631E-002  7.651606659042018E-002
  8.529147147124314E-002  9.680349502340981E-002  0.111145472170714     
  0.127886368927767       0.146018910828091       0.164122486029994     
  0.180789795044504       0.195036293107922       0.206437303952839     
  0.215117497207397       0.221464002573938       0.225968321433491     
  0.229076373087797       6.837770864086404E-002  7.003118839862341E-002
  7.428087334266055E-002  8.067683102993460E-002  8.945223591075691E-002
  0.100964259462924       0.115306236610228       0.132047133367281     
  0.150179675267607       0.168283250469509       0.184950559484020     
  0.199197057547438       0.210598068392354       0.219278261646911     
  0.225624767013454       0.230129085873002       0.233237137527313     
  7.418628598300987E-002  7.583976574076889E-002  8.008945068480709E-002
  8.648540837208112E-002  9.526081325290414E-002  0.106772836805070     
  0.121114813952376       0.137855710709426       0.155988252609755     
  0.174091827811655       0.190759136826164       0.205005634889583     
  0.216406645734499       0.225086838989059       0.231433344355600     
  0.235937663215152       0.239045714869459       8.215049213572943E-002
  8.380397189348894E-002  8.805365683752740E-002  9.444961452480023E-002
  0.103225019405624       0.114737042957790       0.129079020105095     
  0.145819916862146       0.163952458762473       0.182056033964374     
  0.198723342978886       0.212969841042303       0.224370851887221     
  0.233051045141776       0.239397550508321       0.243901869367871     
  0.247009921022177       9.280471676311876E-002  9.445819652087815E-002
  9.870788146491664E-002  0.105103839152190       0.113879244033012     
  0.125391267585180       0.139733244732485       0.156474141489535     
  0.174606683389862       0.192710258591763       0.209377567606274     
  0.223624065669692       0.235025076514610       0.243705269769166     
  0.250051775135708       0.254556093995260       0.257664145649568     
  0.106597559157792       0.108251038915552       0.112500723859589     
  0.118896681546862       0.127672086427687       0.139184109979850     
  0.153526087127158       0.170266983884208       0.188399525784536     
  0.206503100986436       0.223170410000947       0.237416908064361     
  0.248817918909283       0.257498112163838       0.263844617530383     
  0.268348936389934       0.271456988044242       0.123714658436937     
  0.125368138194697       0.129617823138735       0.136013780826011     
  0.144789185706833       0.156301209259001       0.170643186406304     
  0.187384083163356       0.205516625063681       0.223620200265582     
  0.240287509280095       0.254534007343512       0.265935018188426     
  0.274615211442986       0.280961716809530       0.285466035669077     
  0.288574087323387       0.143877007305290       0.145530487063053     
  0.149780172007092       0.156176129694361       0.164951534575186     
  0.176463558127355       0.190805535274658       0.207546432031711     
  0.225678973932037       0.243782549133936       0.260449858148446     
  0.274696356211862       0.286097367056783       0.294777560311340     
  0.301124065677880       0.305628384537433       0.308736436191740     
  0.166216552587600       0.167870032345360       0.172119717289398     
  0.178515674976670       0.187291079857496       0.198803103409662     
  0.213145080556967       0.229885977314018       0.248018519214346     
  0.266122094416246       0.282789403430757       0.297035901494177     
  0.308436912339091       0.317117105593650       0.323463610960190     
  0.327967929819741       0.331075981474051       0.189350738900736     
  0.191004218658498       0.195253903602537       0.201649861289806     
  0.210425266170631       0.221937289722801       0.236279266870105     
  0.253020163627157       0.271152705527478       0.289256280729382     
  0.305923589743893       0.320170087807309       0.331571098652228     
  0.340251291906784       0.346597797273329       0.351102116132880     
  0.354210167787185       0.211690284183046       0.213343763940808     
  0.217593448884846       0.223989406572116       0.232764811452941     
  0.244276835005108       0.258618812152412       0.275359708909462     
  0.293492250809791       0.311595826011694       0.328263135026202     
  0.342509633089614       0.353910643934538       0.362590837189096     
  0.368937342555637       0.373441661415188       0.376549713069496     
  0.231852633051402       0.233506112809157       0.237755797753198     
  0.244151755440471       0.252927160321297       0.264439183873462     
  0.278781161020766       0.295522057777820       0.313654599678146     
  0.331758174880039       0.348425483894555       0.362671981957974     
  0.374072992802884       0.382753186057447       0.389099691423989     
  0.393604010283543       0.396712061937845       0.248969732330547     
  0.250623212088310       0.254872897032346       0.261268854719619     
  0.270044259600439       0.281556283152608       0.295898260299915     
  0.312639157056959       0.330771698957291       0.348875274159191     
  0.365542583173701       0.379789081237122       0.391190092082038     
  0.399870285336596       0.406216790703137       0.410721109562689     
  0.413829161216997       0.262762574725219       0.264416054482979     
  0.268665739427017       0.275061697114287       0.283837101995113     
  0.295349125547283       0.309691102694581       0.326431999451638     
  0.344564541351967       0.362668116553864       0.379335425568375     
  0.393581923631791       0.404982934476711       0.413663127731268     
  0.420009633097808       0.424513951957359       0.427622003611668     
  0.273416799352606       0.275070279110372       0.279319964054408     
  0.285715921741681       0.294491326622505       0.306003350174670     
  0.320345327321975       0.337086224079028       0.355218765979347     
  0.373322341181255       0.389989650195765       0.404236148259182     
  0.415637159104100       0.424317352358657       0.430663857725200     
  0.435168176584752       0.438276228239060       0.281381005505330     
  0.283034485263090       0.287284170207128       0.293680127894400     
  0.302455532775220       0.313967556327392       0.328309533474695     
  0.345050430231747       0.363182972132073       0.381286547333977     
  0.397953856348479       0.412200354411903       0.423601365256820     
  0.432281558511378       0.438628063877915       0.443132382737470     
  0.446240434391776       0.287189582847476       0.288843062605234     
  0.293092747549275       0.299488705236547       0.308264110117362     
  0.319776133669540       0.334118110816842       0.350859007573893     
  0.368991549474220       0.387095124676120       0.403762433690630     
  0.418008931754050       0.429409942598965       0.438090135853526     
  0.444436641220066       0.448940960079618       0.452049011733921     
  0.291350347286991       0.293003827044748       0.297253511988787     
  0.303649469676062       0.312424874556880       0.323936898109053     
  0.338278875256356       0.355019772013403       0.373152313913736     
  0.391255889115635       0.407923198130144       0.422169696193563     
  0.433570707038478       0.442250900293032       0.448597405659581     
  0.453101724519135       0.456209776173441       0.294292422124879     
  0.295945901882640       0.300195586826678       0.306591544513949     
  0.315366949394776       0.326878972946941       0.341220950094247     
  0.357961846851297       0.376094388751622       0.394197963953525     
  0.410865272968031       0.425111771031446       0.436512781876370     
  0.445192975130926       0.451539480497467       0.456043799357021     
  0.459151851011329     
  0.000000000000000E+000 -2.059343134687265E-004 -5.967154644315922E-004
 -1.288783171780619E-003 -2.918895425121374E-003 -5.573396522451829E-003
 -9.167771110016921E-003 -1.357217217812317E-002 -1.838427778900438E-002
 -2.320014315178548E-002 -2.763890288787426E-002 -3.143970394449276E-002
 -3.447539076661003E-002 -3.679168976136481E-002 -3.848528426515805E-002
 -3.968682183911389E-002 -4.051708164825068E-002  0.000000000000000E+000
 -2.059343134687265E-004 -5.967154644315922E-004 -1.288783171780619E-003
 -2.918895425121374E-003 -5.573396522451829E-003 -9.167771110016921E-003
 -1.357217217812317E-002 -1.838427778900438E-002 -2.320014315178548E-002
 -2.763890288787426E-002 -3.143970394449276E-002 -3.447539076661003E-002
 -3.679168976136481E-002 -3.848528426515805E-002 -3.968682183911389E-002
 -4.051708164825068E-002  0.000000000000000E+000 -2.059343134687265E-004
 -5.967154644315922E-004 -1.288783171780619E-003 -2.918895425121374E-003
 -5.573396522451829E-003 -9.167771110016921E-003 -1.357217217812317E-002
 -1.838427778900438E-002 -2.320014315178548E-002 -2.763890288787426E-002
 -3.143970394449276E-002 -3.447539076661003E-002 -3.679168976136481E-002
 -3.848528426515805E-002 -3.968682183911389E-002 -4.051708164825068E-002
  0.000000000000000E+000 -2.059343134687265E-004 -5.967154644315922E-004
 -1.288783171780619E-003 -2.918895425121374E-003 -5.573396522451829E-003
 -9.167771110016921E-003 -1.357217217812317E-002 -1.838427778900438E-002
 -2.320014315178548E-002 -2.763890288787426E-002 -3.143970394449276E-002
 -3.447539076661003E-002 -3.679168976136481E-002 -3.848528426515805E-002
 -3.968682183911389E-002 -4.051708164825068E-002  0.000000000000000E+000
 -2.059343134687265E-004 -5.967154644315922E-004 -1.288783171780619E-003
 -2.918895425121374E-003 -5.573396522451829E-003 -9.167771110016921E-003
 -1.357217217812317E-002 -1.838427778900438E-002 -2.320014315178548E-002
 -2.763890288787426E-002 -3.143970394449276E-002 -3.447539076661003E-002
 -3.679168976136481E-002 -3.848528426515805E-002 -3.968682183911389E-002
 -4.051708164825068E-002  0.000000000000000E+000 -2.059343134687265E-004
 -5.967154644315922E-004 -1.288783171780619E-003 -2.918895425121374E-003
 -5.573396522451829E-003 -9.167771110016921E-003 -1.357217217812317E-002
 -1.838427778900438E-002 -2.320014315178548E-002 -2.763890288787426E-002
 -3.143970394449276E-002 -3.447539076661003E-002 -3.679168976136481E-002
 -3.848528426515805E-002 -3.968682183911389E-002 -4.051708164825068E-002
  0.000000000000000E+000 -2.059343134687265E-004 -5.967154644315922E-004
 -1.288783171780619E-003 -2.918895425121374E-003 -5.573396522451829E-003
 -9.167771110016921E-003 -1.357217217812317E-002 -1.838427778900438E-002
 -2.320014315178548E-002 -2.763890288787426E-002 -3.143970394449276E-002
 -3.447539076661003E-002 -3.679168976136481E-002 -3.848528426515805E-002
 -3.968682183911389E-002 -4.051708164825068E-002  0.000000000000000E+000
 -2.059343134687265E-004 -5.967154644315922E-004 -1.288783171780619E-003
 -2.918895425121374E-003 -5.573396522451829E-003 -9.167771110016921E-003
 -1.357217217812317E-002 -1.838427778900438E-002 -2.320014315178548E-002
 -2.763890288787426E-002 -3.143970394449276E-002 -3.447539076661003E-002
 -3.679168976136481E-002 -3.848528426515805E-002 -3.968682183911389E-002
 -4.051708164825068E-002  0.000000000000000E+000 -2.059343134687265E-004
 -5.967154644315922E-004 -1.288783171780619E-003 -2.918895425121374E-003
 -5.573396522451829E-003 -9.167771110016921E-003 -1.357217217812317E-002
 -1.838427778900438E-002 -2.320014315178548E-002 -2.763890288787426E-002
 -3.143970394449276E-002 -3.447539076661003E-002 -3.679168976136481E-002
 -3.848528426515805E-002 -3.968682183911389E-002 -4.051708164825068E-002
  0.000000000000000E+000 -2.059343134687265E-004 -5.967154644315922E-004
 -1.288783171780619E-003 -2.918895425121374E-003 -5.573396522451829E-003
 -9.167771110016921E-003 -1.357217217812317E-002 -1.838427778900438E-002
 -2.320014315178548E-002 -2.763890288787426E-002 -3.143970394449276E-002
 -3.447539076661003E-002 -3.679168976136481E-002 -3.848528426515805E-002
 -3.968682183911389E-002 -4.051708164825068E-002  0.000000000000000E+000
 -2.059343134687265E-004 -5.967154644315922E-004 -1.288783171780619E-003
 -2.918895425121374E-003 -5.573396522451829E-003 -9.167771110016921E-003
 -1.357217217812317E-002 -1.838427778900438E-002 -2.320014315178548E-002
 -2.763890288787426E-002 -3.143970394449276E-002 -3.447539076661003E-002
 -3.679168976136481E-002 -3.848528426515805E-002 -3.968682183911389E-002
 -4.051708164825068E-002  0.000000000000000E+000 -2.059343134687265E-004
 -5.967154644315922E-004 -1.288783171780619E-003 -2.918895425121374E-003
 -5.573396522451829E-003 -9.167771110016921E-003 -1.357217217812317E-002
 -1.838427778900438E-002 -2.320014315178548E-002 -2.763890288787426E-002
 -3.143970394449276E-002 -3.447539076661003E-002 -3.679168976136481E-002
 -3.848528426515805E-002 -3.968682183911389E-002 -4.051708164825068E-002
  0.000000000000000E+000 -2.059343134687265E-004 -5.967154644315922E-004
 -1.288783171780619E-003 -2.918895425121374E-003 -5.573396522451829E-003
 -9.167771110016921E-003 -1.357217217812317E-002 -1.838427778900438E-002
 -2.320014315178548E-002 -2.763890288787426E-002 -3.143970394449276E-002
 -3.447539076661003E-002 -3.679168976136481E-002 -3.848528426515805E-002
 -3.968682183911389E-002 -4.051708164825068E-002  0.000000000000000E+000
 -2.059343134687265E-004 -5.967154644315922E-004 -1.288783171780619E-003
 -2.918895425121374E-003 -5.573396522451829E-003 -9.167771110016921E-003
 -1.357217217812317E-002 -1.838427778900438E-002 -2.320014315178548E-002
 -2.763890288787426E-002 -3.143970394449276E-002 -3.447539076661003E-002
 -3.679168976136481E-002 -3.848528426515805E-002 -3.968682183911389E-002
 -4.051708164825068E-002  0.000000000000000E+000 -2.059343134687265E-004
 -5.967154644315922E-004 -1.288783171780619E-003 -2.918895425121374E-003
 -5.573396522451829E-003 -9.167771110016921E-003 -1.357217217812317E-002
 -1.838427778900438E-002 -2.320014315178548E-002 -2.763890288787426E-002
 -3.143970394449276E-002 -3.447539076661003E-002 -3.679168976136481E-002
 -3.848528426515805E-002 -3.968682183911389E-002 -4.051708164825068E-002
  0.000000000000000E+000 -2.059343134687265E-004 -5.967154644315922E-004
 -1.288783171780619E-003 -2.918895425121374E-003 -5.573396522451829E-003
 -9.167771110016921E-003 -1.357217217812317E-002 -1.838427778900438E-002
 -2.320014315178548E-002 -2.763890288787426E-002 -3.143970394449276E-002
 -3.447539076661003E-002 -3.679168976136481E-002 -3.848528426515805E-002
 -3.968682183911389E-002 -4.051708164825068E-002  0.000000000000000E+000
 -2.059343134687265E-004 -5.967154644315922E-004 -1.288783171780619E-003
 -2.918895425121374E-003 -5.573396522451829E-003 -9.167771110016921E-003
 -1.357217217812317E-002 -1.838427778900438E-002 -2.320014315178548E-002
 -2.763890288787426E-002 -3.143970394449276E-002 -3.447539076661003E-002
 -3.679168976136481E-002 -3.848528426515805E-002 -3.968682183911389E-002
 -4.051708164825068E-002  0.000000000000000E+000 -2.059343134687265E-004
 -5.967154644315922E-004 -1.288783171780619E-003 -2.918895425121374E-003
 -5.573396522451829E-003 -9.167771110016921E-003 -1.357217217812317E-002
 -1.838427778900438E-002 -2.320014315178548E-002 -2.763890288787426E-002
 -3.143970394449276E-002 -3.447539076661003E-002 -3.679168976136481E-002
 -3.848528426515805E-002 -3.968682183911389E-002 -4.051708164825068E-002
  0.000000000000000E+000 -2.059343134687265E-004 -5.967154644315922E-004
 -1.288783171780619E-003 -2.918895425121374E-003 -5.573396522451829E-003
 -9.167771110016921E-003 -1.357217217812317E-002 -1.838427778900438E-002
 -2.320014315178548E-002 -2.763890288787426E-002 -3.143970394449276E-002
 -3.447539076661003E-002 -3.679168976136481E-002 -3.848528426515805E-002
 -3.968682183911389E-002 -4.051708164825068E-002  0.000000000000000E+000
 -2.059343134687265E-004 -5.967154644315922E-004 -1.288783171780619E-003
 -2.918895425121374E-003 -5.573396522451829E-003 -9.167771110016921E-003
 -1.357217217812317E-002 -1.838427778900438E-002 -2.320014315178548E-002
 -2.763890288787426E-002 -3.143970394449276E-002 -3.447539076661003E-002
 -3.679168976136481E-002 -3.848528426515805E-002 -3.968682183911389E-002
 -4.051708164825068E-002
 -0.165267177872050      -0.323016472972613      -0.402167061819304     
 -0.388552039730103      -0.358971324498950      -0.339084113853048     
 -0.327112208893371      -0.331014905837157      -0.342460985680307     
 -0.357843367207688      -0.374453193387277      -0.391007310612201     
 -0.404210285150980      -0.414657753889438      -0.422320044588494     
 -0.427246632836171      -0.204391886812603      -0.410946952047678     
 -0.532675884060352      -0.539270779329835      -0.510714540393349     
 -0.485397695230306      -0.468567762636087      -0.473348758678810     
 -0.490112816171455      -0.513785305670188      -0.540410199529378     
 -0.567773507966770      -0.591510798761779      -0.611581632097769     
 -0.626510570351188      -0.634955623996863      -0.219472543187716     
 -0.444759153150565      -0.584856787609445      -0.604549689139116     
 -0.581245921897483      -0.554499506218170      -0.534062796865415     
 -0.537841722217546      -0.557239777650669      -0.586676821649997     
 -0.621121875066496      -0.656938300012498      -0.687924341290241     
 -0.712589325511529      -0.729284544712692      -0.737825190003958     
 -0.217863399665186      -0.442788599400587      -0.582477697451907     
 -0.599129532675802      -0.571267201704361      -0.538146746706132     
 -0.510346093429815      -0.508790525933464      -0.526195168580231     
 -0.556813976924284      -0.594227114191692      -0.632890377454156     
 -0.665120868129447      -0.689504998286781      -0.705260794524195     
 -0.712966149314554      -0.198038830640993      -0.402580675214787     
 -0.521931628412747      -0.514757424866143      -0.463035418514465     
 -0.407717186419177      -0.359888818357449      -0.342244574005303     
 -0.347799969738319      -0.370251363440960      -0.401734657440238     
 -0.435494650097893      -0.463422523039679      -0.484460974587370     
 -0.497913675296240      -0.504329166649521      -0.154616546143098     
 -0.313182733201179      -0.387003355449455      -0.329012164659758     
 -0.225833671816014      -0.121953082102667      -3.031995738871763E-002
  2.398025555468316E-002  4.803589220821029E-002  4.882054680628261E-002
  3.519684699720445E-002  1.456414157999726E-002 -4.197684181988616E-003
 -1.932972612645976E-002 -2.924494093186828E-002 -3.391773566721158E-002
 -7.991484956687873E-002 -0.158755829162336      -0.154227363939540     
 -1.054666602334668E-002  0.180325685587977       0.368873358332039     
  0.538561655834183       0.659960179059875       0.739238697142815     
  0.783348396222920       0.801927007420387       0.803607518859897     
  0.799481293854651       0.793315381866453       0.788460003695485     
  0.786109490752767       3.361680373346190E-002  7.625581408449733E-002
  0.199235303731752       0.470514197800832       0.792403562415794     
   1.10892017417493        1.39804950921349        1.62351976189315     
   1.78884560856000        1.90000006478831        1.96759063640636     
   2.00263561845481        2.02002818158363        2.02677534673618     
   2.02896658869846        2.02972891341439       0.188423840474281     
  0.396779010472390       0.680159459509331        1.12205215549535     
   1.61891954794040        2.10700039480794        2.55700922743257     
   2.92357802737827        3.20601977576180        3.40857936905690     
   3.54309017180513        3.62386008075868        3.67077378758324     
   3.69513904848994        3.70681735666391        3.71170527820599     
  0.374366753804163       0.781654795891893        1.25646450838136     
   1.90006272133781        2.60314056573518        3.29333701529956     
   3.93303038541655        4.46659546499436        4.88844407862634     
   5.20073981309764        5.41653170335032        5.55360780600315     
   5.63726731690695        5.68369363643155        5.70726243565738     
   5.71730943507944       0.564193207926880        1.17430381744265     
   1.84357703119831        2.69104098553564        3.60163990643657     
   4.49447678585823        5.32396185482454        6.02495961186152     
   6.58769911209109        7.01249958651932        7.31321696630132     
   7.51036133279950        7.63397733560239        7.70477590964043     
   7.74163099053296        7.75748124956655       0.721612265296881     
   1.49940744729850        2.32915314256915        3.34476586257343     
   4.42511595049748        5.48178915960955        6.46332004975887     
   7.29815177364019        7.97495840224621        8.49338657045071     
   8.86735442963489        9.11824388081539        9.27886504029017     
   9.37294411701572        9.42281347178211        9.44444901263404     
  0.819421186379156        1.70038394668257        2.62850631265382     
   3.74745517428355        4.92920997095548        6.07932836627334     
   7.14373007998368        8.04949608210154        8.78845137030921     
   9.36223931563812        9.78425532678810        10.0738897738882     