 Title = "Wing and Wake"
 VARIABLES = "X" "Y" "Z" "GAM"
 Zone I=    5 J=   14 K=1  T="Blade"
 DATAPACKING=BLOCK
 VARLOCATION=([4]=CELLCENTERED)
  -11.9961946980917       -11.7471460235688       -11.4980973490459     
  -11.2490486745229       -11.0000000000000       -11.9961946980917     
  -11.7471460235688       -11.4980973490459       -11.2490486745229     
  -11.0000000000000       -11.9961946980917       -11.7471460235688     
  -11.4980973490459       -11.2490486745229       -11.0000000000000     
  -11.9961946980917       -11.7471460235688       -11.4980973490459     
  -11.2490486745229       -11.0000000000000       -11.9961946980917     
  -11.7471460235688       -11.4980973490459       -11.2490486745229     
  -11.0000000000000       -11.9961946980917       -11.7471460235688     
  -11.4980973490459       -11.2490486745229       -11.0000000000000     
  -11.9961946980917       -11.7471460235688       -11.4980973490459     
  -11.2490486745229       -11.0000000000000       -11.9961946980917     
  -11.7471460235688       -11.4980973490459       -11.2490486745229     
  -11.0000000000000       -11.9961946980917       -11.7471460235688     
  -11.4980973490459       -11.2490486745229       -11.0000000000000     
  -11.9961946980917       -11.7471460235688       -11.4980973490459     
  -11.2490486745229       -11.0000000000000       -11.9961946980917     
  -11.7471460235688       -11.4980973490459       -11.2490486745229     
  -11.0000000000000       -11.9961946980917       -11.7471460235688     
  -11.4980973490459       -11.2490486745229       -11.0000000000000     
  -11.9961946980917       -11.7471460235688       -11.4980973490459     
  -11.2490486745229       -11.0000000000000       -11.9961946980917     
  -11.7471460235688       -11.4980973490459       -11.2490486745229     
  -11.0000000000000     
  0.000000000000000E+000  0.000000000000000E+000  0.000000000000000E+000
  0.000000000000000E+000  0.000000000000000E+000  0.290581825739480     
  0.290581825739480       0.290581825739480       0.290581825739480     
  0.290581825739480        1.14543974346790        1.14543974346790     
   1.14543974346790        1.14543974346790        1.14543974346790     
   2.51489251828899        2.51489251828899        2.51489251828899     
   2.51489251828899        2.51489251828899        4.31935253268844     
   4.31935253268844        4.31935253268844        4.31935253268844     
   4.31935253268844        6.45395112957464        6.45395112957464     
   6.45395112957464        6.45395112957464        6.45395112957464     
   8.79463319744677        8.79463319744677        8.79463319744677     
   8.79463319744677        8.79463319744677        11.2053668025532     
   11.2053668025532        11.2053668025532        11.2053668025532     
   11.2053668025532        13.5460488704254        13.5460488704254     
   13.5460488704254        13.5460488704254        13.5460488704254     
   15.6806474673116        15.6806474673116        15.6806474673116     
   15.6806474673116        15.6806474673116        17.4851074817110     
   17.4851074817110        17.4851074817110        17.4851074817110     
   17.4851074817110        18.8545602565321        18.8545602565321     
   18.8545602565321        18.8545602565321        18.8545602565321     
   19.7094181742605        19.7094181742605        19.7094181742605     
   19.7094181742605        19.7094181742605        20.0000000000000     
   20.0000000000000        20.0000000000000        20.0000000000000     
   20.0000000000000     
  8.715574274765817E-002  6.536680706074363E-002  4.357787137382908E-002
  2.178893568691454E-002  0.000000000000000E+000  8.715574274765817E-002
  6.536680706074363E-002  4.357787137382908E-002  2.178893568691454E-002
  0.000000000000000E+000  8.715574274765817E-002  6.536680706074363E-002
  4.357787137382908E-002  2.178893568691454E-002  0.000000000000000E+000
  8.715574274765817E-002  6.536680706074363E-002  4.357787137382908E-002
  2.178893568691454E-002  0.000000000000000E+000  8.715574274765817E-002
  6.536680706074363E-002  4.357787137382908E-002  2.178893568691454E-002
  0.000000000000000E+000  8.715574274765817E-002  6.536680706074363E-002
  4.357787137382908E-002  2.178893568691454E-002  0.000000000000000E+000
  8.715574274765817E-002  6.536680706074363E-002  4.357787137382908E-002
  2.178893568691454E-002  0.000000000000000E+000  8.715574274765817E-002
  6.536680706074363E-002  4.357787137382908E-002  2.178893568691454E-002
  0.000000000000000E+000  8.715574274765817E-002  6.536680706074363E-002
  4.357787137382908E-002  2.178893568691454E-002  0.000000000000000E+000
  8.715574274765817E-002  6.536680706074363E-002  4.357787137382908E-002
  2.178893568691454E-002  0.000000000000000E+000  8.715574274765817E-002
  6.536680706074363E-002  4.357787137382908E-002  2.178893568691454E-002
  0.000000000000000E+000  8.715574274765817E-002  6.536680706074363E-002
  4.357787137382908E-002  2.178893568691454E-002  0.000000000000000E+000
  8.715574274765817E-002  6.536680706074363E-002  4.357787137382908E-002
  2.178893568691454E-002  0.000000000000000E+000  8.715574274765817E-002
  6.536680706074363E-002  4.357787137382908E-002  2.178893568691454E-002
  0.000000000000000E+000
  0.753410682862397        1.01447312453938        1.15658388662053     
   1.23216435050045        1.08806037036635        1.52952685448009     
   1.78175006663418        1.91619742785223        1.26678988373649     
   1.80132184178240        2.11710659489872        2.28950380192338     
   1.35200113219130        1.92760703042753        2.27049953158892     
   2.45898633296880        1.39192654621306        1.98591841028342     
   2.34051518310059        2.53573214424833        1.40962840899476     
   2.01156149094123        2.37108960293975        2.56906159780803     
   1.41450602391683        2.01859619258478        2.37944562543851     
   2.57814619607128        1.40921547858977        2.01095160372356     
   2.37035348551413        2.56826093354587        1.39146006721216     
   1.98521394111120        2.33964698428283        2.53476975500694     
   1.35195787960618        1.92749957900294        2.27032024528751     
   2.45874197816828        1.26736021951005        1.80209291088503     
   2.11795876518543        2.29035523343710        1.08899228198332     
   1.53080557645263        1.78319528377247        1.91768450131347     
  0.754192398800571        1.01549764848103        1.15772447285607     
   1.23334207340048     
 Zone I=   31 J=   14 K=1  T="NearWake"
 DATAPACKING=BLOCK
 VARLOCATION=([4]=CELLCENTERED)
  -10.9252853976431       -10.6752853976431       -10.4249745096741     
  -10.1744380189843       -9.92383003088424       -9.67322160040276     
  -9.42259541920527       -9.17204198868298       -8.92139660872696     
  -8.67099477817717       -8.42023507811268       -8.17020357316081     
  -7.91908936002723       -7.66958311216977       -7.41832603989257     
  -7.16542889716840       -6.91700993630022       -6.66613028086502     
  -6.41595187095748       -6.16564233597891       -5.91537169964510     
  -5.66521884045248       -5.41511962606820       -5.16514211622602     
  -4.91527075903325       -4.66554637946368       -4.41598296396640     
  -4.16661706628378       -3.91747920949190       -3.66860542741188     
  -3.42000066357580       -10.9252853976431       -10.6752853976431     
  -10.4255052275232       -10.1753683312302       -9.92507613397441     
  -9.67471102214605       -9.42429199729693       -9.17385256226527     
  -8.92340717077386       -8.67286081161341       -8.42261542883183     
  -8.17163526591981       -7.92196745066684       -7.67023431387023     
  -7.42055089735170       -7.16872246652637       -6.91932523607784     
  -6.66886245803619       -6.41840324644026       -6.16806314949488     
  -5.91764130902684       -5.66729602694807       -5.41694382380901     
  -5.16664607597905       -4.91637685639432       -4.66616068772705     
  -4.41599766131826       -4.16590424695794       -3.91589452636125     
  -3.66599582647964       -3.41625592998146       -10.9252853976431     
  -10.6752853976431       -10.4259421008025       -10.1764541758992     
  -9.92686475370588       -9.67720368556663       -9.42748387929794     
  -9.17772620638831       -8.92792737338723       -8.67810813428611     
  -8.42826313512476       -8.17838432506323       -7.92854356827893     
  -7.67858383208955       -7.42852666704198       -7.17920340738879     
  -6.92908198538902       -6.67922721297426       -6.42926877349307     
  -6.17937522602972       -5.92947647225061       -5.67960130330191     
  -5.42974086245828       -5.17990130732335       -4.93008358230691     
  -4.68029040022396       -4.43052335987062       -4.18078333959748     
  -3.93106946953888       -3.68137828579177       -3.43170119575144     
  -10.9252853976431       -10.6752853976431       -10.4259567836437     
  -10.1764803292592       -9.92690326934071       -9.67725788407698     
  -9.42755735911209       -9.17782346188271       -8.92805120913698     
  -8.67826374941494       -8.42845128670778       -8.17861473365426     
  -7.92880031670026       -7.67889689896715       -7.42887963395159     
  -7.17957157258753       -6.92951621157236       -6.67970707077804     
  -6.42981769373277       -6.17995488446883       -5.93009142045088     
  -5.68023153555283       -5.43037763520810       -5.18052689485780     
  -4.93068102953970       -4.68083787170401       -4.43099654231376     
  -4.18115387821107       -3.93130557363677       -3.68144422571885     
  -3.43155596046927       -10.9252853976431       -10.6752853976431     
  -10.4259591102044       -10.1764766427962       -9.92688930242543     
  -9.67723153058662       -9.42751804553497       -9.17777055019094     
  -8.92798626348882       -8.67818374692090       -8.42836305274139     
  -8.17850308810329       -7.92869246649706       -7.67873641969467     
  -7.42877548716710       -7.17938101722130       -6.92934397039981     
  -6.67949667189493       -6.42960150724337       -6.17971081685714     
  -5.92982658452828       -5.67993593024579       -5.43004945983273     
  -5.18015926778855       -4.93026903930297       -4.68037500613859     
  -4.43047661711752       -4.18057017219321       -3.93065136068570     
  -3.68071252739542       -3.43073927744893       -10.9252853976431     
  -10.6752853976431       -10.4259612439624       -10.1764761414264     
  -9.92688343368012       -9.67721848312150       -9.42749705843513     
  -9.17774014289134       -8.92794766894783       -8.67813274818859     
  -8.42830694994745       -8.17842579647312       -7.92862321003680     
  -7.67861665043789       -7.42871097285373       -7.17924051802967     
  -6.92922231696306       -6.67934684703025       -6.42944702448140     
  -6.17953817385778       -5.92964170547745       -5.67973454200250     
  -5.42983251823292       -5.17992508450967       -4.93001735946299     
  -4.68010501331280       -4.43018799521248       -4.18026263991325     
  -3.93032494670518       -3.68036745534736       -3.43037591780650     
  -10.9252853976431       -10.6752853976431       -10.4259623980216     
  -10.1764764615725       -9.92688175084037       -9.67721394581031     
  -9.42748930830006       -9.17772831337735       -8.92793243165653     
  -8.67811163760016       -8.42828401327908       -8.17839201345982     
  -7.92859479123808       -7.67856069022519       -7.42868581089132     
  -7.17917515129366       -6.92916794589845       -6.67927949593050     
  -6.42937827527163       -6.17946191508398       -5.92956092661949     
  -5.67964770379259       -5.42974042945055       -5.17982746191470     
  -4.92991454930542       -4.67999715019582       -4.43007541844247     
  -4.18014569167240       -3.93020406014218       -3.68024309122753     
  -3.43024853288600       -10.9252853976431       -10.6752853976431     
  -10.4259623109355       -10.1764763751251       -9.92688169968711     
  -9.67721394083142       -9.42748932813750       -9.17772834459325     
  -8.92793237990371       -8.67811150515301       -8.42828356952226     
  -8.17839133712561       -7.92859352277945       -7.67855873619448     
  -7.42868264017089       -7.17917169158683       -6.92916389884263     
  -6.67927489604232       -6.42937306018610       -6.17945604151768     
  -5.92955433755324       -5.67964034039104       -5.42973222817552     
  -5.17981835638459       -4.92990447064313       -4.67998602801994     
  -4.43006318177495       -4.18013226996169       -3.93018938404149     
  -3.68022709228107       -3.43023113648779       -10.9252853976431     
  -10.6752853976431       -10.4259610825968       -10.1764760165714     
  -9.92688343288152       -9.67721864178876       -9.42749733801746     
  -9.17774052196517       -8.92794793344358       -8.67813290918207     
  -8.42830645547957       -8.17842483793512       -7.92862088759444     
  -7.67861273875863       -7.42870404330621       -7.17923290224376     
  -6.92921324152406       -6.67933636118602       -6.42943494373780     
  -6.17952434473260       -5.92962592966984       -5.67971659926613     
  -5.42981215708283       -5.17990202250650       -4.92999128033681     
  -4.68007556556512       -4.43015479085786       -4.18022525410801     
  -3.93028291710841       -3.68032027735692       -3.43032300705062     
  -10.9252853976431       -10.6752853976431       -10.4259590614027     
  -10.1764766797747       -9.92688950720891       -9.67723195256708     
  -9.42751867570295       -9.17777139529513       -8.92798715633419     
  -8.67818472394506       -8.42836361152743       -8.17850345729561     
  -7.92869171454354       -7.67873442106536       -7.42877057637941     
  -7.17937559031138       -6.92933721986118       -6.67948863575085     
  -6.42959203635622       -6.17969977667308       -5.92981379849974     
  -5.67992118678707       -5.43003249351406       -5.18013973981995     
  -4.93024650617399       -4.68034887770434       -4.43044609850658     
  -4.18053418798270       -3.93060845446846       -3.68066072000347     
  -3.43067576064881       -10.9252853976431       -10.6752853976431     
  -10.4259569579560       -10.1764805763973       -9.92690357854803     
  -9.67725826968295       -9.42755784194920       -9.17782406841840     
  -8.92805193494138       -8.67826463365794       -8.42845220625930     
  -8.17861585274034       -7.92880116994922       -7.67889764947844     
  -7.42887940173159       -7.17957100065796       -6.92951494450774     
  -6.67970501815573       -6.42981487785681       -6.17995133297493     
  -5.93008724684997       -5.68022696464432       -5.43037306472417     
  -5.18052297781080       -4.93067878560806       -4.68083883699671     
  -4.43100293959312       -4.18116876832187       -3.93133284627519     
  -3.68148810214288       -3.43161902017874       -10.9252853976431     
  -10.6752853976431       -10.4259424804653       -10.1764545561824     
  -9.92686498548725       -9.67720371617065       -9.42748374223136     
  -9.17772593373517       -8.92792712773199       -8.67810793770928     
  -8.42826326579657       -8.17838486938600       -7.92854453991010     
  -7.67858566728864       -7.42852992208313       -7.17920591524567     
  -6.92908378551876       -6.67922765495068       -6.42926759341038     
  -6.17937193486315       -5.92947054164383       -5.67959207072292     
  -5.42972753260010       -5.17988293561096       -4.93005909686966     
  -4.68025870663161       -4.43048362624407       -4.18073575546138     
  -3.93101738155934       -3.68133642401933       -3.43175913270249     
  -10.9252853976431       -10.6752853976431       -10.4255048025626     
  -10.1753662914357       -9.92507234513900       -9.67470571137574     
  -9.42428554424306       -9.17384530236008       -8.92339963930982     
  -8.67285330465342       -8.42260825902909       -8.17162935813046     
  -7.92196145170637       -7.67023228578466       -7.42055447983741     
  -7.16872608910083       -6.91932812755600       -6.66886473053425     
  -6.41840436984529       -6.16806295835933       -5.91763958504932     
  -5.66729247616473       -5.41693815252816       -5.16663790856401     
  -4.91636578384850       -4.66614621222318       -4.41597920308781     
  -4.16588109524439       -3.91586579457181       -3.66595965783414     
  -3.41620502813425       -10.9252853976431       -10.6752853976431     
  -10.4249751128799       -10.1744395497583       -9.92383286344797     
  -9.67322611189924       -9.42260192887231       -9.17205081664812     
  -8.92140788849170       -8.67100875891013       -8.42025158346202     
  -8.17022225846161       -7.91911077251577       -7.66960270174577     
  -7.41834538990405       -7.16544848381602       -6.91703002652782     
  -6.66615065739416       -6.41597244304662       -6.16566275806621     
  -5.91539152905211       -5.66523730278299       -5.41513559005487     
  -5.16515381831343       -4.91527551977479       -4.66554008461859     
  -4.41595933683171       -4.16656653365093       -3.91738748665120     
  -3.66845242095059       -3.41976251505093     
  0.000000000000000E+000  0.000000000000000E+000  3.728358767250158E-004
  1.454025394034638E-003  3.287191529470875E-003  5.885595536589937E-003
  9.163076346584430E-003  1.326605780762122E-002  1.767395758758628E-002
  2.346169348322204E-002  2.809838231265705E-002  3.644726908992165E-002
  3.933407013989183E-002  5.267460066980260E-002  5.120361788970985E-002
  6.820076348449403E-002  7.470550374374121E-002  8.378563267677049E-002
  9.294323480233940E-002  0.101722614258064       0.110679598916768     
  0.119309361578366       0.127802542199463       0.135926315714071     
  0.143695663330850       0.151001002787627       0.157796835347932     
  0.164000153371551       0.169525016492241       0.174214226645870     
  0.177661628450765       0.290581825739480       0.290581825739480     
  0.290942693236726       0.289527036674625       0.286682753242488     
  0.282313145117904       0.276857752252963       0.269374959532057     
  0.262513121030182       0.250583407426732       0.245884397960580     
  0.224106104485160       0.231812330415664       0.187329013670521     
  0.216844185578833       0.164945014719113       0.164926081635948     
  0.145160111178959       0.128701419151936       0.113899449727028     
  9.721161830805830E-002  8.208079845515773E-002  6.658542359851491E-002
  5.198681736183970E-002  3.777839678800048E-002  2.438361426644291E-002
  1.173315313089832E-002  1.912577222659001E-005 -1.065710590954153E-002
 -1.999017611085200E-002 -2.712288905987830E-002   1.14543974346790     
   1.14543974346790        1.14556576477343        1.14554813685878     
   1.14550912711475        1.14541428477184        1.14531218211121     
   1.14506541503345        1.14499457594336        1.14436168794302     
   1.14479096587615        1.14278142890427        1.14572870829508     
   1.13878705148051        1.14765725813569        1.13763006149745     
   1.14271517875120        1.13963592974110        1.13938603168318     
   1.13839641732561        1.13748078441938        1.13646750141784     
   1.13542813939598        1.13435530180109        1.13326354416837     
   1.13216760045256        1.13108741617501        1.13005211496364     
   1.12910019255092        1.12828293147775        1.12765913899358     
   2.51489251828899        2.51489251828899        2.51494105625082     
   2.51494248216129        2.51494637079841        2.51494184687570     
   2.51494586016176        2.51491236019365        2.51494988888643     
   2.51480846320006        2.51504619205238        2.51444664054485     
   2.51563824036125        2.51318164428991        2.51666182694357     
   2.51312753460498        2.51524192755107        2.51432623970825     
   2.51444182616826        2.51434560099172        2.51427742193544     
   2.51419551671843        2.51411583143103        2.51403864691113     
   2.51396519169865        2.51389783333251        2.51383799616133     
   2.51378779864191        2.51374845554182        2.51372029720662     
   2.51369925733466        4.31935253268844        4.31935253268844     
   4.31937283410808        4.31937348270683        4.31937575459980     
   4.31937565265014        4.31937981757961        4.31937086286744     
   4.31939014791608        4.31934295908494        4.31944167934495     
   4.31922170066107        4.31969361733560        4.31874264047829     
   4.32011446681495        4.31876482258030        4.31960498727661     
   4.31927811402378        4.31933978016324        4.31933139456485     
   4.31933193555718        4.31933038441442        4.31933000072169     
   4.31933159057677        4.31933459237861        4.31933946262545     
   4.31934590477470        4.31935388922140        4.31936290500218     
   4.31937200558521        4.31937836903709        6.45395112957464     
   6.45395112957464        6.45395907777215        6.45395873570948     
   6.45395908705187        6.45395857906904        6.45395978744652     
   6.45395607585857        6.45396327346899        6.45394530263008     
   6.45398312809472        6.45389947783938        6.45408090746122     
   6.45371500928680        6.45424254703604        6.45373110428169     
   6.45405445443183        6.45393580109642        6.45396185088050     
   6.45396358730544        6.45396807067033        6.45397218199756     
   6.45397653797612        6.45398154306393        6.45398676451594     
   6.45399226472554        6.45399777194705        6.45400312612502     
   6.45400798756897        6.45401186469408        6.45401359840199     
   8.79463319744677        8.79463319744677        8.79463423983036     
   8.79463299931832        8.79463188985941        8.79463049281891     
   8.79462948499622        8.79462711985265        8.79462754487438     
   8.79462133431118        8.79462962400034        8.79460616739442     
   8.79465190358442        8.79455454806137        8.79469063077539     
   8.79455830298562        8.79464242783676        8.79461239082411     
   8.79461929536277        8.79462032625477        8.79462191669660     
   8.79462351572488        8.79462514740962        8.79462696658499     
   8.79462882450468        8.79463074160908        8.79463263538504     
   8.79463446338381        8.79463613763086        8.79463754101989     
   8.79463840806356        11.2053668025532        11.2053668025532     
   11.2053622480761        11.2053600036897        11.2053574160653     
   11.2053548812102        11.2053517144051        11.2053496337700     
   11.2053444717916        11.2053456867148        11.2053319900173     
   11.2053500491344        11.2052980036236        11.2053906781151     
   11.2052468479520        11.2053816253706        11.2052952549401     
   11.2053254992767        11.2053176331420        11.2053163789122     
   11.2053143387077        11.2053125920086        11.2053108700476     
   11.2053091774657        11.2053076157365        11.2053062276445     
   11.2053051056247        11.2053043349233        11.2053040380974     
   11.2053043905606        11.2053057755673        13.5460488704254     
   13.5460488704254        13.5460372834699        13.5460338235551     
   13.5460294097751        13.5460255377388        13.5460196104235     
   13.5460181971045        13.5460054403136        13.5460174052369     
   13.5459729327657        13.5460497766429        13.5458601099520     
   13.5462197481101        13.5456813160174        13.5461951691621     
   13.5458676402205        13.5459854162410        13.5459566539791     
   13.5459531428773        13.5459463754764        13.5459402768846     
   13.5459338446796        13.5459269340698        13.5459199080427     
   13.5459128265307        13.5459060018697        13.5458997035277     
   13.5458943787583        13.5458906848704        13.5458900718779     
   15.6806474673116        15.6806474673116        15.6806233619600     
   15.6806184860886        15.6806116700884        15.6806068047266     
   15.6805972080858        15.6806001375106        15.6805741878493     
   15.6806139803964        15.6805068641911        15.6807179885313     
   15.6802349955294        15.6811772076105        15.6797894142048     
   15.6811415685464        15.6802935935254        15.6806177320584     
   15.6805499077903        15.6805534336236        15.6805466675500     
   15.6805420640007        15.6805355178857        15.6805266464741     
   15.6805157416642        15.6805024867245        15.6804871273916     
   15.6804698131645        15.6804511904200        15.6804325352791     
   15.6804173768561        17.4851074817110        17.4851074817110     
   17.4850549652197        17.4850489968971        17.4850402511805     
   17.4850394396462        17.4850295620417        17.4850565260591     
   17.4850117271532        17.4851449721741        17.4848978973943     
   17.4854872646715        17.4842833802553        17.4867286651263     
   17.4832301075981        17.4867674571481        17.4846423584239     
   17.4855550418846        17.4854311218623        17.4855213992434     
   17.4855815265340        17.4856559300053        17.4857271962953     
   17.4857960352747        17.4858608698216        17.4859199177704     
   17.4859719568129        17.4860154924480        17.4860497951088     
   17.4860749257985        17.4860943999585        18.8545602565321     
   18.8545602565321        18.8544300383792        18.8544429721224     
   18.8544771082076        18.8545667170440        18.8546631658026     
   18.8549036723326        18.8549675932232        18.8555926534500     
   18.8551546762533        18.8571539557920        18.8541971293069     
   18.8611234310556        18.8522398591478        18.8622689604899     
   18.8571754126529        18.8602536447000        18.8604978851099     
   18.8614853816167        18.8623981483254        18.8634113835627     
   18.8644530335192        18.8655335186502        18.8666411222214     
   18.8677678200736        18.8689058133033        18.8700532546293     
   18.8712416096147        18.8726615416022        18.8757627732381     
   19.7094181742605        19.7094181742605        19.7090529571726     
   19.7104660926524        19.7133093166220        19.7176782799617     
   19.7231324550634        19.7306129099891        19.7374698875276     
   19.7493934630779        19.7540819145237        19.7758479728023     
   19.7681330170247        19.8125856529201        19.7830762692767     
   19.8349684031446        19.8349856080070        19.8547495149973     
   19.8712030680363        19.8860022573158        19.9026839468975     
   19.9178090846922        19.9332957296256        19.9478845201519     
   19.9620791386620        19.9754562344084        19.9880814238086     
   19.9997593662871        20.0103828198548        20.0196409088444     
   20.0266812349432        20.0000000000000        20.0000000000000     
   19.9996227992124        19.9985349333381        19.9966943169541     
   19.9940875421686        19.9908009253828        19.9866877521585     
   19.9822690411228        19.9764686720063        19.9718187714029     
   19.9634536609351        19.9605492677468        19.9471812279757     
   19.9486362370414        19.9316180992683        19.9250937526250     
   19.9159889564510        19.9068031188533        19.8979895125197     
   19.8889915801085        19.8803120043688        19.8717575220877     
   19.8635571718015        19.8556908034465        19.8482596272843     
   19.8412961739107        19.8348629993342        19.8290149011192     
   19.8238645847522        19.8197660917430     
 -6.536680706074363E-003 -6.536680706074363E-003  6.958606039948485E-005
  7.330200393810770E-003  1.490810724655657E-002  2.259711174952871E-002
  3.022023698374082E-002  3.768163073864769E-002  4.485914815849690E-002
  5.161637667254620E-002  5.827114612150958E-002  6.318017237484357E-002
  7.111346229606226E-002  7.168742911223150E-002  8.258493263278630E-002
  8.205308147735607E-002  8.558145000350066E-002  8.779427346004827E-002
  8.826779948553218E-002  8.867821638889362E-002  8.789730024013132E-002
  8.657716553391027E-002  8.436615179819726E-002  8.150058602947197E-002
  7.789937252270247E-002  7.367561475144983E-002  6.884409867722319E-002
  6.349257042732595E-002  5.770460950022569E-002  5.165928423025537E-002
  4.579458117671962E-002 -6.536680706074363E-003 -6.536680706074363E-003
 -2.632936321902538E-002 -4.499552832797399E-002 -6.275474685242716E-002
 -7.970893877579505E-002 -9.575293167175802E-002 -0.111056526941170     
 -0.125365643437832      -0.138164090190273      -0.152462076481849     
 -0.158795564981563      -0.178345729122499      -0.171772250064750     
 -0.194124779513872      -0.193735936367261      -0.205528039722611     
 -0.208536929242763      -0.211103510312674      -0.214097603014237     
 -0.214288103365238      -0.214300727392342      -0.212607009317445     
 -0.210325472265504      -0.206957755447996      -0.203005196529595     
 -0.198418464365614      -0.193516266167700      -0.188490727085619     
 -0.183792253710612      -0.180351506454770      -6.536680706074363E-003
 -6.536680706074363E-003 -2.008080366270928E-002 -3.208777118808453E-002
 -4.314239051861771E-002 -5.357054649035711E-002 -6.348872517644952E-002
 -7.310280973546304E-002 -8.229108282478370E-002 -9.141902439907565E-002
 -9.996853553978921E-002 -0.108697190600905      -0.116679516497217     
 -0.124784369225585      -0.124725798859071      -0.147339186840965     
 -0.149434643120420      -0.161026405424291      -0.167483818419108     
 -0.176609017755851      -0.184296117116412      -0.192641199850095     
 -0.200603906593739      -0.208697453760644      -0.216647812058341     
 -0.224558384822601      -0.232319953709545      -0.239892007234207     
 -0.247141878105828      -0.253895098389053      -0.259830011064516     