 Title = "Wing and Wake"
 VARIABLES = "X" "Y" "Z" "GAM"
 Zone I=    5 J=   14 K=1  T="Blade"
 DATAPACKING=BLOCK
 VARLOCATION=([4]=CELLCENTERED)
  -6.74619469809175       -6.49714602356881       -6.24809734904587     
  -5.99904867452294       -5.75000000000000       -6.74619469809175     
  -6.49714602356881       -6.24809734904587       -5.99904867452294     
  -5.75000000000000       -6.74619469809175       -6.49714602356881     
  -6.24809734904587       -5.99904867452294       -5.75000000000000     
  -6.74619469809175       -6.49714602356881       -6.24809734904587     
  -5.99904867452294       -5.75000000000000       -6.74619469809175     
  -6.49714602356881       -6.24809734904587       -5.99904867452294     
  -5.75000000000000       -6.74619469809175       -6.49714602356881     
  -6.24809734904587       -5.99904867452294       -5.75000000000000     
  -6.74619469809175       -6.49714602356881       -6.24809734904587     
  -5.99904867452294       -5.75000000000000       -6.74619469809175     
  -6.49714602356881       -6.24809734904587       -5.99904867452294     
  -5.75000000000000       -6.74619469809175       -6.49714602356881     
  -6.24809734904587       -5.99904867452294       -5.75000000000000     
  -6.74619469809175       -6.49714602356881       -6.24809734904587     
  -5.99904867452294       -5.75000000000000       -6.74619469809175     
  -6.49714602356881       -6.24809734904587       -5.99904867452294     
  -5.75000000000000       -6.74619469809175       -6.49714602356881     
  -6.24809734904587       -5.99904867452294       -5.75000000000000     
  -6.74619469809175       -6.49714602356881       -6.24809734904587     
  -5.99904867452294       -5.75000000000000       -6.74619469809175     
  -6.49714602356881       -6.24809734904587       -5.99904867452294     
  -5.75000000000000     
  0.000000000000000E+000  0.000000000000000E+000  0.000000000000000E+000
  0.000000000000000E+000  0.000000000000000E+000  0.290581825739480     
  0.290581825739480       0.290581825739480       0.290581825739480     
  0.290581825739480        1.14543974346790        1.14543974346790     
   1.14543974346790        1.14543974346790        1.14543974346790     
   2.51489251828899        2.51489251828899        2.51489251828899     
   2.51489251828899        2.51489251828899        4.31935253268844     
   4.31935253268844        4.31935253268844        4.31935253268844     
   4.31935253268844        6.45395112957464        6.45395112957464     
   6.45395112957464        6.45395112957464        6.45395112957464     
   8.79463319744677        8.79463319744677        8.79463319744677     
   8.79463319744677        8.79463319744677        11.2053668025532     
   11.2053668025532        11.2053668025532        11.2053668025532     
   11.2053668025532        13.5460488704254        13.5460488704254     
   13.5460488704254        13.5460488704254        13.5460488704254     
   15.6806474673116        15.6806474673116        15.6806474673116     
   15.6806474673116        15.6806474673116        17.4851074817110     
   17.4851074817110        17.4851074817110        17.4851074817110     
   17.4851074817110        18.8545602565321        18.8545602565321     
   18.8545602565321        18.8545602565321        18.8545602565321     
   19.7094181742605        19.7094181742605        19.7094181742605     
   19.7094181742605        19.7094181742605        20.0000000000000     
   20.0000000000000        20.0000000000000        20.0000000000000     
   20.0000000000000     
  8.715574274765817E-002  6.536680706074363E-002  4.357787137382908E-002
  2.178893568691454E-002  0.000000000000000E+000  8.715574274765817E-002
  6.536680706074363E-002  4.357787137382908E-002  2.178893568691454E-002
  0.000000000000000E+000  8.715574274765817E-002  6.536680706074363E-002
  4.357787137382908E-002  2.178893568691454E-002  0.000000000000000E+000
  8.715574274765817E-002  6.536680706074363E-002  4.357787137382908E-002
  2.178893568691454E-002  0.000000000000000E+000  8.715574274765817E-002
  6.536680706074363E-002  4.357787137382908E-002  2.178893568691454E-002
  0.000000000000000E+000  8.715574274765817E-002  6.536680706074363E-002
  4.357787137382908E-002  2.178893568691454E-002  0.000000000000000E+000
  8.715574274765817E-002  6.536680706074363E-002  4.357787137382908E-002
  2.178893568691454E-002  0.000000000000000E+000  8.715574274765817E-002
  6.536680706074363E-002  4.357787137382908E-002  2.178893568691454E-002
  0.000000000000000E+000  8.715574274765817E-002  6.536680706074363E-002
  4.357787137382908E-002  2.178893568691454E-002  0.000000000000000E+000
  8.715574274765817E-002  6.536680706074363E-002  4.357787137382908E-002
  2.178893568691454E-002  0.000000000000000E+000  8.715574274765817E-002
  6.536680706074363E-002  4.357787137382908E-002  2.178893568691454E-002
  0.000000000000000E+000  8.715574274765817E-002  6.536680706074363E-002
  4.357787137382908E-002  2.178893568691454E-002  0.000000000000000E+000
  8.715574274765817E-002  6.536680706074363E-002  4.357787137382908E-002
  2.178893568691454E-002  0.000000000000000E+000  8.715574274765817E-002
  6.536680706074363E-002  4.357787137382908E-002  2.178893568691454E-002
  0.000000000000000E+000
  0.721695316566129       0.969692283146221        1.10318532066915     
   1.17275331002827        1.03892164257371        1.45771418242498     
   1.69467331117816        1.81861291521362        1.20193598766706     
   1.70569929818097        2.00033513117743        2.15799452620796     
   1.27289644865084        1.81072147274342        2.12749475640772     
   2.29769609039447        1.30149880493347        1.85228811290994     
   2.17703711801605        2.35141030563847        1.31233159361170     
   1.86784892712415        2.19538314779735        2.37110119468011     
   1.31512515795405        1.87183902358324        2.20006200761924     
   2.37609719805821        1.31233159361170        1.86784892712415     
   2.19538314779735        2.37110119468012        1.30149880493347     
   1.85228811290994        2.17703711801605        2.35141030563847     
   1.27289644865084        1.81072147274342        2.12749475640772     
   2.29769609039448        1.20193598766706        1.70569929818097     
   2.00033513117743        2.15799452620796        1.03892164257371     
   1.45771418242498        1.69467331117816        1.81861291521362     
  0.721695316566129       0.969692283146221        1.10318532066915     
   1.17275331002827     
 Zone I=   24 J=   14 K=1  T="NearWake"
 DATAPACKING=BLOCK
 VARLOCATION=([4]=CELLCENTERED)
  -5.67528539764312       -5.42528539764312       -5.17474870769357     
  -4.92423540738488       -4.67373384143977       -4.42323881212651     
  -4.17280604591865       -3.92241853978273       -3.67211407972456     
  -3.42189953566192       -3.17180757909622       -2.92186559957813     
  -2.67211675272635       -2.42261231209981       -2.17342104036251     
  -1.92463030688666       -1.67635172915310       -1.42872094538485     
  -1.18188514245145      -0.935948023141063      -0.690754841541286     
 -0.445356537620350      -0.187175467499335       3.624723239680449E-002
  -5.67528539764312       -5.42528539764312       -5.17565802240181     
  -4.92542554852054       -4.67533259702593       -4.42509035960626     
  -4.17489818733992       -3.92467714644112       -3.67449510914604     
  -3.42433442293938       -3.17422581413325       -2.92417308561197     
  -2.67419743751558       -2.42431106762396       -2.17453069528170     
  -1.92486234402151       -1.67529182327016       -1.42574091240751     
  -1.17596351775890      -0.925254626801743      -0.671526325707019     
 -0.407036894173102      -8.621481990234015E-002  3.441373347923349E-002
  -5.67528539764312       -5.42528539764312       -5.17632785391818     
  -4.92666436770720       -4.67720577092971       -4.42754107476150     
  -4.17791755084521       -3.92822572233031       -3.67854309458760     
  -3.42883976994677       -3.17914264618951       -2.92944248676856     
  -2.67974532544642       -2.43003856903598       -2.18030228434524     
  -1.93048485196004       -1.68048009465435       -1.43005751052741     
  -1.17870219763254      -0.925170823736820      -0.666070455836146     
 -0.390265702340471      -2.247332515887530E-002 -2.517293933691643E-003
  -5.67528539764312       -5.42528539764312       -5.17632991161829     
  -4.92665961478164       -4.67719538517051       -4.42751971113942     
  -4.17788324162334       -3.92816840236345       -3.67845286066055     
  -3.42869916456524       -3.17893046106734       -2.92912881016774     
  -2.67929196601539       -2.42939526472564       -2.17940504840143     
  -1.92925237166314       -1.67881072655595       -1.42782438500320     
  -1.17574365365470      -0.921261556957957      -0.660822058817056     
 -0.382769113024772      -8.490469283361370E-003 -1.343094827920764E-002
  -5.67528539764312       -5.42528539764312       -5.17631905349091     
  -4.92662765081802       -4.67714037982411       -4.42743494204325     
  -4.17776789960673       -3.92801732808829       -3.67826382059838     
  -3.42846736414126       -3.17865224226264       -2.92879935552958     
  -2.67890706952398       -2.42895065411499       -2.17889729914152     
  -1.92867874587444       -1.67816918999441       -1.42711224408107     
  -1.17495401635264      -0.920374132187487      -0.659778391001960     
 -0.381383301935252      -5.993088710444027E-003 -1.658216337042103E-002
  -5.67528539764312       -5.42528539764312       -5.17631328120683     
  -4.92661048874777       -4.67711217581676       -4.42739210051278     
  -4.17771122123320       -3.92794517934808       -3.67817681861377     
  -3.42836516957999       -3.17853558047918       -2.92866874481613     
  -2.67876356477991       -2.42879534727216       -2.17873148584991     
  -1.92850359633020       -1.67798552049178       -1.42691991330567     
  -1.17475091815803      -0.920154033972347      -0.659525324369777     
 -0.381050321813411      -5.413312616068342E-003 -1.739432924204148E-002
  -5.67528539764312       -5.42528539764312       -5.17631131012763     
  -4.92660427297523       -4.67710233322058       -4.42737728344297     
  -4.17769205652698       -3.92792122338031       -3.67814855263288     
  -3.42833267254015       -3.17849930891398       -2.92862903005732     
  -2.67872086577342       -2.42875005738284       -2.17868397954317     
  -1.92845412100843       -1.67793413929289       -1.42686635556146     
  -1.17469434309093      -0.920092505108208      -0.659454389968638     
 -0.380957497826935      -5.252475090277004E-003 -1.760548890923717E-002
  -5.67528539764312       -5.42528539764312       -5.17631131012763     
  -4.92660427297523       -4.67710233322058       -4.42737728344297     
  -4.17769205652698       -3.92792122338031       -3.67814855263288     
  -3.42833267254015       -3.17849930891398       -2.92862903005732     
  -2.67872086577342       -2.42875005738284       -2.17868397954317     
  -1.92845412100843       -1.67793413929289       -1.42686635556146     
  -1.17469434309093      -0.920092505108208      -0.659454389968638     
 -0.380957497826934      -5.252475090277197E-003 -1.760548890923712E-002
  -5.67528539764312       -5.42528539764312       -5.17631328120683     
  -4.92661048874777       -4.67711217581676       -4.42739210051278     
  -4.17771122123320       -3.92794517934808       -3.67817681861377     
  -3.42836516957999       -3.17853558047918       -2.92866874481613     
  -2.67876356477991       -2.42879534727216       -2.17873148584991     
  -1.92850359633020       -1.67798552049178       -1.42691991330567     
  -1.17475091815803      -0.920154033972347      -0.659525324369777     
 -0.381050321813411      -5.413312616068302E-003 -1.739432924204151E-002
  -5.67528539764312       -5.42528539764312       -5.17631905349091     
  -4.92662765081802       -4.67714037982411       -4.42743494204325     
  -4.17776789960673       -3.92801732808829       -3.67826382059838     
  -3.42846736414126       -3.17865224226264       -2.92879935552958     
  -2.67890706952398       -2.42895065411499       -2.17889729914152     
  -1.92867874587444       -1.67816918999441       -1.42711224408107     
  -1.17495401635264      -0.920374132187487      -0.659778391001960     
 -0.381383301935252      -5.993088710444155E-003 -1.658216337042107E-002
  -5.67528539764312       -5.42528539764312       -5.17632991161829     
  -4.92665961478164       -4.67719538517051       -4.42751971113942     
  -4.17788324162334       -3.92816840236345       -3.67845286066055     
  -3.42869916456524       -3.17893046106734       -2.92912881016774     
  -2.67929196601539       -2.42939526472564       -2.17940504840143     
  -1.92925237166314       -1.67881072655595       -1.42782438500320     
  -1.17574365365470      -0.921261556957957      -0.660822058817056     
 -0.382769113024772      -8.490469283361632E-003 -1.343094827920779E-002
  -5.67528539764312       -5.42528539764312       -5.17632785391818     
  -4.92666436770720       -4.67720577092971       -4.42754107476150     
  -4.17791755084521       -3.92822572233031       -3.67854309458760     
  -3.42883976994677       -3.17914264618951       -2.92944248676856     
  -2.67974532544642       -2.43003856903598       -2.18030228434524     
  -1.93048485196004       -1.68048009465435       -1.43005751052741     
  -1.17870219763254      -0.925170823736820      -0.666070455836146     
 -0.390265702340471      -2.247332515887538E-002 -2.517293933691971E-003
  -5.67528539764312       -5.42528539764312       -5.17565802240181     
  -4.92542554852055       -4.67533259702593       -4.42509035960626     
  -4.17489818733992       -3.92467714644112       -3.67449510914604     
  -3.42433442293938       -3.17422581413325       -2.92417308561197     
  -2.67419743751558       -2.42431106762396       -2.17453069528171     
  -1.92486234402151       -1.67529182327016       -1.42574091240751     
  -1.17596351775890      -0.925254626801743      -0.671526325707018     
 -0.407036894173102      -8.621481990234105E-002  3.441373347923244E-002
  -5.67528539764312       -5.42528539764312       -5.17474870769357     
  -4.92423540738488       -4.67373384143977       -4.42323881212651     
  -4.17280604591865       -3.92241853978273       -3.67211407972456     
  -3.42189953566192       -3.17180757909622       -2.92186559957813     
  -2.67211675272635       -2.42261231209981       -2.17342104036251     
  -1.92463030688666       -1.67635172915310       -1.42872094538485     
  -1.18188514245145      -0.935948023141063      -0.690754841541285     
 -0.445356537620351      -0.187175467499335       3.624723239680578E-002
  0.000000000000000E+000  0.000000000000000E+000  5.812730185847619E-004
  2.186224065072706E-003  4.109325351891354E-003  6.842025253552163E-003
  1.003636894913399E-002  1.381233854916293E-002  1.800446297682575E-002
  2.257934413571073E-002  2.741274453738277E-002  3.240256825992246E-002
  3.740834063554966E-002  4.227625442291880E-002  4.682033286006548E-002
  5.082253887566181E-002  5.402185377120897E-002  5.611081356135408E-002
  5.674806251682018E-002  5.571529081271346E-002  5.321552250330191E-002
  5.239669330132148E-002  3.121119992537695E-002  4.282934502517442E-002
  0.290581825739480       0.290581825739480       0.291221369034575     
  0.287830909138452       0.285316181436044       0.280152384641596     
  0.274663637372499       0.267702986992740       0.260056685347997     
  0.251513219100662       0.242405197256460       0.232821957477580     
  0.223010401838434       0.213186840074016       0.203641589896764     
  0.194713772855593       0.186842858610732       0.180618327184713     
  0.176894489703582       0.177063745114269       0.183807110323703     
  0.203748549107977       0.236218771746640       0.312999401342298     
   1.14543974346790        1.14543974346790        1.14568600323555     
   1.14541221483810        1.14554372793707        1.14535589743620     
   1.14528027212928        1.14508575598669        1.14490030792042     
   1.14466228506940        1.14441248954109        1.14414197759976     
   1.14387246382154        1.14361646667026        1.14340031131361     
   1.14325544513857        1.14322698580839        1.14337455807688     
   1.14377722832082        1.14453914802480        1.14586243187012     
   1.14810880921500        1.14926173626811        1.15633418385771     
   2.51489251828899        2.51489251828899        2.51498722331239     
   2.51491071672410        2.51498599881236        2.51496443601052     
   2.51499188012401        2.51499316148006        2.51500924259849     
   2.51502080968764        2.51503992077037        2.51506301205322     
   2.51509468884363        2.51513551228442        2.51518798430645     
   2.51525330683452        2.51533281632323        2.51542740666054     
   2.51553893136581        2.51567254926265        2.51585111703201     
   2.51612360493644        2.51586542906474        2.51767811618096     
   4.31935253268844        4.31935253268844        4.31939237858448     
   4.31936924709847        4.31940259136715        4.31940233755998     
   4.31942030577816        4.31943029989028        4.31944598335778     
   4.31946055693921        4.31947740568468        4.31949472759727     
   4.31951314052866        4.31953189899918        4.31955076577538     
   4.31956913724704        4.31958656726954        4.31960271209056     
   4.31961775444592        4.31963281815945        4.31965275704253     
   4.31968733463827        4.31957677556317        4.32010751483519     
   6.45395112957464        6.45395112957464        6.45396746962777     
   6.45396045770984        6.45397381328900        6.45397513143844     
   6.45398268209579        6.45398730088421        6.45399358907180     
   6.45399918388958        6.45400512869996        6.45401076770837     
   6.45401624216679        6.45402128198008        6.45402580486384     
   6.45402964957365        6.45403273702702        6.45403504740665     
   6.45403673051038        6.45403819881342        6.45404089063406     
   6.45404756680100        6.45401031268515        6.45419334944871     
   8.79463319744677        8.79463319744677        8.79463760921302     
   8.79463599952783        8.79463951005807        8.79463996341456     
   8.79464192272830        8.79464311168861        8.79464465844032     
   8.79464598456055        8.79464734244391        8.79464857663030     
   8.79464972523844        8.79465073120625        8.79465158432052     
   8.79465225791319        8.79465274586727        8.79465305614815     
   8.79465323498789        8.79465338693271        8.79465385257756     
   8.79465528275045        8.79464641920859        8.79469265243847     
   11.2053668025532        11.2053668025532        11.2053623907870     
   11.2053640004722        11.2053604899419        11.2053600365854     
   11.2053580772717        11.2053568883114        11.2053553415597     
   11.2053540154394        11.2053526575561        11.2053514233697     
   11.2053502747616        11.2053492687937        11.2053484156795     
   11.2053477420868        11.2053472541327        11.2053469438518     
   11.2053467650121        11.2053466130673        11.2053461474224     
   11.2053447172495        11.2053535807914        11.2053073475615     
   13.5460488704254        13.5460488704254        13.5460325303722     
   13.5460395422902        13.5460261867110        13.5460248685616     
   13.5460173179042        13.5460126991158        13.5460064109282     
   13.5460008161104        13.5459948713000        13.5459892322916     
   13.5459837578332        13.5459787180199        13.5459741951362     
   13.5459703504263        13.5459672629730        13.5459649525934     
   13.5459632694896        13.5459618011866        13.5459591093659     
   13.5459524331990        13.5459896873149        13.5458066505513     
   15.6806474673116        15.6806474673116        15.6806076214155     
   15.6806307529015        15.6805974086328        15.6805976624400     
   15.6805796942218        15.6805697001097        15.6805540166422     
   15.6805394430608        15.6805225943153        15.6805052724027     
   15.6804868594713        15.6804681010008        15.6804492342246     
   15.6804308627530        15.6804134327305        15.6803972879094     
   15.6803822455541        15.6803671818406        15.6803472429575     
   15.6803126653617        15.6804232244368        15.6798924851648     
   17.4851074817110        17.4851074817110        17.4850127766876     
   17.4850892832759        17.4850140011876        17.4850355639895     
   17.4850081198760        17.4850068385199        17.4849907574015     
   17.4849791903124        17.4849600792296        17.4849369879468     
   17.4849053111564        17.4848644877156        17.4848120156935     
   17.4847466931655        17.4846671836768        17.4845725933395     
   17.4844610686342        17.4843274507374        17.4841488829680     
   17.4838763950636        17.4841345709353        17.4823218838190     
   18.8545602565321        18.8545602565321        18.8543139967644     
   18.8545877851619        18.8544562720629        18.8546441025638     
   18.8547197278707        18.8549142440133        18.8550996920796     
   18.8553377149306        18.8555875104589        18.8558580224002     
   18.8561275361785        18.8563835333297        18.8565996886864     
   18.8567445548614        18.8567730141916        18.8566254419231     
   18.8562227716792        18.8554608519752        18.8541375681299     
   18.8518911907850        18.8507382637319        18.8436658161423     
   19.7094181742605        19.7094181742605        19.7087786309654     
   19.7121690908615        19.7146838185640        19.7198476153584     
   19.7253363626275        19.7322970130073        19.7399433146520     
   19.7484867808993        19.7575948027435        19.7671780425224     
   19.7769895981616        19.7868131599260        19.7963584101032     
   19.8052862271444        19.8131571413893        19.8193816728153     
   19.8231055102964        19.8229362548857        19.8161928896763     
   19.7962514508920        19.7637812282534        19.6870005986577     
   20.0000000000000        20.0000000000000        19.9994187269814     
   19.9978137759349        19.9958906746481        19.9931579747464     
   19.9899636310509        19.9861876614508        19.9819955370232     
   19.9774206558643        19.9725872554626        19.9675974317401     
   19.9625916593645        19.9577237455771        19.9531796671399     
   19.9491774611243        19.9459781462288        19.9438891864386     
   19.9432519374832        19.9442847091873        19.9467844774967     
   19.9476033066987        19.9687888000746        19.9571706549748     
 -6.536680706074363E-003 -6.536680706074363E-003  1.316811559101894E-003
  5.990065343698310E-003  1.249172859924220E-002  1.799103862469216E-002
  2.366060701585694E-002  2.870327989666629E-002  3.334040345917461E-002
  3.729606520606883E-002  4.055585160998265E-002  4.298130317966335E-002
  4.449940617058041E-002  4.500450269288681E-002  4.440091972437845E-002
  4.257402011110625E-002  3.939217119367212E-002  3.468805190652811E-002
  2.824275660771026E-002  1.976960515988675E-002  8.745428907031881E-003
 -8.858293429687870E-003 -2.913075267594969E-002  6.307275305984950E-002
 -6.536680706074363E-003 -6.536680706074363E-003 -3.618646794266712E-002
 -4.927356178717941E-002 -6.956783826139223E-002 -8.505072555280847E-002
 -0.101964073043054      -0.117041716984844      -0.131979573253499     
 -0.145863116149099      -0.159164874870847      -0.171652480412458     
 -0.183496063410400      -0.194695536204923      -0.205388060057104     
 -0.215693003084076      -0.225793208476801      -0.235875528529456     
 -0.246080726123916      -0.256328153782733      -0.265409662736007     
 -0.269377209896530      -0.237467351140058      -2.273350247243217E-002
 -6.536680706074363E-003 -6.536680706074363E-003 -2.743660565379590E-002
 -3.574579350907175E-002 -4.910510428410653E-002 -5.913302751241940E-002
 -7.029376763482277E-002 -8.052931160937470E-002 -9.100178740515298E-002
 -0.101232945236298      -0.111552923073594      -0.121880373469466     
 -0.132340028708671      -0.142957062845478      -0.153813524673966     
 -0.164970217274338      -0.176499903019532      -0.188444734215824     
 -0.200751966758747      -0.213017542862156      -0.223604560714933     
 -0.225727268541011      -0.180441113947053       5.190989286598008E-002
 -6.536680706074363E-003 -6.536680706074363E-003 -2.581004983388509E-002
 -3.282494728232306E-002 -4.444682691690047E-002 -5.278630050099680E-002
 -6.214360710931392E-002 -7.060105224442179E-002 -7.929865754055257E-002
 -8.780960692808623E-002 -9.647488845642890E-002 -0.105241677354731     
 -0.114253115919586      -0.123556335897305      -0.133251032585504     
 -0.143411823940170      -0.154114356297352      -0.165383111561798     
 -0.177108401706280      -0.188758374899868      -0.198439995691587     
 -0.198731362430312      -0.145443514837958       8.227961211106220E-002
 -6.536680706074363E-003 -6.536680706074363E-003 -2.526312149141482E-002
 -3.180652643497823E-002 -4.279812055901214E-002 -5.050230225570630E-002
 -5.917431685302726E-002 -6.694076789400712E-002 -7.493902320824979E-002
 -8.275914186738120E-002 -9.074739458427916E-002 -9.885955900795641E-002
 -0.107243701678821      -0.115951205875999      -0.125083683597822     
 -0.134715727539602      -0.144920660596720      -0.155718599548070     
 -0.166993974882294      -0.178208090500648      -0.187459416334030     
 -0.187284811842572      -0.132316815958683       9.392947863654247E-002
 -6.536680706074363E-003 -6.536680706074363E-003 -2.506023858747370E-002
 -3.142892263590584E-002 -4.218754535159322E-002 -4.965636449724607E-002
 -5.807385697302512E-002 -6.558213813554409E-002 -7.331727464004639E-002
 -8.087495995090277E-002 -8.860310456955724E-002 -9.646039106097799E-002
 -0.104596752159450      -0.113065549967815      -0.121970098330923     
 -0.131386714417519      -0.141390493489265      -0.152003484570886     
 -0.163112203462542      -0.174179901859315      -0.183305807429762     
 -0.183017429970102      -0.127645237663200       9.822209905710251E-002
 -6.536680706074363E-003 -6.536680706074363E-003 -2.498977430073068E-002
 -3.129876720133504E-002 -4.197786434074796E-002 -4.936681324251140E-002
 -5.769801870263509E-002 -6.511890563226898E-002 -7.276496152386767E-002
 -8.023377560893927E-002 -8.787378928588847E-002 -9.564470677558287E-002
 -0.103697160391046      -0.112085290382790      -0.120913113686867     
 -0.130257657999106      -0.140194709820098      -0.150746989237254     
 -0.161801618205555      -0.172822269114704      -0.181908063445224     
 -0.181583427919697      -0.126097570157828       9.967279556944254E-002
 -6.536680706074363E-003 -6.536680706074363E-003 -2.498977430073064E-002
 -3.129876720133511E-002 -4.197786434074800E-002 -4.936681324251130E-002
 -5.769801870263525E-002 -6.511890563226917E-002 -7.276496152386763E-002
 -8.023377560893935E-002 -8.787378928588852E-002 -9.564470677558284E-002
 -0.103697160391046      -0.112085290382790      -0.120913113686867     
 -0.130257657999106      -0.140194709820099      -0.150746989237254     
 -0.161801618205555      -0.172822269114705      -0.181908063445224     
 -0.181583427919697      -0.126097570157828       9.967279556944264E-002
 -6.536680706074363E-003 -6.536680706074363E-003 -2.506023858747377E-002
 -3.142892263590587E-002 -4.218754535159312E-002 -4.965636449724603E-002
 -5.807385697302519E-002 -6.558213813554424E-002 -7.331727464004635E-002
 -8.087495995090267E-002 -8.860310456955733E-002 -9.646039106097813E-002
 -0.104596752159450      -0.113065549967814      -0.121970098330923     
 -0.131386714417519      -0.141390493489264      -0.152003484570886     
 -0.163112203462542      -0.174179901859316      -0.183305807429762     
 -0.183017429970102      -0.127645237663200       9.822209905710252E-002
 -6.536680706074363E-003 -6.536680706074363E-003 -2.526312149141485E-002
 -3.180652643497823E-002 -4.279812055901216E-002 -5.050230225570644E-002
 -5.917431685302724E-002 -6.694076789400706E-002 -7.493902320824965E-002
 -8.275914186738104E-002 -9.074739458427952E-002 -9.885955900795672E-002
 -0.107243701678821      -0.115951205875999      -0.125083683597822     
 -0.134715727539602      -0.144920660596720      -0.155718599548070     
 -0.166993974882294      -0.178208090500649      -0.187459416334030     
 -0.187284811842572      -0.132316815958683       9.392947863654254E-002
 -6.536680706074363E-003 -6.536680706074363E-003 -2.581004983388505E-002
 -3.282494728232296E-002 -4.444682691690049E-002 -5.278630050099684E-002
 -6.214360710931400E-002 -7.060105224442180E-002 -7.929865754055260E-002
 -8.780960692808637E-002 -9.647488845642924E-002 -0.105241677354731     
 -0.114253115919586      -0.123556335897305      -0.133251032585504     
 -0.143411823940169      -0.154114356297352      -0.165383111561798     
 -0.177108401706280      -0.188758374899868      -0.198439995691587     
 -0.198731362430313      -0.145443514837958       8.227961211106238E-002
 -6.536680706074363E-003 -6.536680706074363E-003 -2.743660565379587E-002
 -3.574579350907174E-002 -4.910510428410644E-002 -5.913302751241928E-002
 -7.029376763482272E-002 -8.052931160937478E-002 -9.100178740515308E-002
 -0.101232945236298      -0.111552923073594      -0.121880373469466     
 -0.132340028708671      -0.142957062845478      -0.153813524673966     
 -0.164970217274338      -0.176499903019531      -0.188444734215824     
 -0.200751966758747      -0.213017542862157      -0.223604560714934     
 -0.225727268541012      -0.180441113947053       5.190989286598033E-002