 Title = "Wing and Wake"
 VARIABLES = "X" "Y" "Z" "GAM"
 Zone I=    5 J=   14 K=1  T="Blade"
 DATAPACKING=BLOCK
 VARLOCATION=([4]=CELLCENTERED)
  -5.24619469809175       -4.99714602356881       -4.74809734904587     
  -4.49904867452294       -4.25000000000000       -5.24619469809175     
  -4.99714602356881       -4.74809734904587       -4.49904867452294     
  -4.25000000000000       -5.24619469809175       -4.99714602356881     
  -4.74809734904587       -4.49904867452294       -4.25000000000000     
  -5.24619469809175       -4.99714602356881       -4.74809734904587     
  -4.49904867452294       -4.25000000000000       -5.24619469809175     
  -4.99714602356881       -4.74809734904587       -4.49904867452294     
  -4.25000000000000       -5.24619469809175       -4.99714602356881     
  -4.74809734904587       -4.49904867452294       -4.25000000000000     
  -5.24619469809175       -4.99714602356881       -4.74809734904587     
  -4.49904867452294       -4.25000000000000       -5.24619469809175     
  -4.99714602356881       -4.74809734904587       -4.49904867452294     
  -4.25000000000000       -5.24619469809175       -4.99714602356881     
  -4.74809734904587       -4.49904867452294       -4.25000000000000     
  -5.24619469809175       -4.99714602356881       -4.74809734904587     
  -4.49904867452294       -4.25000000000000       -5.24619469809175     
  -4.99714602356881       -4.74809734904587       -4.49904867452294     
  -4.25000000000000       -5.24619469809175       -4.99714602356881     
  -4.74809734904587       -4.49904867452294       -4.25000000000000     
  -5.24619469809175       -4.99714602356881       -4.74809734904587     
  -4.49904867452294       -4.25000000000000       -5.24619469809175     
  -4.99714602356881       -4.74809734904587       -4.49904867452294     
  -4.25000000000000     
  0.000000000000000E+000  0.000000000000000E+000  0.000000000000000E+000
  0.000000000000000E+000  0.000000000000000E+000  0.290581825739480     
  0.290581825739480       0.290581825739480       0.290581825739480     
  0.290581825739480        1.14543974346790        1.14543974346790     
   1.14543974346790        1.14543974346790        1.14543974346790     
   2.51489251828899        2.51489251828899        2.51489251828899     
   2.51489251828899        2.51489251828899        4.31935253268844     
   4.31935253268844        4.31935253268844        4.31935253268844     
   4.31935253268844        6.45395112957464        6.45395112957464     
   6.45395112957464        6.45395112957464        6.45395112957464     
   8.79463319744677        8.79463319744677        8.79463319744677     
   8.79463319744677        8.79463319744677        11.2053668025532     
   11.2053668025532        11.2053668025532        11.2053668025532     
   11.2053668025532        13.5460488704254        13.5460488704254     
   13.5460488704254        13.5460488704254        13.5460488704254     
   15.6806474673116        15.6806474673116        15.6806474673116     
   15.6806474673116        15.6806474673116        17.4851074817110     
   17.4851074817110        17.4851074817110        17.4851074817110     
   17.4851074817110        18.8545602565321        18.8545602565321     
   18.8545602565321        18.8545602565321        18.8545602565321     
   19.7094181742605        19.7094181742605        19.7094181742605     
   19.7094181742605        19.7094181742605        20.0000000000000     
   20.0000000000000        20.0000000000000        20.0000000000000     
   20.0000000000000     
  8.715574274765817E-002  6.536680706074363E-002  4.357787137382908E-002
  2.178893568691454E-002  0.000000000000000E+000  8.715574274765817E-002
  6.536680706074363E-002  4.357787137382908E-002  2.178893568691454E-002
  0.000000000000000E+000  8.715574274765817E-002  6.536680706074363E-002
  4.357787137382908E-002  2.178893568691454E-002  0.000000000000000E+000
  8.715574274765817E-002  6.536680706074363E-002  4.357787137382908E-002
  2.178893568691454E-002  0.000000000000000E+000  8.715574274765817E-002
  6.536680706074363E-002  4.357787137382908E-002  2.178893568691454E-002
  0.000000000000000E+000  8.715574274765817E-002  6.536680706074363E-002
  4.357787137382908E-002  2.178893568691454E-002  0.000000000000000E+000
  8.715574274765817E-002  6.536680706074363E-002  4.357787137382908E-002
  2.178893568691454E-002  0.000000000000000E+000  8.715574274765817E-002
  6.536680706074363E-002  4.357787137382908E-002  2.178893568691454E-002
  0.000000000000000E+000  8.715574274765817E-002  6.536680706074363E-002
  4.357787137382908E-002  2.178893568691454E-002  0.000000000000000E+000
  8.715574274765817E-002  6.536680706074363E-002  4.357787137382908E-002
  2.178893568691454E-002  0.000000000000000E+000  8.715574274765817E-002
  6.536680706074363E-002  4.357787137382908E-002  2.178893568691454E-002
  0.000000000000000E+000  8.715574274765817E-002  6.536680706074363E-002
  4.357787137382908E-002  2.178893568691454E-002  0.000000000000000E+000
  8.715574274765817E-002  6.536680706074363E-002  4.357787137382908E-002
  2.178893568691454E-002  0.000000000000000E+000  8.715574274765817E-002
  6.536680706074363E-002  4.357787137382908E-002  2.178893568691454E-002
  0.000000000000000E+000
  0.707493473797369       0.948841661544877        1.07732190395550     
   1.14276104921375        1.01600037302494        1.42306721914497     
   1.65108822415221        1.76774687130842        1.17008998411890     
   1.65723081591009        1.93902917244051        2.08617081947623     
   1.23325742895486        1.75038793147641        2.05121658488834     
   2.20843305002443        1.25671018264018        1.78425033998701     
   2.09122730882694        2.25129218411635        1.26498867883843     
   1.79604684907903        2.10499384932590        2.26586620772044     
   1.26704726238165        1.79896265382467        2.10837745496142     
   2.26942934601453        1.26498867883843        1.79604684907904     
   2.10499384932590        2.26586620772045        1.25671018264018     
   1.78425033998701        2.09122730882694        2.25129218411635     
   1.23325742895486        1.75038793147641        2.05121658488834     
   2.20843305002443        1.17008998411890        1.65723081591009     
   1.93902917244051        2.08617081947623        1.01600037302494     
   1.42306721914497        1.65108822415221        1.76774687130842     
  0.707493473797369       0.948841661544877        1.07732190395550     
   1.14276104921375     
 Zone I=   18 J=   14 K=1  T="NearWake"
 DATAPACKING=BLOCK
 VARLOCATION=([4]=CELLCENTERED)
  -4.17528539764312       -3.92528539764312       -3.67480630579540     
  -3.42436160831293       -3.17396322045449       -2.92361056942274     
  -2.67337488537614       -2.42325843448395       -2.17332513552511     
  -1.92361782355199       -1.67421723597987       -1.42521353639090     
  -1.17672446742839      -0.928864621595805      -0.681654021394288     
 -0.434638411537583      -0.181243192107109       5.477171096086684E-002
  -4.17528539764312       -3.92528539764312       -3.67575624732708     
  -3.42558899057899       -3.17563127320263       -2.92551784427311     
  -2.67551227993830       -2.42549875165733       -2.17558068035200     
  -1.92572189041003       -1.67595933610431       -1.42624694374075     
  -1.17648481331676      -0.926292210975318      -0.674434892329028     
 -0.416102142308387      -0.123122546795203       5.375828802744018E-002
  -4.17528539764312       -3.92528539764312       -3.67637436236350     
  -3.42671294459077       -3.17731102010891       -2.92767285729397     
  -2.67810843885378       -2.42845598204307       -2.17881536420605     
  -1.92910912440241       -1.67932902236601       -1.42934278161226     
  -1.17890872817791      -0.927376058484300      -0.672931429397150     
 -0.409273812708975      -9.316016917464233E-002  3.304346173883915E-002
  -4.17528539764312       -3.92528539764312       -3.67636374827174     
  -3.42667492602360       -3.17724461510877       -2.92755654250834     
  -2.67793132154613       -2.42818672832274       -2.17842413668865     
  -1.92854863155435       -1.67854506838050       -1.42826381454301     
  -1.17744751432124      -0.925413160718502      -0.670269523843977     
 -0.405464183984616      -8.490685157366237E-002  2.728608681829002E-002
  -4.17528539764312       -3.92528539764312       -3.67634709307076     
  -3.42662953056118       -3.17717158930912       -2.92744577187356     
  -2.67778469145731       -2.42799814654673       -2.17819411422671     
  -1.92827416762333       -1.67822619531076       -1.42789874055003     
  -1.17703348706930      -0.924940465605992      -0.669711247996809     
 -0.404741811768570      -8.336054302193444E-002  2.572552509817767E-002
  -4.17528539764312       -3.92528539764312       -3.67634072806980     
  -3.42661094515028       -3.17714328547088       -2.92740383996644     
  -2.67773155097144       -2.42793257350053       -2.17811781502395     
  -1.92818731853337       -1.67812988789135       -1.42779310889212     
  -1.17691809804854      -0.924812809777631      -0.669564647090210     
 -0.404557693131401      -8.298466277447460E-002  2.534340081375062E-002
  -4.17528539764312       -3.92528539764312       -3.67633906222090     
  -3.42660531422333       -3.17713495550370       -2.92739144610204     
  -2.67771604476881       -2.42791355936163       -2.17809584365096     
  -1.92816239466220       -1.67810226412453       -1.42776272430138     
  -1.17688472472407      -0.924775660277223      -0.669521840358913     
 -0.404504189336671      -8.287820321361068E-002  2.524721314499564E-002
  -4.17528539764312       -3.92528539764312       -3.67633906222090     
  -3.42660531422333       -3.17713495550370       -2.92739144610204     
  -2.67771604476881       -2.42791355936163       -2.17809584365096     
  -1.92816239466220       -1.67810226412453       -1.42776272430138     
  -1.17688472472407      -0.924775660277223      -0.669521840358913     
 -0.404504189336671      -8.287820321361081E-002  2.524721314499568E-002
  -4.17528539764312       -3.92528539764312       -3.67634072806980     
  -3.42661094515028       -3.17714328547088       -2.92740383996644     
  -2.67773155097144       -2.42793257350053       -2.17811781502395     
  -1.92818731853337       -1.67812988789135       -1.42779310889212     
  -1.17691809804854      -0.924812809777631      -0.669564647090210     
 -0.404557693131401      -8.298466277447455E-002  2.534340081375063E-002
  -4.17528539764312       -3.92528539764312       -3.67634709307076     
  -3.42662953056118       -3.17717158930912       -2.92744577187356     
  -2.67778469145731       -2.42799814654673       -2.17819411422671     
  -1.92827416762333       -1.67822619531076       -1.42789874055003     
  -1.17703348706930      -0.924940465605992      -0.669711247996809     
 -0.404741811768570      -8.336054302193446E-002  2.572552509817765E-002
  -4.17528539764312       -3.92528539764312       -3.67636374827174     
  -3.42667492602360       -3.17724461510877       -2.92755654250834     
  -2.67793132154613       -2.42818672832274       -2.17842413668865     
  -1.92854863155435       -1.67854506838050       -1.42826381454301     
  -1.17744751432124      -0.925413160718502      -0.670269523843977     
 -0.405464183984616      -8.490685157366255E-002  2.728608681828997E-002
  -4.17528539764312       -3.92528539764312       -3.67637436236350     
  -3.42671294459077       -3.17731102010891       -2.92767285729397     
  -2.67810843885378       -2.42845598204307       -2.17881536420605     
  -1.92910912440241       -1.67932902236601       -1.42934278161226     
  -1.17890872817791      -0.927376058484300      -0.672931429397150     
 -0.409273812708975      -9.316016917464238E-002  3.304346173883894E-002
  -4.17528539764312       -3.92528539764312       -3.67575624732708     
  -3.42558899057899       -3.17563127320263       -2.92551784427311     
  -2.67551227993830       -2.42549875165733       -2.17558068035200     
  -1.92572189041003       -1.67595933610431       -1.42624694374075     
  -1.17648481331676      -0.926292210975318      -0.674434892329028     
 -0.416102142308387      -0.123122546795204       5.375828802743958E-002
  -4.17528539764312       -3.92528539764312       -3.67480630579540     
  -3.42436160831293       -3.17396322045449       -2.92361056942274     
  -2.67337488537614       -2.42325843448395       -2.17332513552511     
  -1.92361782355199       -1.67421723597987       -1.42521353639090     
  -1.17672446742839      -0.928864621595805      -0.681654021394287     
 -0.434638411537584      -0.181243192107109       5.477171096086746E-002
  0.000000000000000E+000  0.000000000000000E+000  5.480928485877246E-004
  1.976690916672327E-003  3.705171073641992E-003  6.081511844294661E-003
  8.791359479231559E-003  1.186569746136659E-002  1.510337890179897E-002
  1.837769677569586E-002  2.146870775929059E-002  2.413620912925377E-002
  2.608578872882283E-002  2.703161832011563E-002  2.682724345050530E-002
  2.683695667079897E-002  1.656363793410990E-002  2.271352937444731E-002
  0.290581825739480       0.290581825739480       0.291183741698447     
  0.287979179181851       0.285671629889028       0.280954116743489     
  0.276079199474780       0.270040264115242       0.263669408729723     
  0.256898311608993       0.250217762669090       0.243976503685208     
  0.238823762734512       0.235667399708598       0.236208418519873     
  0.244108108858171       0.258238450318695       0.302953486061181     
   1.14543974346790        1.14543974346790        1.14567426849309     
   1.14542383288540        1.14555973186902        1.14540749243566     
   1.14537288365980        1.14524983490091        1.14516448877376     
   1.14507460561289        1.14503431298225        1.14506010096620     
   1.14520074558369        1.14550984983412        1.14608467798581     
   1.14717833451053        1.14765244399651        1.15070006521317     
   2.51489251828899        2.51489251828899        2.51498277105685     
   2.51492240291414        2.51499852712282        2.51499354342922     
   2.51503395337944        2.51505613761356        2.51509434093025     
   2.51513260222066        2.51517975939705        2.51523206308365     
   2.51529194350659        2.51536175177575        2.51545439368078     
   2.51561178202100        2.51554577294128        2.51623414345992     
   4.31935253268844        4.31935253268844        4.31938829151928     
   4.31937248744188        4.31940235470117        4.31940584064758     
   4.31942318459690        4.31943417531032        4.31944861857442     
   4.31946131375433        4.31947428719569        4.31948616522492     
   4.31949743232637        4.31950859589313        4.31952246852098     
   4.31954786288934        4.31951515821861        4.31971470921481     
   6.45395112957464        6.45395112957464        6.45396444051575     
   6.45395985638681        6.45397025383331        6.45397172432747     
   6.45397732906630        6.45398061916566        6.45398466805617     
   6.45398790210766        6.45399097515080        6.45399353547298     
   6.45399578796050        6.45399793279916        6.45400080372891     
   6.45400694450472        6.45399577319299        6.45406539583731     
   8.79463319744677        8.79463319744677        8.79463657310880     
   8.79463550937458        8.79463803926967        8.79463837949909     
   8.79463966825459        8.79464037690641        8.79464123878499     
   8.79464189351557        8.79464250292432        8.79464299492808     
   8.79464342542981        8.79464384770294        8.79464446024139     
   8.79464586568449        8.79464320814414        8.79466087442844     
   11.2053668025532        11.2053668025532        11.2053634268912     
   11.2053644906254        11.2053619607303        11.2053616205009     
   11.2053603317454        11.2053596230936        11.2053587612150     
   11.2053581064844        11.2053574970757        11.2053570050719     
   11.2053565745702        11.2053561522971        11.2053555397586     
   11.2053541343155        11.2053567918559        11.2053391255716     
   13.5460488704254        13.5460488704254        13.5460355594842     
   13.5460401436132        13.5460297461667        13.5460282756725     
   13.5460226709337        13.5460193808343        13.5460153319438     
   13.5460120978923        13.5460090248492        13.5460064645270     
   13.5460042120395        13.5460020672008        13.5459991962711     
   13.5459930554953        13.5460042268070        13.5459346041627     
   15.6806474673116        15.6806474673116        15.6806117084807     
   15.6806275125581        15.6805976452988        15.6805941593524     
   15.6805768154031        15.6805658246897        15.6805513814256     
   15.6805386862457        15.6805257128043        15.6805138347751     
   15.6805025676736        15.6804914041069        15.6804775314790     
   15.6804521371107        15.6804848417814        15.6802852907852     
   17.4851074817110        17.4851074817110        17.4850172289431     
   17.4850775970859        17.4850014728772        17.4850064565708     
   17.4849660466206        17.4849438623864        17.4849056590697     
   17.4848673977793        17.4848202406029        17.4847679369163     
   17.4847080564934        17.4846382482243        17.4845456063192     
   17.4843882179790        17.4844542270587        17.4837658565401     
   18.8545602565321        18.8545602565321        18.8543257315069     
   18.8545761671146        18.8544402681310        18.8545925075643     
   18.8546271163402        18.8547501650991        18.8548355112262     
   18.8549253943871        18.8549656870177        18.8549398990338     
   18.8547992544163        18.8544901501659        18.8539153220142     
   18.8528216654895        18.8523475560035        18.8492999347868     
   19.7094181742605        19.7094181742605        19.7088162583016     
   19.7120208208181        19.7143283701110        19.7190458832565     
   19.7239208005252        19.7299597358848        19.7363305912703     
   19.7431016883910        19.7497822373309        19.7560234963148     
   19.7611762372655        19.7643326002914        19.7637915814801     
   19.7558918911418        19.7417615496813        19.6970465139388     
   20.0000000000000        20.0000000000000        19.9994519071514     
   19.9980233090833        19.9962948289264        19.9939184881557     
   19.9912086405208        19.9881343025386        19.9848966210982     
   19.9816223032243        19.9785312922407        19.9758637908708     
   19.9739142112712        19.9729683816799        19.9731727565495     
   19.9731630433292        19.9834363620659        19.9772864706256     
 -6.536680706074363E-003 -6.536680706074363E-003  2.883428361359795E-004
  4.274930128326171E-003  9.633973305251087E-003  1.394270794585061E-002
  1.808661066763357E-002  2.136367965329244E-002  2.384838525374138E-002
  2.522957320750282E-002  2.534977886590125E-002  2.393054794730753E-002
  2.066821478136142E-002  1.514921708654088E-002  6.703673589469444E-003
 -6.233808335784612E-003 -2.343948928423293E-002  4.419216797091996E-002
 -6.536680706074363E-003 -6.536680706074363E-003 -3.608903638955657E-002
 -4.916456084170602E-002 -6.940584189048919E-002 -8.489976322259452E-002
 -0.101828508060018      -0.116995465593246      -0.132080533958886     
 -0.146223218973847      -0.159903186145701      -0.172908400845673     
 -0.185353346684776      -0.197006437062321      -0.207188928585429     
 -0.213016607668719      -0.198233679582205      -1.710907431567212E-002
 -6.536680706074363E-003 -6.536680706074363E-003 -2.769270438687524E-002
 -3.622293035634828E-002 -4.992824447042975E-002 -6.035245256516920E-002
 -7.202129774086478E-002 -8.287100581681842E-002 -9.410355625907411E-002
 -0.105263570205205      -0.116720975096422      -0.128420227541120     
 -0.140476078388636      -0.152732922628851      -0.164461416851758     
 -0.172146985490895      -0.160697941078165       4.232919378547111E-002
 -6.536680706074363E-003 -6.536680706074363E-003 -2.622272837331097E-002
 -3.358364801870644E-002 -4.575261351723927E-002 -5.471178215966265E-002
 -6.486180555664012E-002 -7.426627106586546E-002 -8.412144853344465E-002
 -9.401936494983727E-002 -0.104340441407291      -0.115037357066367     
 -0.126200937076947      -0.137605846513801      -0.148369180185764     
 -0.154640205562866      -0.140538539073076       6.547293291149862E-002
 -6.536680706074363E-003 -6.536680706074363E-003 -2.576630240602253E-002
 -3.272513304522104E-002 -4.436869044410052E-002 -5.280133955320118E-002
 -6.239392321579605E-002 -7.124379192398975E-002 -8.054656549518951E-002
 -8.990471447131793E-002 -9.970027968337947E-002 -0.109887674054219     
 -0.120556646298636      -0.131479725451527      -0.141770249405386     
 -0.147561616201848      -0.132856725034464       7.359054604269544E-002
 -6.536680706074363E-003 -6.536680706074363E-003 -2.560407614755262E-002
 -3.241935957733774E-002 -4.387463908139264E-002 -5.211700517643084E-002
 -6.150616595371299E-002 -7.015126617457010E-002 -7.924787881361281E-002
 -8.840301191624843E-002 -9.800079194574488E-002 -0.107998567955478     
 -0.118488662011830      -0.129246151508363      -0.139386070402352     
 -0.145039240616394      -0.130174046334781       7.637440226760485E-002
 -6.536680706074363E-003 -6.536680706074363E-003 -2.554850087419350E-002
 -3.231590671567389E-002 -4.370827809643116E-002 -5.188767751274957E-002
 -6.120968234039946E-002 -6.978756533623207E-002 -7.881681987833618E-002
 -8.790605860711380E-002 -9.744011850790037E-002 -0.107377339693009     
 -0.117810822550817      -0.128516326654743      -0.138609177629962     
 -0.144219129259232      -0.129304453706971       7.727575464603043E-002
 -6.536680706074363E-003 -6.536680706074363E-003 -2.554850087419349E-002
 -3.231590671567393E-002 -4.370827809643118E-002 -5.188767751274955E-002
 -6.120968234039954E-002 -6.978756533623214E-002 -7.881681987833612E-002
 -8.790605860711373E-002 -9.744011850790044E-002 -0.107377339693009     
 -0.117810822550817      -0.128516326654743      -0.138609177629963     
 -0.144219129259232      -0.129304453706970       7.727575464603045E-002
 -6.536680706074363E-003 -6.536680706074363E-003 -2.560407614755262E-002
 -3.241935957733776E-002 -4.387463908139271E-002 -5.211700517643093E-002
 -6.150616595371297E-002 -7.015126617457007E-002 -7.924787881361285E-002
 -8.840301191624839E-002 -9.800079194574476E-002 -0.107998567955478     
 -0.118488662011830      -0.129246151508363      -0.139386070402352     
 -0.145039240616394      -0.130174046334781       7.637440226760486E-002
 -6.536680706074363E-003 -6.536680706074363E-003 -2.576630240602253E-002
 -3.272513304522098E-002 -4.436869044410070E-002 -5.280133955320129E-002
 -6.239392321579595E-002 -7.124379192398972E-002 -8.054656549518971E-002
 -8.990471447131794E-002 -9.970027968337924E-002 -0.109887674054219     
 -0.120556646298636      -0.131479725451528      -0.141770249405386     
 -0.147561616201848      -0.132856725034464       7.359054604269549E-002
 -6.536680706074363E-003 -6.536680706074363E-003 -2.622272837331097E-002
 -3.358364801870653E-002 -4.575261351723939E-002 -5.471178215966273E-002
 -6.486180555664009E-002 -7.426627106586553E-002 -8.412144853344460E-002
 -9.401936494983712E-002 -0.104340441407291      -0.115037357066367     
 -0.126200937076947      -0.137605846513801      -0.148369180185764     
 -0.154640205562866      -0.140538539073076       6.547293291149875E-002
 -6.536680706074363E-003 -6.536680706074363E-003 -2.769270438687525E-002
 -3.622293035634824E-002 -4.992824447042976E-002 -6.035245256516913E-002
 -7.202129774086473E-002 -8.287100581681839E-002 -9.410355625907398E-002
 -0.105263570205205      -0.116720975096422      -0.128420227541120     
 -0.140476078388636      -0.152732922628851      -0.164461416851758     
 -0.172146985490895      -0.160697941078165       4.232919378547137E-002
 -6.536680706074363E-003 -6.536680706074363E-003 -3.608903638955652E-002
 -4.916456084170586E-002 -6.940584189048912E-002 -8.489976322259443E-002
 -0.101828508060018      -0.116995465593246      -0.132080533958885     
 -0.146223218973846      -0.159903186145701      -0.172908400845672     
 -0.185353346684777      -0.197006437062321      -0.207188928585430     
 -0.213016607668720      -0.198233679582205      -1.710907431567170E-002
 -6.536680706074363E-003 -6.536680706074363E-003  2.883428361359682E-004
  4.274930128326121E-003  9.633973305250947E-003  1.394270794585047E-002
  1.808661066763342E-002  2.136367965329220E-002  2.384838525374113E-002
  2.522957320750241E-002  2.534977886590115E-002  2.393054794730749E-002
  2.066821478136160E-002  1.514921708654127E-002  6.703673589470193E-003
 -6.233808335784226E-003 -2.343948928423328E-002  4.419216797092020E-002
   1.14276104921375        1.13572176412294        1.12784020016942     
   1.11896915097763        1.10892567638957        1.09747943126000     
   1.08433596959880        1.06911226722641        1.05129973883409     
   1.03020640715806        1.00486259147205       0.973858434038998     
  0.935043765751740       0.884911471366558       0.817122145994892     
  0.717952076931788       0.545687230928579        1.76774687130842     
   1.75571938109035        1.74221765493717        1.72697924614805     
   1.70967718973379        1.68989876312098        1.66711504942870     
   1.64063624387196        1.60954396139755        1.57258527955507     
   1.52799981794014        1.47322374154820        1.40435192360063     
   1.31507668024105        1.19436106594707        1.02014754055350     
  0.735561100336828        2.08617081947623        2.06908215631870     
   2.04987278178874        2.02817178256332        2.00352160552806     
   1.97535191638772        1.94294337235398        1.90537647195558     
   1.86145722279845        1.80960608475144        1.74768437980462     
   1.67270957966126        1.58035263084665        1.46395879974757     
   1.31238267385890        1.10391394579400       0.782326100572016     
   2.20843305002443        2.18738471869599        2.16383148377253     
   2.13736731139958        2.10749934788512        2.07362347682979     
   2.03499061728117        1.99065925364340        1.93942615290331     
   1.87972219649234        1.80944735323888        1.72569643953580     
   1.62426711239531        1.49868926620788        1.33806052524169     
   1.12094440580768       0.791278928221502        2.25129218411635     
   2.22803175318206        2.20214805155541        2.17323793467846     
   2.14081425119516        2.10428200377187        2.06290527298872     
   2.01576037746364        1.96166712793758        1.89908508255534     
   1.82594861530297        1.73939243491094        1.63525863329197     
   1.50712425988876        1.34413341106689        1.12488759619166     
  0.793323245359819        2.26586620772044        2.24165670248486     
   2.21480380361687        2.18490866014730        2.15148918053293     
   2.11395621316765        2.07158046516018        2.02344563356405     
   1.96837959004969        1.90485053854391        1.83080192530550     
   1.74337776595346        1.63842940476177        1.50954269403987     
   1.34586936362122        1.12601564997301       0.793911270808085     
   2.26942934601453        2.24496685122837        2.21785941458911     
   2.18770938772441        2.15403599325893        2.11625149747839     
   2.07362811755225        2.02525113883741        1.96995008087233     
   1.90619483520523        1.83193054857300        1.74430292194289     
   1.63916492624379        1.51010392089124        1.34627288741357     
   1.12627868704179       0.794049049972261        2.26586620772045     
   2.24165670248487        2.21480380361688        2.18490866014730     
   2.15148918053293        2.11395621316765        2.07158046516018     
   2.02344563356405        1.96837959004969        1.90485053854391     
   1.83080192530550        1.74337776595346        1.63842940476177     
   1.50954269403987        1.34586936362122        1.12601564997301     
  0.793911270808084        2.25129218411635        2.22803175318206     
   2.20214805155541        2.17323793467846        2.14081425119516     
   2.10428200377187        2.06290527298872        2.01576037746364     
   1.96166712793758        1.89908508255534        1.82594861530296     
   1.73939243491094        1.63525863329196        1.50712425988876     
   1.34413341106689        1.12488759619166       0.793323245359819     
   2.20843305002443        2.18738471869599        2.16383148377253     
   2.13736731139958        2.10749934788513        2.07362347682979     
   2.03499061728117        1.99065925364340        1.93942615290331     
   1.87972219649234        1.80944735323888        1.72569643953580     
   1.62426711239531        1.49868926620788        1.33806052524169     
   1.12094440580768       0.791278928221502        2.08617081947623     
   2.06908215631870        2.04987278178874        2.02817178256332     
   2.00352160552807        1.97535191638772        1.94294337235398     
   1.90537647195558        1.86145722279845        1.80960608475144     
   1.74768437980462        1.67270957966126        1.58035263084665     
   1.46395879974757        1.31238267385890        1.10391394579400     
  0.782326100572015        1.76774687130842        1.75571938109035     
   1.74221765493717        1.72697924614805        1.70967718973379     
   1.68989876312098        1.66711504942870        1.64063624387196     
   1.60954396139755        1.57258527955507        1.52799981794014     
   1.47322374154820        1.40435192360063        1.31507668024105     
   1.19436106594707        1.02014754055351       0.735561100336828     