 Title = "Wing and Wake"
 VARIABLES = "X" "Y" "Z" "GAM"
 Zone I=    5 J=   14 K=1  T="Blade"
 DATAPACKING=BLOCK
 VARLOCATION=([4]=CELLCENTERED)
  -8.99619469809175       -8.74714602356881       -8.49809734904587     
  -8.24904867452294       -8.00000000000000       -8.99619469809175     
  -8.74714602356881       -8.49809734904587       -8.24904867452294     
  -8.00000000000000       -8.99619469809175       -8.74714602356881     
  -8.49809734904587       -8.24904867452294       -8.00000000000000     
  -8.99619469809175       -8.74714602356881       -8.49809734904587     
  -8.24904867452294       -8.00000000000000       -8.99619469809175     
  -8.74714602356881       -8.49809734904587       -8.24904867452294     
  -8.00000000000000       -8.99619469809175       -8.74714602356881     
  -8.49809734904587       -8.24904867452294       -8.00000000000000     
  -8.99619469809175       -8.74714602356881       -8.49809734904587     
  -8.24904867452294       -8.00000000000000       -8.99619469809175     
  -8.74714602356881       -8.49809734904587       -8.24904867452294     
  -8.00000000000000       -8.99619469809175       -8.74714602356881     
  -8.49809734904587       -8.24904867452294       -8.00000000000000     
  -8.99619469809175       -8.74714602356881       -8.49809734904587     
  -8.24904867452294       -8.00000000000000       -8.99619469809175     
  -8.74714602356881       -8.49809734904587       -8.24904867452294     
  -8.00000000000000       -8.99619469809175       -8.74714602356881     
  -8.49809734904587       -8.24904867452294       -8.00000000000000     
  -8.99619469809175       -8.74714602356881       -8.49809734904587     
  -8.24904867452294       -8.00000000000000       -8.99619469809175     
  -8.74714602356881       -8.49809734904587       -8.24904867452294     
  -8.00000000000000     
  0.000000000000000E+000  0.000000000000000E+000  0.000000000000000E+000
  0.000000000000000E+000  0.000000000000000E+000  0.290581825739480     
  0.290581825739480       0.290581825739480       0.290581825739480     
  0.290581825739480        1.14543974346790        1.14543974346790     
   1.14543974346790        1.14543974346790        1.14543974346790     
   2.51489251828899        2.51489251828899        2.51489251828899     
   2.51489251828899        2.51489251828899        4.31935253268844     
   4.31935253268844        4.31935253268844        4.31935253268844     
   4.31935253268844        6.45395112957464        6.45395112957464     
   6.45395112957464        6.45395112957464        6.45395112957464     
   8.79463319744677        8.79463319744677        8.79463319744677     
   8.79463319744677        8.79463319744677        11.2053668025532     
   11.2053668025532        11.2053668025532        11.2053668025532     
   11.2053668025532        13.5460488704254        13.5460488704254     
   13.5460488704254        13.5460488704254        13.5460488704254     
   15.6806474673116        15.6806474673116        15.6806474673116     
   15.6806474673116        15.6806474673116        17.4851074817110     
   17.4851074817110        17.4851074817110        17.4851074817110     
   17.4851074817110        18.8545602565321        18.8545602565321     
   18.8545602565321        18.8545602565321        18.8545602565321     
   19.7094181742605        19.7094181742605        19.7094181742605     
   19.7094181742605        19.7094181742605        20.0000000000000     
   20.0000000000000        20.0000000000000        20.0000000000000     
   20.0000000000000     
  8.715574274765817E-002  6.536680706074363E-002  4.357787137382908E-002
  2.178893568691454E-002  0.000000000000000E+000  8.715574274765817E-002
  6.536680706074363E-002  4.357787137382908E-002  2.178893568691454E-002
  0.000000000000000E+000  8.715574274765817E-002  6.536680706074363E-002
  4.357787137382908E-002  2.178893568691454E-002  0.000000000000000E+000
  8.715574274765817E-002  6.536680706074363E-002  4.357787137382908E-002
  2.178893568691454E-002  0.000000000000000E+000  8.715574274765817E-002
  6.536680706074363E-002  4.357787137382908E-002  2.178893568691454E-002
  0.000000000000000E+000  8.715574274765817E-002  6.536680706074363E-002
  4.357787137382908E-002  2.178893568691454E-002  0.000000000000000E+000
  8.715574274765817E-002  6.536680706074363E-002  4.357787137382908E-002
  2.178893568691454E-002  0.000000000000000E+000  8.715574274765817E-002
  6.536680706074363E-002  4.357787137382908E-002  2.178893568691454E-002
  0.000000000000000E+000  8.715574274765817E-002  6.536680706074363E-002
  4.357787137382908E-002  2.178893568691454E-002  0.000000000000000E+000
  8.715574274765817E-002  6.536680706074363E-002  4.357787137382908E-002
  2.178893568691454E-002  0.000000000000000E+000  8.715574274765817E-002
  6.536680706074363E-002  4.357787137382908E-002  2.178893568691454E-002
  0.000000000000000E+000  8.715574274765817E-002  6.536680706074363E-002
  4.357787137382908E-002  2.178893568691454E-002  0.000000000000000E+000
  8.715574274765817E-002  6.536680706074363E-002  4.357787137382908E-002
  2.178893568691454E-002  0.000000000000000E+000  8.715574274765817E-002
  6.536680706074363E-002  4.357787137382908E-002  2.178893568691454E-002
  0.000000000000000E+000
  0.739602792077197       0.994538564966109        1.13204630883411     
   1.20333227671121        1.06626625771115        1.49696880924855     
   1.74097540475838        1.86801141403433        1.23766226669918     
   1.75752279127036        2.06209112847379        2.22466232070319     
   1.31638051391906        1.87401824342694        2.20322095357507     
   2.37986037207848        1.35106418879344        1.92446062799354     
   2.26340506754580        2.44515085320859        1.36550770348920     
   1.94522561988119        2.28789691864959        2.47139635833642     
   1.36945900072786        1.95087195253786        2.29451415212109     
   2.47843534750992        1.36550210453305        1.94521842905167     
   2.28788971493988        2.47139062438555        1.35105041188316     
   1.92444269093837        2.26338682828487        2.44513609999335     
   1.31635649275004        1.87398659554626        2.20318835087293     
   2.37983362765940        1.23762991087233        1.75747988145586     
   2.06204658491708        2.22462546528019        1.06623149303174     
   1.49692271107255        1.74092734327899        1.86797130982421     
  0.739576043112909       0.994504184320372        1.13201031329615     
   1.20330107494640     
 Zone I=   31 J=   14 K=1  T="NearWake"
 DATAPACKING=BLOCK
 VARLOCATION=([4]=CELLCENTERED)
  -7.92528539764312       -7.67528539764312       -7.42499513659624     
  -7.17413945896795       -6.92358231314544       -6.67300111733759     
  -6.42242640307552       -6.17189771210097       -5.92137929556906     
  -5.67090779798580       -5.42047010616883       -5.17008687143827     
  -4.91976121341583       -4.66950966416375       -4.41934543917614     
  -4.16928872029072       -3.91936236435268       -3.66959580994717     
  -3.42002510340620       -3.17069561248544       -2.92166415264048     
  -2.67300240295913       -2.42480069147031       -2.17717230008932     
  -1.93025695097735       -1.68422033368154       -1.43924057681198     
  -1.19545930572390      -0.952864533825983      -0.710841411934070     
 -0.468611167726259       -7.92528539764312       -7.67528539764312     
  -7.42543650907478       -7.17559565875255       -6.92506475720320     
  -6.67485394170210       -6.42445199852087       -6.17412067323472     
  -5.92373856701375       -5.67337992869723       -5.42301494109736     
  -5.17266886907690       -4.92233754830109       -4.67203297817235     
  -4.42175915650745       -4.17152560400153       -3.92134037035946     
  -3.67121451079394       -3.42116011521501       -3.17119204229622     
  -2.92132735037282       -2.67158563257619       -2.42198740373324     
  -2.17255034457660       -1.92327800172659       -1.67413119987486     
  -1.42495321931198       -1.17526331158662      -0.923774387746932     
 -0.667851442540638      -0.398236474493584       -7.92528539764312     
  -7.67528539764312       -7.42579490536767       -7.17696801465590     
  -6.92704100108660       -6.67753257362114       -6.42775044934859     
  -6.17805160298436       -5.92827002290947       -5.67850206850112     
  -5.42870642504020       -5.17891298660498       -4.92911306406104     
  -4.67931842981613       -4.42952954233176       -4.17975295555576     
  -3.92999158505047       -3.68024978371830       -3.43052977077350     
  -3.18083230035253       -2.93115377047699       -2.68148324099704     
  -2.43179543044767       -2.18203800573076       -1.93210575611108     
  -1.68178690028057       -1.43064444028194       -1.17773230505782     
 -0.920859123244383      -0.654445155480288      -0.359564650620291     
  -7.92528539764312       -7.67528539764312       -7.42580251030202     
  -7.17698751775443       -6.92706464319150       -6.67756686619314     
  -6.42779837109527       -6.17811508769055       -5.92834887932517     
  -5.67859611863450       -5.42881299303444       -5.17902867611485     
  -4.92923165812872       -4.67943154515368       -4.42962511714711     
  -4.17981498445548       -3.92999874504835       -3.68017441023056     
  -3.43033614160036       -3.18047475240395       -2.93057416703927     
  -2.68060792121730       -2.43053139583861       -2.18026837842924     
  -1.92968427446840       -1.67853104135791       -1.42632519984805     
  -1.17205383722785      -0.913407944488517      -0.644530426190967     
 -0.343738007512816       -7.92528539764312       -7.67528539764312     
  -7.42580355777616       -7.17697674050487       -6.92703481494222     
  -6.67751856578436       -6.42772912987895       -6.17802512081516     
  -5.92823591979723       -5.67845929243809       -5.42864952897433     
  -5.17883612284472       -4.92900618560347       -4.67916896381127     
  -4.42932011749460       -4.17946155961176       -3.92958991255653     
  -3.67970244076221       -3.42979257799086       -3.17985069283674     
  -2.92986056278004       -2.67979606467279       -2.42961348829333     
  -2.17923812403384       -1.92853725806323       -1.67726432279492     
  -1.42493495044063       -1.17052852570440      -0.911711695735270     
 -0.642558085138676      -0.340574768532252       -7.92528539764312     
  -7.67528539764312       -7.42580442587069       -7.17696988849459     
  -6.92701633927306       -6.67748907516091       -6.42768584594937     
  -6.17796848223656       -5.92816418000423       -5.67837240535778     
  -5.42854636848997       -5.17871631647560       -4.92886892985703     
  -4.67901379654801       -4.42914648875017       -4.17926915679737     
  -3.92937854673532       -3.67947220400136       -3.42954384505658     
  -3.17958420515825       -2.92957744054518       -2.67949781082033     
  -2.42930191186862       -2.17891517055100       -1.92820466736406     
  -1.67692301447008       -1.42458391579717       -1.17016274585490     
 -0.911317999212213      -0.642103939478766      -0.339818033217664     
  -7.92528539764312       -7.67528539764312       -7.42580452449984     
  -7.17696645015702       -6.92700797747203       -6.67747627786329     
  -6.42766729623293       -6.17794461200560       -5.92813430141790     
  -5.67833674637252       -5.42850468134916       -5.17866877154671     
  -4.92881555566441       -4.67895482401278       -4.42908214927639     
  -4.17919980385912       -3.92930458591976       -3.67939412869101     
  -3.42946220518239       -3.17949960418740       -2.92949050437030     
  -2.67940915604784       -2.42921209301102       -2.17882460933384     
  -1.92811354753174       -1.67683112343808       -1.42449038192339     
  -1.17006555446082      -0.911212986983659      -0.641982018050810     
 -0.339615003524800       -7.92528539764312       -7.67528539764312     
  -7.42580402716760       -7.17696589861427       -6.92700736576549     
  -6.67747560156542       -6.42766655060348       -6.17794379211010     
  -5.92813340224401       -5.67833576283638       -5.42850360839037     
  -5.17866760418687       -4.92881428910175       -4.67895345371603     
  -4.42908067109610       -4.17919821414658       -3.92930288165566     
  -3.67939230761967       -3.42946026594840       -3.17949754647020     
  -2.92948832901128       -2.67940686516381       -2.42920969008735     
  -2.17882209929025       -1.92811093675380       -1.67682841976805     
  -1.42448759460591       -1.17006269404518      -0.911210065212666     
 -0.641979047891657      -0.339612000465136       -7.92528539764312     
  -7.67528539764312       -7.42580319408292       -7.17696850184103     
  -6.92701477623082       -6.67748731906415       -6.42768387817539     
  -6.17796628251419       -5.92816172665071       -5.67836967514351     
  -5.42854333681529       -5.17871295743307       -4.92886521644848     
  -4.67900970094054       -4.42914198265509       -4.17926421195825     
  -3.92937313555571       -3.67946630031966       -3.42953742507720     
  -3.17957724853660       -2.92956993161015       -2.67948973990086     
  -2.42929327666825       -2.17890597749050       -1.92819493278685     
  -1.67691276558486       -1.42457319122247       -1.17015159564992     
 -0.911306484426427      -0.642092131915560      -0.339806021305278     
  -7.92528539764312       -7.67528539764312       -7.42580238351272     
  -7.17697537133240       -6.92703321239785       -6.67751670027378     
  -6.42772696629252       -6.17802261847473       -5.92823303222139     
  -5.67845596607043       -5.42864570240901       -5.17883172552093     
  -4.92900113658292       -4.67916317032920       -4.42931347350077     
  -4.17945394429415       -3.92958118902335       -3.67969245507652     
  -3.42978115888482       -3.17983765256387       -2.92984569973121     
  -2.67977916855640       -2.42959434880731       -2.17921654395674     
  -1.92851307141134       -1.67723741796139       -1.42490529690162     
  -1.17049620099791      -0.911676907855566      -0.642521187283261     
 -0.340536294539026       -7.92528539764312       -7.67528539764312     
  -7.42580230355167       -7.17698719871525       -6.92706417318345     
  -6.67756622238865       -6.42779752456160       -6.17811400283861     
  -5.92834751369505       -5.67859442034512       -5.42881089901569     
  -5.17902610877485       -4.92922852153086       -4.67942771958489     
  -4.42962045200652       -4.17980928850080       -3.92999177309835     
  -3.68016584475840       -3.43032556710163       -3.18046161942456     
  -2.93055774149344       -2.68058721300390       -2.43050505916178     
  -2.18023457582857       -1.92964050081404       -1.67847392142243     
  -1.42625032127029       -1.17195578754070      -0.913280902147298     
 -0.644369830749224      -0.343544061343627       -7.92528539764312     
  -7.67528539764312       -7.42579590452111       -7.17696904123332     
  -6.92704203124091       -6.67753360774521       -6.42775148665768     
  -6.17805264078038       -5.92827105876555       -5.67850309864180     
  -5.42870744516139       -5.17891399103331       -4.92911404574776     
  -4.67931937961709       -4.42953044839466       -4.17975380216841     
  -3.92999235107437       -3.68025044010005       -3.43053027669606     
  -3.18083259697335       -2.93115377046868       -2.68148281031726     
  -2.43179435510048       -2.18203592773187       -1.93210204179586     
  -1.68178034668728       -1.43063254988549       -1.17770923137270     
 -0.920808585206034      -0.654306919630800      -0.358927537279414     
  -7.92528539764312       -7.67528539764312       -7.42543830607495     
  -7.17559757698626       -6.92506678571866       -6.67485609658206     
  -6.42445430315801       -6.17412315097086       -5.92374124948545     
  -5.67338285277846       -5.42301815377242       -5.17267242837651     
  -4.92234152785871       -4.67203747142973       -4.42176428364758     
  -4.17153152090914       -3.92134728164710       -3.67122268819977     
  -3.42116992443632       -3.17120398245121       -2.92134211307801     
  -2.67160419159716       -2.42201115285408       -2.17258131156685     
  -1.92331918119174       -1.67418706555228       -1.42503048635247     
  -1.17537198720992      -0.923929014121439      -0.668072303278820     
 -0.398552837425795       -7.92528539764312       -7.67528539764312     
  -7.42499720323775       -7.17414165511124       -6.92358465925659     
  -6.67300363330943       -6.42242911151451       -6.17190064095005     
  -5.92138247806151       -5.67091127489061       -5.42047392728231     
  -5.17009109845846       -4.91976592329621       -4.66951495398782     
  -4.41935143271467       -4.16929557727943       -3.91937029361763     
  -3.66960508837916       -3.42003610379001       -3.17070884507007     
  -2.92168032833845       -2.67302253115429       -2.42482623385441     
  -2.17720541563327       -1.93030088751124       -1.68428004475437     
  -1.43932364103481       -1.19557708714056      -0.953032936905291     
 -0.711079479891763      -0.468933916800492     
  0.000000000000000E+000  0.000000000000000E+000  2.986860783190618E-004
  1.780401295216872E-003  4.240991680226019E-003  6.927476577565246E-003
  1.063654001424754E-002  1.478017497962839E-002  1.964143293721448E-002
  2.498250498161245E-002  3.084515387934266E-002  3.711084368101394E-002
  4.373471277117527E-002  5.062446668651477E-002  5.770199489326863E-002
  6.487281639180149E-002  7.204091821429007E-002  7.910140395153763E-002
  8.594328677195515E-002  9.244686269718110E-002  9.848247787759078E-002
  0.103907130085213       0.108560107739136       0.112256618222847     
  0.114779424991862       0.115874651447367       0.115243159910171     
  0.112506118196333       0.107440757222822       0.102588971362439     
  0.103075962834616       0.290581825739480       0.290581825739480     
  0.290911275856326       0.289803429598317       0.284617038463728     
  0.280968668650184       0.273876932540294       0.266931179132845     
  0.258115070648126       0.248679861669598       0.238114477749735     
  0.226847693648201       0.214839167337972       0.202297824423227     
  0.189322546567547       0.176077533891865       0.162707828572370     
  0.149377229465252       0.136250816505104       0.123503292423219     
  0.111319041890793       9.989854432445100E-002  8.946846587752605E-002
  8.029857987588818E-002  7.273219218224761E-002  6.724346918538157E-002
  6.453797517165116E-002  6.575702588140298E-002  7.295724281542210E-002
  9.022621205979091E-002  0.131008734642830        1.14543974346790     
   1.14543974346790        1.14556116635429        1.14567336656702     
   1.14532620303336        1.14549855559697        1.14518074772998     
   1.14507545075538        1.14477982092123        1.14451173413188     
   1.14415422761840        1.14376973718344        1.14332702519371     
   1.14284502281886        1.14231804227213        1.14175520287159     
   1.14116054237528        1.14054400401665        1.13991666662866     
   1.13929437827440        1.13869743979176        1.13815286927233     
   1.13769624356012        1.13737528413718        1.13725401069195     
   1.13741878251652        1.13798594517116        1.13911210025888     
   1.14105391343425        1.14411624245245        1.14909161248194     
   2.51489251828899        2.51489251828899        2.51493387240847     
   2.51498709520269        2.51488794196431        2.51498813200982     
   2.51492517012050        2.51494960674680        2.51492169989364     
   2.51491582114454        2.51489341202078        2.51487541060375     
   2.51485224385731        2.51483035447298        2.51480833273225     
   2.51478922017868        2.51477427636923        2.51476621381418     
   2.51476758719140        2.51478160055017        2.51481160326016     
   2.51486108532378        2.51493332940440        2.51503145356548     
   2.51515817599533        2.51531560255437        2.51550522722686     
   2.51572846359625        2.51600187112531        2.51632899345956     
   2.51683746220557        4.31935253268844        4.31935253268844     
   4.31936640422530        4.31939148706825        4.31935692426776     
   4.31940140880259        4.31938458489899        4.31940273742272     
   4.31940326838753        4.31941384304530        4.31942040753486     
   4.31943046954142        4.31944055679291        4.31945275246868     
   4.31946632662295        4.31948194718898        4.31949954158701     
   4.31951934133321        4.31954132394491        4.31956544465501     
   4.31959146112752        4.31961893820923        4.31964717435945     
   4.31967531229400        4.31970242241385        4.31972759554981     
   4.31975008680747        4.31976949741680        4.31978910456888     
   4.31980836099679        4.31986039379514        6.45395112957464     
   6.45395112957464        6.45395510491461        6.45396695800658     
   6.45395500802764        6.45397386769138        6.45396951838263     
   6.45397859882279        6.45398132852219        6.45398794503639     
   6.45399325035723        6.45399989849038        6.45400656463632     
   6.45401388000608        6.45402146932915        6.45402942474096     
   6.45403757232925        6.45404583263356        6.45405404095105     
   6.45406203358751        6.45406960209238        6.45407650822944     
   6.45408247294513        6.45408722277769        6.45409052605894     
   6.45409221888333        6.45409223410702        6.45409063050873     
   6.45408849550329        6.45408578657848        6.45409195430018     
   8.79463319744677        8.79463319744677        8.79463282947494     
   8.79463634836570        8.79463342543336        8.79463864573543     
   8.79463780268773        8.79464045288579        8.79464146347133     
   8.79464346179443        8.79464510977990        8.79464707116727     
   8.79464900072511        8.79465104475265        8.79465309821690     
   8.79465517269514        8.79465721565673        8.79465919980117     
   8.79466108000596        8.79466281496781        8.79466435679686     
   8.79466565505727        8.79466665424842        8.79466730460752     
   8.79466757022537        8.79466743366092        8.79466690047187     
   8.79466600359339        8.79466501036055        8.79466392609636     
   8.79466489718504        11.2053668025532        11.2053668025532     
   11.2053630130820        11.2053594553563        11.2053623449998     
   11.2053570973376        11.2053579204047        11.2053552580742     
   11.2053542443360        11.2053522526717        11.2053506222035     
   11.2053486901661        11.2053468028290        11.2053448148996     
   11.2053428324106        11.2053408447321        11.2053389052777     
   11.2053370421324        11.2053353010788        11.2053337239239     
   11.2053323588766        11.2053312564804        11.2053304721133     
   11.2053300551803        11.2053300410183        11.2053304463567     
   11.2053312649793        11.2053324638353        11.2053337773384     
   11.2053352079135        11.2053346395088        13.5460488704254     
   13.5460488704254        13.5460397678544        13.5460277878427     
   13.5460396098441        13.5460206221347        13.5460248449167     
   13.5460156402392        13.5460127902494        13.5460060589475     
   13.5460006464020        13.5459939009019        13.5459871499731     
   13.5459797655023        13.5459721262934        13.5459641441579     
   13.5459559973635        13.5459477700817        13.5459396320037     
   13.5459317519632        13.5459243435303        13.5459176498195     
   13.5459119542585        13.5459075338932        13.5459046229181     
   13.5459033865409        13.5459038920975        13.5459060807247     
   13.5459088674484        13.5459123089923        13.5459070180253     
   15.6806474673116        15.6806474673116        15.6806269422657     
   15.6806015543256        15.6806357897327        15.6805909547942     
   15.6806074043421        15.6805888516564        15.6805878936188     
   15.6805768637115        15.6805698150690        15.6805592397145     
   15.6805486104710        15.6805358458162        15.6805216789444     
   15.6805054473227        15.6804872318261        15.6804668130296     
   15.6804442303837        15.6804195517144        15.6803930497712     
   15.6803651985999        15.6803367477920        15.6803086116238     
   15.6802817839634        15.6802572419432        15.6802357967035     
   15.6802179061037        15.6802003459383        15.6801837400082     
   15.6801352176588        17.4851074817110        17.4851074817110     
   17.4850582947630        17.4850045925380        17.4851032163310     
   17.4850024403974        17.4850647526040        17.4850395927230     
   17.4850666919001        17.4850716653058        17.4850930558298     
   17.4851099066787        17.4851317684826        17.4851521715902     
   17.4851724932190        17.4851896526107        17.4852023429312     
   17.4852077949234        17.4852033864283        17.4851858346254     
   17.4851517013477        17.4850974031902        17.4850195736216     
   17.4849150518662        17.4847811832074        17.4846161566291     
   17.4844192276977        17.4841905433097        17.4839163907086     
   17.4835978738477        17.4831149617364        18.8545602565321     
   18.8545602565321        18.8544306994126        18.8543179588967     
   18.8546645230607        18.8544915006907        18.8548085585508     
   18.8549130111901        18.8552076863719        18.8554746879705     
   18.8558309540594        18.8562140178721        18.8566550780790     
   18.8571351538177        18.8576598687583        18.8582200197108     
   18.8588114575246        18.8594240885038        18.8600466266491     
   18.8606629324148        18.8612522845231        18.8617870407523     
   18.8622306660214        18.8625339075872        18.8626301773935     
   18.8624285419962        18.8618038607770        18.8605807979354     
   18.8584564872368        18.8549820110703        18.8486611303968     
   19.7094181742605        19.7094181742605        19.7090807851778     
   19.7101880973422        19.7153739100562        19.7190216340844     
   19.7261126522936        19.7330576011771        19.7418728063169     
   19.7513069956141        19.7618712239983        19.7731366919889     
   19.7851437118754        19.7976833210402        19.8106565920060     
   19.8238992672149        19.8372662321592        19.8505935962016     
   19.8637161623422        19.8764590779319        19.8886377661689     
   19.9000515025907        19.9104733132144        19.9196330515723     
   19.9271869950524        19.9326606032596        19.9353482224753     
   19.9341093154968        19.9268901543888        19.9096105049546     
   19.8688417813878        20.0000000000000        20.0000000000000     
   19.9996935033090        19.9982112841810        19.9957501326212     
   19.9930630275992        19.9893532734148        19.9852088665093     
   19.9803467413575        19.9750046910285        19.9691409329533     
   19.9628739792860        19.9562486621200        19.9493572394473     
   19.9422777761255        19.9351046956578        19.9279339379651     
   19.9208703060022        19.9140246661715        19.9075165664400     
   19.9014754580227        19.8960440807264        19.8913828107788     
   19.8876760268572        19.8851404960176        19.8840296764011     
   19.8846426606814        19.8873594307094        19.8924067634042     
   19.8972516783208        19.8967829214996     
 -6.536680706074363E-003 -6.536680706074363E-003 -1.673070679321044E-003
  9.484554461952229E-003  1.405386900407292E-002  2.195447752151113E-002
  2.799254637847051E-002  3.462155179603651E-002  4.044337754048705E-002
  4.603885290474988E-002  5.099136747471215E-002  5.540844336807739E-002
  5.914071881692921E-002  6.218225180216368E-002  6.446557148433132E-002
  6.596627102448654E-002  6.665016421401267E-002  6.650013147508790E-002
  6.550259908152059E-002  6.365400978360118E-002  6.095709357463449E-002
  5.742189210994365E-002  5.306385720299681E-002  4.790224999498351E-002
  4.195631962443439E-002  3.523592288530803E-002  2.775139060271138E-002
  1.953531703851249E-002  1.044857032530451E-002  1.355078494886663E-003
 -2.140449098976885E-002 -6.536680706074363E-003 -6.536680706074363E-003
 -2.082277721596423E-002 -5.711695374405039E-002 -6.549584732761217E-002
 -8.694926451448468E-002 -0.100623996027135      -0.117171742993428     
 -0.130994397994509      -0.144962157019527      -0.157491469711004     
 -0.169362040660051      -0.180120560114606      -0.189982135998245     
 -0.198833849962922      -0.206762661541047      -0.213784258257475     
 -0.219989881033830      -0.225474923836451      -0.230381509161980     
 -0.234882864382184      -0.239199516809407      -0.243600024339521     
 -0.248412693697173      -0.254031061431898      -0.260909084670535     
 -0.269530373759288      -0.280309770703878      -0.293077039857853     
 -0.304940461472191      -0.315404789701088      -6.536680706074363E-003
 -6.536680706074363E-003 -1.619340325696546E-002 -4.106999447066341E-002
 -4.541437784853763E-002 -5.930704532097791E-002 -6.787626486532350E-002
 -7.869348116711440E-002 -8.806682717348911E-002 -9.792114592475648E-002
 -0.107353313660577      -0.116867198978591      -0.126255514897167     
 -0.135663800332707      -0.145059015518289      -0.154497422663473     
 -0.163991511623214      -0.173577866570948      -0.183284185597921     
 -0.193146855597138      -0.203203065089660      -0.213495413303668     
 -0.224069243170699      -0.234970787430542      -0.246237956970748     
 -0.257877401383810      -0.269801791061353      -0.281658757418469     
 -0.292326479882188      -0.298306632398508      -0.291081534675730     