 Title = "Wing and Wake"
 VARIABLES = "X" "Y" "Z" "GAM"
 Zone I=    5 J=   14 K=1  T="Blade"
 DATAPACKING=BLOCK
 VARLOCATION=([4]=CELLCENTERED)
  -6.24619469809175       -5.99714602356881       -5.74809734904587     
  -5.49904867452294       -5.25000000000000       -6.24619469809175     
  -5.99714602356881       -5.74809734904587       -5.49904867452294     
  -5.25000000000000       -6.24619469809175       -5.99714602356881     
  -5.74809734904587       -5.49904867452294       -5.25000000000000     
  -6.24619469809175       -5.99714602356881       -5.74809734904587     
  -5.49904867452294       -5.25000000000000       -6.24619469809175     
  -5.99714602356881       -5.74809734904587       -5.49904867452294     
  -5.25000000000000       -6.24619469809175       -5.99714602356881     
  -5.74809734904587       -5.49904867452294       -5.25000000000000     
  -6.24619469809175       -5.99714602356881       -5.74809734904587     
  -5.49904867452294       -5.25000000000000       -6.24619469809175     
  -5.99714602356881       -5.74809734904587       -5.49904867452294     
  -5.25000000000000       -6.24619469809175       -5.99714602356881     
  -5.74809734904587       -5.49904867452294       -5.25000000000000     
  -6.24619469809175       -5.99714602356881       -5.74809734904587     
  -5.49904867452294       -5.25000000000000       -6.24619469809175     
  -5.99714602356881       -5.74809734904587       -5.49904867452294     
  -5.25000000000000       -6.24619469809175       -5.99714602356881     
  -5.74809734904587       -5.49904867452294       -5.25000000000000     
  -6.24619469809175       -5.99714602356881       -5.74809734904587     
  -5.49904867452294       -5.25000000000000       -6.24619469809175     
  -5.99714602356881       -5.74809734904587       -5.49904867452294     
  -5.25000000000000     
  0.000000000000000E+000  0.000000000000000E+000  0.000000000000000E+000
  0.000000000000000E+000  0.000000000000000E+000  0.290581825739480     
  0.290581825739480       0.290581825739480       0.290581825739480     
  0.290581825739480        1.14543974346790        1.14543974346790     
   1.14543974346790        1.14543974346790        1.14543974346790     
   2.51489251828899        2.51489251828899        2.51489251828899     
   2.51489251828899        2.51489251828899        4.31935253268844     
   4.31935253268844        4.31935253268844        4.31935253268844     
   4.31935253268844        6.45395112957464        6.45395112957464     
   6.45395112957464        6.45395112957464        6.45395112957464     
   8.79463319744677        8.79463319744677        8.79463319744677     
   8.79463319744677        8.79463319744677        11.2053668025532     
   11.2053668025532        11.2053668025532        11.2053668025532     
   11.2053668025532        13.5460488704254        13.5460488704254     
   13.5460488704254        13.5460488704254        13.5460488704254     
   15.6806474673116        15.6806474673116        15.6806474673116     
   15.6806474673116        15.6806474673116        17.4851074817110     
   17.4851074817110        17.4851074817110        17.4851074817110     
   17.4851074817110        18.8545602565321        18.8545602565321     
   18.8545602565321        18.8545602565321        18.8545602565321     
   19.7094181742605        19.7094181742605        19.7094181742605     
   19.7094181742605        19.7094181742605        20.0000000000000     
   20.0000000000000        20.0000000000000        20.0000000000000     
   20.0000000000000     
  8.715574274765817E-002  6.536680706074363E-002  4.357787137382908E-002
  2.178893568691454E-002  0.000000000000000E+000  8.715574274765817E-002
  6.536680706074363E-002  4.357787137382908E-002  2.178893568691454E-002
  0.000000000000000E+000  8.715574274765817E-002  6.536680706074363E-002
  4.357787137382908E-002  2.178893568691454E-002  0.000000000000000E+000
  8.715574274765817E-002  6.536680706074363E-002  4.357787137382908E-002
  2.178893568691454E-002  0.000000000000000E+000  8.715574274765817E-002
  6.536680706074363E-002  4.357787137382908E-002  2.178893568691454E-002
  0.000000000000000E+000  8.715574274765817E-002  6.536680706074363E-002
  4.357787137382908E-002  2.178893568691454E-002  0.000000000000000E+000
  8.715574274765817E-002  6.536680706074363E-002  4.357787137382908E-002
  2.178893568691454E-002  0.000000000000000E+000  8.715574274765817E-002
  6.536680706074363E-002  4.357787137382908E-002  2.178893568691454E-002
  0.000000000000000E+000  8.715574274765817E-002  6.536680706074363E-002
  4.357787137382908E-002  2.178893568691454E-002  0.000000000000000E+000
  8.715574274765817E-002  6.536680706074363E-002  4.357787137382908E-002
  2.178893568691454E-002  0.000000000000000E+000  8.715574274765817E-002
  6.536680706074363E-002  4.357787137382908E-002  2.178893568691454E-002
  0.000000000000000E+000  8.715574274765817E-002  6.536680706074363E-002
  4.357787137382908E-002  2.178893568691454E-002  0.000000000000000E+000
  8.715574274765817E-002  6.536680706074363E-002  4.357787137382908E-002
  2.178893568691454E-002  0.000000000000000E+000  8.715574274765817E-002
  6.536680706074363E-002  4.357787137382908E-002  2.178893568691454E-002
  0.000000000000000E+000
  0.717764269454530       0.963953618417228        1.09610873356421     
   1.16459858419470        1.03261514677488        1.44822849237635     
   1.68280628993973        1.80484936146365        1.19322597192520     
   1.69250338412655        1.98373035904101        2.13865568539553     
   1.26203364578849        1.79425292618998        2.10676663834782     
   2.27356158164313        1.28913534110003        1.83357210327252     
   2.15352413921584        2.32409725022791        1.29918540101251     
   1.84797647298024        2.17045886315848        2.34220497939683     
   1.30174743606441        1.85162713732971        2.17472701208525     
   2.34674465511156        1.29918540101251        1.84797647298024     
   2.17045886315848        2.34220497939683        1.28913534110004     
   1.83357210327252        2.15352413921584        2.32409725022791     
   1.26203364578849        1.79425292618999        2.10676663834782     
   2.27356158164313        1.19322597192520        1.69250338412655     
   1.98373035904101        2.13865568539553        1.03261514677489     
   1.44822849237635        1.68280628993973        1.80484936146365     
  0.717764269454530       0.963953618417228        1.09610873356421     
   1.16459858419470     
 Zone I=   22 J=   14 K=1  T="NearWake"
 DATAPACKING=BLOCK
 VARLOCATION=([4]=CELLCENTERED)
  -5.17528539764312       -4.92528539764312       -4.67476397789573     
  -4.42426846046840       -4.17379311474038       -3.92333357282954     
  -3.67294895534503       -3.42262642890609       -3.17240924377210     
  -2.92231176941944       -2.67237657991002       -2.42264448376609     
  -2.17317663950417       -1.92404817122712       -1.67535817871560     
  -1.42722880594000       -1.17979905624876      -0.933182059985284     
 -0.687293872029067      -0.441357889790505      -0.185031299401122     
  4.306499919739287E-002  -5.17528539764312       -4.92528539764312     
  -4.67568421387713       -4.42546971544689       -4.17541238879195     
  -3.92520449681457       -3.67506106419249       -3.42489461603330     
  -3.17478200037553       -2.92470305823993       -2.67469426544119     
  -2.42475920547220       -2.17492050681626       -1.92518313384539     
  -1.67554177191953       -1.42593589996510       -1.17616899977027     
 -0.925654898951581      -0.672586543087592      -0.410200550199058     
 -9.889009505898264E-002  4.157392979862513E-002  -5.17528539764312     
  -4.92528539764312       -4.67634018110066       -4.42667823881184     
  -4.17723514589400       -3.92757955968673       -3.67797429614613     
  -3.42829865307854       -3.17863723436676       -2.92895332257981     
  -2.67927389341489       -2.42958012810966       -2.17986499561324     
  -1.93008497716952       -1.68015864824021       -1.42989905583077     
  -1.17888827233098      -0.926104861697354      -0.668731124251998     
 -0.397375434568840      -4.745210145495005E-002  1.017641824840980E-002
  -5.17528539764312       -4.92528539764312       -4.67633903964836     
  -4.42666519004486       -4.17721083640166       -3.92753470135681     
  -3.67790470803731       -3.42818900737716       -3.17847250997723     
  -2.92870824598847       -2.67891809086393       -2.42907160994744     
  -2.17915101444179       -1.92909750932817       -1.67881295902691     
  -1.42808931058029       -1.17648078431911      -0.922915513851166     
 -0.664446854785343      -0.391277268836043      -3.512605577031490E-002
  9.992676875144532E-004  -5.17528539764312       -4.92528539764312     
  -4.67632623674174       -4.42662886864455       -4.17714964125731     
  -3.92744077739547       -3.67777766755071       -3.42802305147984     
  -3.17826573957289       -2.92845593120079       -2.67861733893339     
  -2.42871861378228       -2.17874319020882       -1.92863250064239     
  -1.67828920867298       -1.42750466044473       -1.17582986012208     
 -0.922182334929889      -0.663585927694298      -0.390149958887522     
 -3.286827972317977E-002 -1.597599317214855E-003  -5.17528539764312     
  -4.92528539764312       -4.67632003765242       -4.42661082155666     
  -4.17712069075079       -3.92739719818893       -3.67772076952625     
  -3.42795133701420       -3.17818025943949       -2.92835664692162     
  -2.67850535789790       -2.42859473742135       -2.17860865772517     
  -1.92848834761737       -1.67813628695006       -1.42734303030745     
  -1.17565805872896      -0.921995657980386      -0.663372261686152     
 -0.389874960010160      -3.233443078747565E-002 -2.257521228208016E-003
  -5.17528539764312       -4.92528539764312       -4.67631809783036     
  -4.42660466962930       -4.17711117189744       -3.92738295788937     
  -3.67770257871517       -3.42792878947745       -3.17815391246207     
  -2.92832660719826       -2.67847209260830       -2.42855854394733     
  -2.17856990970688       -1.92844728248670       -1.67809302411779     
  -1.42729741240371       -1.17560948356327      -0.921942657919479     
 -0.663311445265700      -0.389797140742118      -3.218541027096789E-002
 -2.427425537855381E-003  -5.17528539764312       -4.92528539764312     
  -4.67631809783036       -4.42660466962930       -4.17711117189744     
  -3.92738295788937       -3.67770257871517       -3.42792878947745     
  -3.17815391246207       -2.92832660719826       -2.67847209260830     
  -2.42855854394733       -2.17856990970688       -1.92844728248670     
  -1.67809302411779       -1.42729741240371       -1.17560948356327     
 -0.921942657919479      -0.663311445265700      -0.389797140742118     
 -3.218541027096807E-002 -2.427425537855344E-003  -5.17528539764312     
  -4.92528539764312       -4.67632003765242       -4.42661082155666     
  -4.17712069075079       -3.92739719818893       -3.67772076952625     
  -3.42795133701420       -3.17818025943949       -2.92835664692162     
  -2.67850535789790       -2.42859473742135       -2.17860865772517     
  -1.92848834761737       -1.67813628695006       -1.42734303030745     
  -1.17565805872896      -0.921995657980386      -0.663372261686152     
 -0.389874960010160      -3.233443078747563E-002 -2.257521228208056E-003
  -5.17528539764312       -4.92528539764312       -4.67632623674174     
  -4.42662886864455       -4.17714964125731       -3.92744077739547     
  -3.67777766755071       -3.42802305147984       -3.17826573957289     
  -2.92845593120079       -2.67861733893339       -2.42871861378228     
  -2.17874319020882       -1.92863250064239       -1.67828920867298     
  -1.42750466044473       -1.17582986012208      -0.922182334929889     
 -0.663585927694298      -0.390149958887522      -3.286827972317984E-002
 -1.597599317214906E-003  -5.17528539764312       -4.92528539764312     
  -4.67633903964836       -4.42666519004486       -4.17721083640166     
  -3.92753470135681       -3.67790470803731       -3.42818900737716     
  -3.17847250997723       -2.92870824598847       -2.67891809086393     
  -2.42907160994744       -2.17915101444179       -1.92909750932817     
  -1.67881295902691       -1.42808931058029       -1.17648078431911     
 -0.922915513851166      -0.664446854785343      -0.391277268836043     
 -3.512605577031513E-002  9.992676875143786E-004  -5.17528539764312     
  -4.92528539764312       -4.67634018110066       -4.42667823881184     
  -4.17723514589400       -3.92757955968673       -3.67797429614613     
  -3.42829865307854       -3.17863723436676       -2.92895332257981     
  -2.67927389341489       -2.42958012810966       -2.17986499561324     
  -1.93008497716952       -1.68015864824021       -1.42989905583077     
  -1.17888827233098      -0.926104861697354      -0.668731124251998     
 -0.397375434568840      -4.745210145495009E-002  1.017641824840954E-002
  -5.17528539764312       -4.92528539764312       -4.67568421387713     
  -4.42546971544689       -4.17541238879195       -3.92520449681457     
  -3.67506106419249       -3.42489461603330       -3.17478200037553     
  -2.92470305823993       -2.67469426544119       -2.42475920547220     
  -2.17492050681627       -1.92518313384539       -1.67554177191953     
  -1.42593589996510       -1.17616899977026      -0.925654898951581     
 -0.672586543087591      -0.410200550199058      -9.889009505898341E-002
  4.157392979862421E-002  -5.17528539764312       -4.92528539764312     
  -4.67476397789573       -4.42426846046840       -4.17379311474038     
  -3.92333357282954       -3.67294895534503       -3.42262642890609     
  -3.17240924377210       -2.92231176941944       -2.67237657991002     
  -2.42264448376609       -2.17317663950417       -1.92404817122712     
  -1.67535817871560       -1.42722880594000       -1.17979905624876     
 -0.933182059985284      -0.687293872029066      -0.441357889790506     
 -0.185031299401122       4.306499919739392E-002
  0.000000000000000E+000  0.000000000000000E+000  5.722285126891576E-004
  2.129129353781773E-003  4.001428899285881E-003  6.640978700187466E-003
  9.711309955614884E-003  1.330991975716226E-002  1.726502623473765E-002
  2.152234973455119E-002  2.593787946275979E-002  3.037980638824239E-002
  3.467120341664905E-002  3.860985386991829E-002  4.194796252679926E-002
  4.439208473053467E-002  4.561255332216897E-002  4.535321266422086E-002
  4.364750829885457E-002  4.304716024917368E-002  2.584948420318523E-002
  3.544301420343467E-002  0.290581825739480       0.290581825739480     
  0.291211050785580       0.287870127201266       0.285409974096323     
  0.280362092088759       0.275029820721903       0.268299419227763     
  0.260964884233859       0.252844476161288       0.244298472923441     
  0.235458852285200       0.226629211795175       0.218109602696005     
  0.210315803816067       0.203786548102828       0.199301250027469     
  0.198096358532605       0.202515552446071       0.218067276215146     
  0.243698908424831       0.309362059609258        1.14543974346790     
   1.14543974346790        1.14568235106601        1.14541420236028     
   1.14554602282198        1.14536630017036        1.14529959501732     
   1.14512097620079        1.14495749613845        1.14475185688828     
   1.14454752048492        1.14434118617898        1.14416124913648     
   1.14402998290394        1.14398634761365        1.14407854387938     
   1.14437116934992        1.14494930956447        1.14597814549844     
   1.14777717947252        1.14871704052100        1.15414097009449     
   2.51489251828899        2.51489251828899        2.51498594117804     
   2.51491384630127        2.51498944918148        2.51497261489259     
   2.51500404108522        2.51501180916538        2.51503528304926     
   2.51505629813781        2.51508633416866        2.51512198919979     
   2.51516729452347        2.51522227823629        2.51528850548415     
   2.51536640511981        2.51545732405961        2.51556538041410     
   2.51571107752404        2.51594043452426        2.51577854384880     
   2.51711170929427        4.31935253268844        4.31935253268844     
   4.31939141141322        4.31937062012871        4.31940329739883     
   4.31940456630107        4.31942291658965        4.31943389683937     
   4.31945004939544        4.31946502127714        4.31948173614055     
   4.31949839454042        4.31951536662628        4.31953185351547     
   4.31954759525508        4.31956220877465        4.31957579639233     
   4.31958926221122        4.31960702151283        4.31963838664851     
   4.31956480650351        4.31995405389818        6.45395112957464     
   6.45395112957464        6.45396668714566        6.45396052971048     
   6.45397312388164        6.45397464521761        6.45398175850137     
   6.45398613021173        6.45399187391364        6.45399685829267     
   6.45400197828786        6.45400663859012        6.45401094881035     
   6.45401468597150        6.45401781974449        6.45402030651749     
   6.45402225732054        6.45402400699867        6.45402686064075     
   6.45403348843102        6.45400851075540        6.45414350564488     
   8.79463319744677        8.79463319744677        8.79463732331019     
   8.79463591301915        8.79463914555435        8.79463959351735     
   8.79464136617082        8.79464242388025        8.79464376491431     
   8.79464487851113        8.79464598272700        8.79464694291022     
   8.79464779330853        8.79464849180082        8.79464904240556     
   8.79464944621655        8.79464973912521        8.79465000674741     
   8.79465055827735        8.79465202669850        8.79464608160624     
   8.79468026808948        11.2053668025532        11.2053668025532     
   11.2053626766898        11.2053640869808        11.2053608544456     
   11.2053604064826        11.2053586338292        11.2053575761197     
   11.2053562350857        11.2053551214889        11.2053540172730     
   11.2053530570898        11.2053522066915        11.2053515081992     
   11.2053509575944        11.2053505537834        11.2053502608748     
   11.2053499932526        11.2053494417226        11.2053479733015     
   11.2053539183938        11.2053197319105        13.5460488704254     
   13.5460488704254        13.5460333128543        13.5460394702895     
   13.5460268761184        13.5460253547824        13.5460182414986     
   13.5460138697883        13.5460081260864        13.5460031417073     
   13.5459980217121        13.5459933614099        13.5459890511897     
   13.5459853140285        13.5459821802555        13.5459796934825     
   13.5459777426795        13.5459759930013        13.5459731393592     
   13.5459665115690        13.5459914892446        13.5458564943551     
   15.6806474673116        15.6806474673116        15.6806085885868     
   15.6806293798713        15.6805967026012        15.6805954336989     
   15.6805770834103        15.6805661031606        15.6805499506046     
   15.6805349787229        15.6805182638594        15.6805016054596     
   15.6804846333737        15.6804681464845        15.6804524047449     
   15.6804377912254        15.6804242036077        15.6804107377888     
   15.6803929784872        15.6803616133515        15.6804351934965     
   15.6800459461018        17.4851074817110        17.4851074817110     
   17.4850140588220        17.4850861536987        17.4850105508185     
   17.4850273851074        17.4849959589148        17.4849881908346     
   17.4849647169507        17.4849437018622        17.4849136658313     
   17.4848780108002        17.4848327054765        17.4847777217637     
   17.4847114945158        17.4846335948802        17.4845426759404     
   17.4844346195859        17.4842889224759        17.4840595654757     
   17.4842214561512        17.4828882907057        18.8545602565321     
   18.8545602565321        18.8543176489340        18.8545857976397     
   18.8544539771780        18.8546336998296        18.8547004049827     
   18.8548790237992        18.8550425038615        18.8552481431117     
   18.8554524795151        18.8556588138210        18.8558387508635     
   18.8559700170961        18.8560136523863        18.8559214561206     
   18.8556288306501        18.8550506904355        18.8540218545016     
   18.8522228205275        18.8512829594790        18.8458590299055     
   19.7094181742605        19.7094181742605        19.7087889492144     
   19.7121298727987        19.7145900259037        19.7196379079112     
   19.7249701792781        19.7317005807722        19.7390351157661     
   19.7471555238387        19.7557015270766        19.7645411477148     
   19.7733707882048        19.7818903973040        19.7896841961839     
   19.7962134518972        19.8006987499725        19.8019036414674     
   19.7974844475539        19.7819327237849        19.7563010915752     
   19.6906379403907        20.0000000000000        20.0000000000000     
   19.9994277714873        19.9978708706462        19.9959985711007     
   19.9933590212998        19.9902886900444        19.9866900802428     
   19.9827349737653        19.9784776502654        19.9740621205372     
   19.9696201936118        19.9653287965833        19.9613901461301     
   19.9580520374732        19.9556079152695        19.9543874466778     
   19.9546467873358        19.9563524917011        19.9569528397508     
   19.9741505157968        19.9645569857966     
 -6.536680706074363E-003 -6.536680706074363E-003  1.037221708303710E-003
  5.527445754821890E-003  1.172738932579590E-002  1.691843076975918E-002
  2.219913823560283E-002  2.680148042088895E-002  3.091370672054632E-002
  3.425857732208671E-002  3.679626738415194E-002  3.836917114248367E-002
  3.887030606811999E-002  3.815216228270341E-002  3.605767960493451E-002
  3.238714107742932E-002  2.688656085929032E-002  1.922549093111051E-002
  8.812012748198417E-003 -7.311276184276612E-003 -2.698840350261869E-002
  5.712497612060621E-002 -6.536680706074363E-003 -6.536680706074363E-003
 -3.616372581816341E-002 -4.925110218512032E-002 -6.953745628010030E-002
 -8.503168342563840E-002 -0.101961696279691      -0.117080315960755     
 -0.132081117464648      -0.146066582425425      -0.159518421941954     
 -0.172223460496812      -0.184368862476188      -0.195974865249902     
 -0.207190691122450      -0.218128001215867      -0.228876801511967     
 -0.239324117888477      -0.248457059369032      -0.252584421285609     
 -0.226471593421424      -2.030089802642557E-002 -6.536680706074363E-003
 -6.536680706074363E-003 -2.750685282902450E-002 -3.587581307903635E-002
 -4.932774899022793E-002 -5.946023900305957E-002 -7.075323644632268E-002
 -8.114629100007160E-002 -9.181084288002919E-002 -0.102273691668100     
 -0.112875043319074      -0.123543825874091      -0.134418055662176     
 -0.145536139514174      -0.156989392481797      -0.168826585762982     
 -0.181034927609932      -0.193315881110411      -0.204366228159423     
 -0.208614224801765      -0.177530029862255       5.012478441796859E-002
 -6.536680706074363E-003 -6.536680706074363E-003 -2.592185939909482E-002
 -3.302960112938812E-002 -4.479701989420840E-002 -5.329971653357592E-002
 -6.286394031620079E-002 -7.156660385735709E-002 -8.056212642767392E-002
 -8.942947816060565E-002 -9.852293499797680E-002 -0.107800929297908     
 -0.117420052024711      -0.127436581211270      -0.137948475824367     
 -0.148993624412817      -0.160513527019894      -0.172101395534884     
 -0.182232863507946      -0.184815468245883      -0.148143895376016     
  7.843532258185137E-002 -6.536680706074363E-003 -6.536680706074363E-003
 -2.540117794672905E-002 -3.205770649650594E-002 -4.322583254200839E-002
 -5.112590042132271E-002 -6.004398319598503E-002 -6.809856822144930E-002
 -7.644253714893781E-002 -8.467038511845246E-002 -9.314113173486130E-002
 -0.101820137021452      -0.110867069614393      -0.120339886900222     
 -0.130335660796671      -0.140889409876337      -0.151938143679239     
 -0.163069443985961      -0.172751422977849      -0.174860150165120     
 -0.137012338570039       8.897390590349723E-002 -6.536680706074363E-003
 -6.536680706074363E-003 -2.521111353195012E-002 -3.170271767992896E-002
 -4.265210623311518E-002 -5.033126635047315E-002 -5.901138322437512E-002
 -6.682523661766535E-002 -7.492479736677710E-002 -8.290976073230916E-002
 -9.114080769771599E-002 -9.958604151606389E-002 -0.108407035291801     
 -0.117663810124814      -0.127455401883931      -0.137818926426855     
 -0.148693588864408      -0.159669007666869      -0.169214202142265     
 -0.171198523132101      -0.133062038736767       9.276572197473835E-002
 -6.536680706074363E-003 -6.536680706074363E-003 -2.514550018826100E-002
 -3.158120525455934E-002 -4.245644500443915E-002 -5.006118884501173E-002
 -5.866120306049231E-002 -6.639417438526338E-002 -7.441165274601233E-002
 -8.231512054483478E-002 -9.046583732776674E-002 -9.883291262976031E-002
 -0.107578654853226      -0.116763886106854      -0.126488381125584     
 -0.136789979848990      -0.147608541990107      -0.158534164039790     
 -0.168035849498058      -0.169980633844288      -0.131760603162393     
  9.402915728461599E-002 -6.536680706074363E-003 -6.536680706074363E-003
 -2.514550018826110E-002 -3.158120525455926E-002 -4.245644500443925E-002
 -5.006118884501190E-002 -5.866120306049228E-002 -6.639417438526347E-002
 -7.441165274601234E-002 -8.231512054483475E-002 -9.046583732776689E-002
 -9.883291262976042E-002 -0.107578654853226      -0.116763886106854     
 -0.126488381125584      -0.136789979848990      -0.147608541990107     
 -0.158534164039790      -0.168035849498058      -0.169980633844288     
 -0.131760603162393       9.402915728461606E-002 -6.536680706074363E-003
 -6.536680706074363E-003 -2.521111353195001E-002 -3.170271767992897E-002
 -4.265210623311522E-002 -5.033126635047324E-002 -5.901138322437510E-002
 -6.682523661766529E-002 -7.492479736677717E-002 -8.290976073230928E-002
 -9.114080769771592E-002 -9.958604151606382E-002 -0.108407035291802     
 -0.117663810124814      -0.127455401883931      -0.137818926426855     
 -0.148693588864408      -0.159669007666869      -0.169214202142265     
 -0.171198523132101      -0.133062038736767       9.276572197473837E-002
 -6.536680706074363E-003 -6.536680706074363E-003 -2.540117794672902E-002
 -3.205770649650601E-002 -4.322583254200841E-002 -5.112590042132267E-002
 -6.004398319598491E-002 -6.809856822144916E-002 -7.644253714893813E-002
 -8.467038511845269E-002 -9.314113173486113E-002 -0.101820137021452     
 -0.110867069614393      -0.120339886900222      -0.130335660796671     
 -0.140889409876337      -0.151938143679239      -0.163069443985961     
 -0.172751422977849      -0.174860150165120      -0.137012338570039     
  8.897390590349728E-002 -6.536680706074363E-003 -6.536680706074363E-003
 -2.592185939909483E-002 -3.302960112938815E-002 -4.479701989420843E-002
 -5.329971653357590E-002 -6.286394031620081E-002 -7.156660385735719E-002
 -8.056212642767417E-002 -8.942947816060579E-002 -9.852293499797674E-002
 -0.107800929297908      -0.117420052024711      -0.127436581211270     
 -0.137948475824366      -0.148993624412817      -0.160513527019894     
 -0.172101395534884      -0.182232863507946      -0.184815468245883     
 -0.148143895376016       7.843532258185155E-002 -6.536680706074363E-003
 -6.536680706074363E-003 -2.750685282902446E-002 -3.587581307903630E-002
 -4.932774899022787E-002 -5.946023900305967E-002 -7.075323644632280E-002
 -8.114629100007160E-002 -9.181084288002916E-002 -0.102273691668100     
 -0.112875043319074      -0.123543825874091      -0.134418055662176     
 -0.145536139514174      -0.156989392481796      -0.168826585762982     
 -0.181034927609932      -0.193315881110411      -0.204366228159424     
 -0.208614224801766      -0.177530029862255       5.012478441796885E-002
 -6.536680706074363E-003 -6.536680706074363E-003 -3.616372581816347E-002
 -4.925110218512035E-002 -6.953745628010041E-002 -8.503168342563883E-002
 -0.101961696279691      -0.117080315960755      -0.132081117464647     
 -0.146066582425425      -0.159518421941953      -0.172223460496812     
 -0.184368862476187      -0.195974865249902      -0.207190691122450     
 -0.218128001215867      -0.228876801511967      -0.239324117888478     
 -0.248457059369032      -0.252584421285610      -0.226471593421424     
 -2.030089802642509E-002 -6.536680706074363E-003 -6.536680706074363E-003
  1.037221708303749E-003  5.527445754821933E-003  1.172738932579597E-002
  1.691843076975919E-002  2.219913823560318E-002  2.680148042088884E-002
  3.091370672054606E-002  3.425857732208663E-002  3.679626738415174E-002
  3.836917114248343E-002  3.887030606811984E-002  3.815216228270310E-002
  3.605767960493421E-002  3.238714107742936E-002  2.688656085929060E-002
  1.922549093111098E-002  8.812012748199552E-003 -7.311276184276789E-003
 -2.698840350261896E-002  5.712497612060666E-002
   1.16459858419470        1.15992155947654        1.15477079497862     
   1.14907788096641        1.14276104921375        1.13572176412294     
   1.12784020016942        1.11896915097763        1.10892567638957     
   1.09747943126000        1.08433596959880        1.06911226722641     
   1.05129973883409        1.03020640715806        1.00486259147205     
  0.973858434038998       0.935043765751740       0.884911471366558     
  0.817122145994892       0.717952076931788       0.545687230928579     
   1.80484936146365        1.79693172156321        1.78819327467980     
   1.77851323084742        1.76774687130842        1.75571938109035     
   1.74221765493717        1.72697924614805        1.70967718973379     
   1.68989876312098        1.66711504942870        1.64063624387196     
   1.60954396139755        1.57258527955507        1.52799981794014     