 Title = "Wing and Wake"
 VARIABLES = "X" "Y" "Z" "GAM"
 Zone I=    5 J=   14 K=1  T="Blade"
 DATAPACKING=BLOCK
 VARLOCATION=([4]=CELLCENTERED)
  -1.24619469809175      -0.997146023568809      -0.748097349045873     
 -0.499048674522936      -0.250000000000000       -1.24619469809175     
 -0.997146023568809      -0.748097349045873      -0.499048674522936     
 -0.250000000000000       -1.24619469809175      -0.997146023568809     
 -0.748097349045873      -0.499048674522936      -0.250000000000000     
  -1.24619469809175      -0.997146023568809      -0.748097349045873     
 -0.499048674522936      -0.250000000000000       -1.24619469809175     
 -0.997146023568809      -0.748097349045873      -0.499048674522936     
 -0.250000000000000       -1.24619469809175      -0.997146023568809     
 -0.748097349045873      -0.499048674522936      -0.250000000000000     
  -1.24619469809175      -0.997146023568809      -0.748097349045873     
 -0.499048674522936      -0.250000000000000       -1.24619469809175     
 -0.997146023568809      -0.748097349045873      -0.499048674522936     
 -0.250000000000000       -1.24619469809175      -0.997146023568809     
 -0.748097349045873      -0.499048674522936      -0.250000000000000     
  -1.24619469809175      -0.997146023568809      -0.748097349045873     
 -0.499048674522936      -0.250000000000000       -1.24619469809175     
 -0.997146023568809      -0.748097349045873      -0.499048674522936     
 -0.250000000000000       -1.24619469809175      -0.997146023568809     
 -0.748097349045873      -0.499048674522936      -0.250000000000000     
  -1.24619469809175      -0.997146023568809      -0.748097349045873     
 -0.499048674522936      -0.250000000000000       -1.24619469809175     
 -0.997146023568809      -0.748097349045873      -0.499048674522936     
 -0.250000000000000     
  0.000000000000000E+000  0.000000000000000E+000  0.000000000000000E+000
  0.000000000000000E+000  0.000000000000000E+000  0.290581825739480     
  0.290581825739480       0.290581825739480       0.290581825739480     
  0.290581825739480        1.14543974346790        1.14543974346790     
   1.14543974346790        1.14543974346790        1.14543974346790     
   2.51489251828899        2.51489251828899        2.51489251828899     
   2.51489251828899        2.51489251828899        4.31935253268844     
   4.31935253268844        4.31935253268844        4.31935253268844     
   4.31935253268844        6.45395112957464        6.45395112957464     
   6.45395112957464        6.45395112957464        6.45395112957464     
   8.79463319744677        8.79463319744677        8.79463319744677     
   8.79463319744677        8.79463319744677        11.2053668025532     
   11.2053668025532        11.2053668025532        11.2053668025532     
   11.2053668025532        13.5460488704254        13.5460488704254     
   13.5460488704254        13.5460488704254        13.5460488704254     
   15.6806474673116        15.6806474673116        15.6806474673116     
   15.6806474673116        15.6806474673116        17.4851074817110     
   17.4851074817110        17.4851074817110        17.4851074817110     
   17.4851074817110        18.8545602565321        18.8545602565321     
   18.8545602565321        18.8545602565321        18.8545602565321     
   19.7094181742605        19.7094181742605        19.7094181742605     
   19.7094181742605        19.7094181742605        20.0000000000000     
   20.0000000000000        20.0000000000000        20.0000000000000     
   20.0000000000000     
  8.715574274765817E-002  6.536680706074363E-002  4.357787137382908E-002
  2.178893568691454E-002  0.000000000000000E+000  8.715574274765817E-002
  6.536680706074363E-002  4.357787137382908E-002  2.178893568691454E-002
  0.000000000000000E+000  8.715574274765817E-002  6.536680706074363E-002
  4.357787137382908E-002  2.178893568691454E-002  0.000000000000000E+000
  8.715574274765817E-002  6.536680706074363E-002  4.357787137382908E-002
  2.178893568691454E-002  0.000000000000000E+000  8.715574274765817E-002
  6.536680706074363E-002  4.357787137382908E-002  2.178893568691454E-002
  0.000000000000000E+000  8.715574274765817E-002  6.536680706074363E-002
  4.357787137382908E-002  2.178893568691454E-002  0.000000000000000E+000
  8.715574274765817E-002  6.536680706074363E-002  4.357787137382908E-002
  2.178893568691454E-002  0.000000000000000E+000  8.715574274765817E-002
  6.536680706074363E-002  4.357787137382908E-002  2.178893568691454E-002
  0.000000000000000E+000  8.715574274765817E-002  6.536680706074363E-002
  4.357787137382908E-002  2.178893568691454E-002  0.000000000000000E+000
  8.715574274765817E-002  6.536680706074363E-002  4.357787137382908E-002
  2.178893568691454E-002  0.000000000000000E+000  8.715574274765817E-002
  6.536680706074363E-002  4.357787137382908E-002  2.178893568691454E-002
  0.000000000000000E+000  8.715574274765817E-002  6.536680706074363E-002
  4.357787137382908E-002  2.178893568691454E-002  0.000000000000000E+000
  8.715574274765817E-002  6.536680706074363E-002  4.357787137382908E-002
  2.178893568691454E-002  0.000000000000000E+000  8.715574274765817E-002
  6.536680706074363E-002  4.357787137382908E-002  2.178893568691454E-002
  0.000000000000000E+000
  0.524292582097059       0.651320749992693       0.656316123428577     
  0.545687230928579       0.702261594721925       0.903309172209893     
  0.911721680397790       0.735561100336828       0.746445790259507     
  0.963623731872868       0.972791886054121       0.782326100572016     
  0.754957218342519       0.974844451492746       0.984131725034100     
  0.791278928221502       0.756905228114801       0.977379183104895     
  0.986691569924135       0.793323245359819       0.757465966388363     
  0.978105663402945       0.987425086532479       0.793911270808085     
  0.757597380292948       0.978275703146528       0.987596762326695     
  0.794049049972261       0.757465966388363       0.978105663402945     
  0.987425086532480       0.793911270808084       0.756905228114801     
  0.977379183104895       0.986691569924135       0.793323245359819     
  0.754957218342520       0.974844451492746       0.984131725034100     
  0.791278928221502       0.746445790259508       0.963623731872869     
  0.972791886054121       0.782326100572015       0.702261594721925     
  0.903309172209894       0.911721680397791       0.735561100336828     
  0.524292582097059       0.651320749992693       0.656316123428578     
  0.545687230928579     
 Zone I=    2 J=   14 K=1  T="NearWake"
 DATAPACKING=BLOCK
 VARLOCATION=([4]=CELLCENTERED)
 -0.175285397643119       7.471460235688093E-002 -0.175285397643119     
  7.471460235688093E-002 -0.175285397643119       7.471460235688093E-002
 -0.175285397643119       7.471460235688093E-002 -0.175285397643119     
  7.471460235688093E-002 -0.175285397643119       7.471460235688093E-002
 -0.175285397643119       7.471460235688093E-002 -0.175285397643119     
  7.471460235688093E-002 -0.175285397643119       7.471460235688093E-002
 -0.175285397643119       7.471460235688093E-002 -0.175285397643119     
  7.471460235688093E-002 -0.175285397643119       7.471460235688093E-002
 -0.175285397643119       7.471460235688093E-002 -0.175285397643119     
  7.471460235688093E-002
  0.000000000000000E+000  0.000000000000000E+000  0.290581825739480     
  0.290581825739480        1.14543974346790        1.14543974346790     
   2.51489251828899        2.51489251828899        4.31935253268844     
   4.31935253268844        6.45395112957464        6.45395112957464     
   8.79463319744677        8.79463319744677        11.2053668025532     
   11.2053668025532        13.5460488704254        13.5460488704254     
   15.6806474673116        15.6806474673116        17.4851074817110     
   17.4851074817110        18.8545602565321        18.8545602565321     
   19.7094181742605        19.7094181742605        20.0000000000000     
   20.0000000000000     
 -6.536680706074363E-003 -6.536680706074363E-003 -6.536680706074363E-003
 -6.536680706074363E-003 -6.536680706074363E-003 -6.536680706074363E-003
 -6.536680706074363E-003 -6.536680706074363E-003 -6.536680706074363E-003
 -6.536680706074363E-003 -6.536680706074363E-003 -6.536680706074363E-003
 -6.536680706074363E-003 -6.536680706074363E-003 -6.536680706074363E-003
 -6.536680706074363E-003 -6.536680706074363E-003 -6.536680706074363E-003
 -6.536680706074363E-003 -6.536680706074363E-003 -6.536680706074363E-003
 -6.536680706074363E-003 -6.536680706074363E-003 -6.536680706074363E-003
 -6.536680706074363E-003 -6.536680706074363E-003 -6.536680706074363E-003
 -6.536680706074363E-003
  0.545687230928579       0.735561100336828       0.782326100572016     
  0.791278928221502       0.793323245359819       0.793911270808085     
  0.794049049972261       0.793911270808084       0.793323245359819     
  0.791278928221502       0.782326100572015       0.735561100336828     
  0.545687230928579     
 Zone I=    2 J=1   K=1   T="FarWake"
 DATAPACKING=BLOCK
 VARLOCATION=([4]=CELLCENTERED)
  7.471460235688093E-002  7.471460235688093E-002
   20.0000000000000        20.0000000000000     
 -6.536680706074363E-003 -6.536680706074363E-003
  0.000000000000000E+000
