 Title = "Wing and Wake"
 VARIABLES = "X" "Y" "Z" "GAM"
 Zone I=    5 J=   14 K=1  T="Blade"
 DATAPACKING=BLOCK
 VARLOCATION=([4]=CELLCENTERED)
  -10.4961946980917       -10.2471460235688       -9.99809734904587     
  -9.74904867452294       -9.50000000000000       -10.4961946980917     
  -10.2471460235688       -9.99809734904587       -9.74904867452294     
  -9.50000000000000       -10.4961946980917       -10.2471460235688     
  -9.99809734904587       -9.74904867452294       -9.50000000000000     
  -10.4961946980917       -10.2471460235688       -9.99809734904587     
  -9.74904867452294       -9.50000000000000       -10.4961946980917     
  -10.2471460235688       -9.99809734904587       -9.74904867452294     
  -9.50000000000000       -10.4961946980917       -10.2471460235688     
  -9.99809734904587       -9.74904867452294       -9.50000000000000     
  -10.4961946980917       -10.2471460235688       -9.99809734904587     
  -9.74904867452294       -9.50000000000000       -10.4961946980917     
  -10.2471460235688       -9.99809734904587       -9.74904867452294     
  -9.50000000000000       -10.4961946980917       -10.2471460235688     
  -9.99809734904587       -9.74904867452294       -9.50000000000000     
  -10.4961946980917       -10.2471460235688       -9.99809734904587     
  -9.74904867452294       -9.50000000000000       -10.4961946980917     
  -10.2471460235688       -9.99809734904587       -9.74904867452294     
  -9.50000000000000       -10.4961946980917       -10.2471460235688     
  -9.99809734904587       -9.74904867452294       -9.50000000000000     
  -10.4961946980917       -10.2471460235688       -9.99809734904587     
  -9.74904867452294       -9.50000000000000       -10.4961946980917     
  -10.2471460235688       -9.99809734904587       -9.74904867452294     
  -9.50000000000000     
  0.000000000000000E+000  0.000000000000000E+000  0.000000000000000E+000
  0.000000000000000E+000  0.000000000000000E+000  0.290581825739480     
  0.290581825739480       0.290581825739480       0.290581825739480     
  0.290581825739480        1.14543974346790        1.14543974346790     
   1.14543974346790        1.14543974346790        1.14543974346790     
   2.51489251828899        2.51489251828899        2.51489251828899     
   2.51489251828899        2.51489251828899        4.31935253268844     
   4.31935253268844        4.31935253268844        4.31935253268844     
   4.31935253268844        6.45395112957464        6.45395112957464     
   6.45395112957464        6.45395112957464        6.45395112957464     
   8.79463319744677        8.79463319744677        8.79463319744677     
   8.79463319744677        8.79463319744677        11.2053668025532     
   11.2053668025532        11.2053668025532        11.2053668025532     
   11.2053668025532        13.5460488704254        13.5460488704254     
   13.5460488704254        13.5460488704254        13.5460488704254     
   15.6806474673116        15.6806474673116        15.6806474673116     
   15.6806474673116        15.6806474673116        17.4851074817110     
   17.4851074817110        17.4851074817110        17.4851074817110     
   17.4851074817110        18.8545602565321        18.8545602565321     
   18.8545602565321        18.8545602565321        18.8545602565321     
   19.7094181742605        19.7094181742605        19.7094181742605     
   19.7094181742605        19.7094181742605        20.0000000000000     
   20.0000000000000        20.0000000000000        20.0000000000000     
   20.0000000000000     
  8.715574274765817E-002  6.536680706074363E-002  4.357787137382908E-002
  2.178893568691454E-002  0.000000000000000E+000  8.715574274765817E-002
  6.536680706074363E-002  4.357787137382908E-002  2.178893568691454E-002
  0.000000000000000E+000  8.715574274765817E-002  6.536680706074363E-002
  4.357787137382908E-002  2.178893568691454E-002  0.000000000000000E+000
  8.715574274765817E-002  6.536680706074363E-002  4.357787137382908E-002
  2.178893568691454E-002  0.000000000000000E+000  8.715574274765817E-002
  6.536680706074363E-002  4.357787137382908E-002  2.178893568691454E-002
  0.000000000000000E+000  8.715574274765817E-002  6.536680706074363E-002
  4.357787137382908E-002  2.178893568691454E-002  0.000000000000000E+000
  8.715574274765817E-002  6.536680706074363E-002  4.357787137382908E-002
  2.178893568691454E-002  0.000000000000000E+000  8.715574274765817E-002
  6.536680706074363E-002  4.357787137382908E-002  2.178893568691454E-002
  0.000000000000000E+000  8.715574274765817E-002  6.536680706074363E-002
  4.357787137382908E-002  2.178893568691454E-002  0.000000000000000E+000
  8.715574274765817E-002  6.536680706074363E-002  4.357787137382908E-002
  2.178893568691454E-002  0.000000000000000E+000  8.715574274765817E-002
  6.536680706074363E-002  4.357787137382908E-002  2.178893568691454E-002
  0.000000000000000E+000  8.715574274765817E-002  6.536680706074363E-002
  4.357787137382908E-002  2.178893568691454E-002  0.000000000000000E+000
  8.715574274765817E-002  6.536680706074363E-002  4.357787137382908E-002
  2.178893568691454E-002  0.000000000000000E+000  8.715574274765817E-002
  6.536680706074363E-002  4.357787137382908E-002  2.178893568691454E-002
  0.000000000000000E+000
  0.749192284586007        1.00834658515959        1.14903892906795     
   1.22342318949349        1.08131781298886        1.51941364639240     
   1.76908842035950        1.90140899213027        1.25754643207594     
   1.78735352077551        2.09952680734292        2.26892767820778     
   1.34047928244943        1.91018639149750        2.24858034547511     
   2.43336598322872        1.37857923887636        1.96574721105262     
   2.31515461811913        2.50612378666685        1.39515541199003     
   1.98969824354417        2.34361589469878        2.53700660050551     
   1.39973095224174        1.99627968448409        2.35140549688080     
   2.54543261748160        1.39492042010780        1.98935899875840     
   2.34321865007762        2.53659391346197        1.37828287235524     
   1.96531259756630        2.31463769380187        2.50557839338530     
   1.34036744680372        1.91000682949030        2.24834896233368     
   2.43310360646455        1.25773719250082        1.78760082653019     
   2.09978489263423        2.26916398405539        1.08170842289135     
   1.51994017012231        1.76966790075997        1.90197827313907     
  0.749536370954857        1.00879083655931        1.14952383550282     
   1.22390694768966     
 Zone I=   31 J=   14 K=1  T="NearWake"
 DATAPACKING=BLOCK
 VARLOCATION=([4]=CELLCENTERED)
  -9.42528539764312       -9.17528539764312       -8.92497840526178     
  -8.67448708812287       -8.42382552623797       -8.17341439954311     
  -7.92252751138516       -7.67249016242274       -7.42124539651729     
  -7.16976457767312       -6.92013527076561       -6.66944248997079     
  -6.41906161607292       -6.16860801089963       -5.91821360524867     
  -5.66787600511280       -5.41759357234987       -5.16739058893188     
  -4.91727196639441       -4.66726093275032       -4.41737467048046     
  -4.16764072681558       -3.91808859991090       -3.66875646049351     
  -3.41968977428568       -3.17094485984359       -2.92258998254835     
  -2.67470711841602       -2.42738948166983       -2.18072440291667     
  -1.93473352634848       -9.42528539764312       -9.17528539764312     
  -8.92551644100483       -8.67542246032051       -8.42510481956374     
  -8.17485487209931       -7.92434569456971       -7.67405934907602     
  -7.42313637241251       -7.17284487249858       -6.92248499748786     
  -6.67217502635360       -6.42169163241937       -6.17131187603280     
  -5.92088728776451       -5.67050887438704       -5.42013281508671     
  -5.16979325354062       -4.91947909853983       -4.66920590260270     
  -4.41897611548906       -4.16880085068383       -3.91868894519545     
  -3.66865345751897       -3.41870895548947       -3.16887385934323     
  -2.91917004573711       -2.66962361262401       -2.42026360811985     
  -2.17112508706794       -1.92223327347785       -9.42528539764312     
  -9.17528539764312       -8.92594711358378       -8.67647603621683     
  -8.42687060413811       -8.17726606363770       -7.92747890831225     
  -7.67788196996357       -7.42769855268526       -7.17870102587314     
  -6.92850833389363       -6.67879059893898       -6.42885410172409     
  -6.17902066296248       -5.92914225306001       -5.67929178686862     
  -5.42943698033199       -5.17959841003577       -4.92977059892603     
  -4.67996195949794       -4.43017381126112       -4.18041129791333     
  -3.93067711955174       -3.68097438478759       -3.43130395130378     
  -3.18166406905416       -2.93204727156844       -2.68243632853766     
  -2.43279641844137       -2.18306352172041       -1.93309837099347     
  -9.42528539764312       -9.17528539764312       -8.92596125685886     
  -8.67650095873948       -8.42690477710387       -8.17731718190145     
  -7.92753785694852       -7.67796745297151       -7.42778257821167     
  -7.17881129010234       -6.92866087052375       -6.67897732199765     
  -6.42908777487028       -6.17928537666645       -5.92943992711426     
  -5.67961392852313       -5.42977861978030       -5.17994990495475     
  -4.93012066628813       -4.68029540422708       -4.43047159880461     
  -4.18064948765661       -3.93082602285564       -3.68099741233077     
  -3.43115622064375       -3.18129079665901       -2.93138189503462     
  -2.68139848131137       -2.43128972156268       -2.18097309104860     
  -1.93025995974170       -9.42528539764312       -9.17528539764312     
  -8.92596314885150       -8.67649555047030       -8.42688846743116     
  -8.17728388302348       -7.92749397839042       -7.67789379617014     
  -7.42770945906895       -7.17870196354438       -6.92854642949901     
  -6.67883732746639       -6.42893471839766       -6.17911023724740     
  -5.92924435353737       -5.67939273941445       -5.42952900862604     
  -5.17966684291823       -4.92979907077454       -4.67992910615623     
  -4.43005376790698       -4.18017249572289       -3.93028157170707     
  -3.68037666988378       -3.43045004676325       -3.18049008921736     
  -2.93047802140499       -2.68038381485985       -2.43015820441355     
  -2.17972081767113       -1.92887792660484       -9.42528539764312     
  -9.17528539764312       -8.92596470766673       -8.67649310792348     
  -8.42688063665851       -8.17726384868534       -7.92747168125016     
  -7.67784404071373       -7.42766997919680       -7.17862698321679     
  -6.92847142682886       -6.67874278506381       -6.42882966973004     
  -6.17898918259041       -5.92910904016709       -5.67924123965730     
  -5.42936106704592       -5.17948139571983       -4.92959542837880     
  -4.67970650472535       -4.42981162129135       -4.17991038627756     
  -3.92999933134691       -3.68007444618146       -3.43012835387814     
  -3.18014985631197       -2.93012059884025       -2.68001094018199     
  -2.42977189022944       -2.17932316277056       -1.92846883818586     
  -9.42528539764312       -9.17528539764312       -8.92596543910208     
  -8.67649211472890       -8.42687755893921       -8.17725485335280     
  -7.92746279057977       -7.67782036608313       -7.42765340656114     
  -7.17859140782155       -6.92843732197573       -6.67869975274104     
  -6.42878229293203       -6.17893503684468       -5.92904916031026     
  -5.67917510158858       -5.42928893002421       -5.17940324868737     
  -4.92951146035486       -4.67961692060732       -4.42971672014962     
  -4.17981054175945       -3.92989499603391       -3.67996614867085     
  -3.43001668466810       -3.18003545122460       -2.93000410743955     
  -2.67989298439217       -2.42965300466967       -2.17920372359684     
  -1.92834844734224       -9.42528539764312       -9.17528539764312     
  -8.92596520141639       -8.67649164249480       -8.42687679462978     
  -8.17725372808044       -7.92746116679359       -7.67781810586261     
  -7.42765019403552       -7.17858785573951       -6.92843331600835     
  -6.67869529563273       -6.42877734908722       -6.17892957566050     
  -5.92904314648178       -5.67916849913755       -5.42928170204558     
  -5.17939535820136       -4.92950287089338       -4.67960759693253     
  -4.42970662903274       -4.17979965284759       -3.92988328278486     
  -3.67995358935622       -3.43000326340875       -3.18002115903540     
  -2.92998894322922       -2.67987695585818       -2.42963612897361     
  -2.17918602753205       -1.92832996532381       -9.42528539764312     
  -9.17528539764312       -8.92596419098338       -8.67649206572244     
  -8.42687891528668       -8.17726126831109       -7.92746786834572     
  -7.67783863902201       -7.42766214946297       -7.17861819147626     
  -6.92846135421288       -6.67873139881323       -6.42881683985617     
  -6.17897478119279       -5.92909292052194       -5.67922324322749     
  -5.42934102290581       -5.17945912134280       -4.92957073064502     
  -4.67967918122656       -4.42978146234140       -4.17987717767980     
  -3.92996285810774       -3.68003449736380       -3.43008472867502     
  -3.18010237144946       -2.93006909721530       -2.67995530049801     
  -2.42971203692429       -2.17925907428996       -1.92840054320080     
  -9.42528539764312       -9.17528539764312       -8.92596281236028     
  -8.67649483338786       -8.42688719185219       -8.17728187679802     
  -7.92749078597000       -7.67788907707160       -7.42770224963561     
  -7.17869355655275       -6.92853642458131       -6.67882560611813     
  -6.42892106112597       -6.17909439558085       -5.92922603912805     
  -5.67937161775807       -5.42950469555829       -5.17963889482599     
  -4.92976697640073       -4.67989227502677       -4.43001151789077     
  -4.18012403848373       -3.93022599679249       -3.68031292799774     
  -3.43037693365757       -3.18040623298625       -2.93038187755416     
  -2.68027367578187       -2.43003223105682       -2.17957709650582     
  -1.92871450156833       -9.42528539764312       -9.17528539764312     
  -8.92596147525420       -8.67650131595489       -8.42690515887722     
  -8.17731758599586       -7.92753795996927       -7.67796725206775     
  -7.42778159095061       -7.17880956801650       -6.92865816727741     
  -6.67897349054936       -6.42908265208059       -6.17927874161421     
  -5.92943153194351       -5.67960346902825       -5.42976573805148     
  -5.17993416932646       -4.93010155911342       -4.68027229903580     
  -4.43044373492797       -4.18061593478332       -3.93078563444764     
  -3.68094875911550       -3.43109749112718       -3.18121963551458     
  -2.93129511888508       -2.68129154541588       -2.43115568647130     
  -2.18080062707100       -1.93002936299922       -9.42528539764312     
  -9.17528539764312       -8.92594791784379       -8.67647753286714     
  -8.42687275311076       -8.17726908095267       -7.92748267357270     
  -7.67788693607170       -7.42770506138766       -7.17870756050789     
  -6.92851492812879       -6.67879711954395       -6.42886054461266     
  -6.17902695294755       -5.92914833896598       -5.67929758699920     
  -5.42944240546039       -5.17960334249890       -4.92977489468756     
  -4.67996543484051       -4.43017623570543       -4.18041238127803     
  -3.93067650194402       -3.68097162978209       -3.43129855558634     
  -3.18165551311968       -2.93203517715925       -2.68242090848617     
  -2.43277991468521       -2.18305654289612       -1.93317460688464     
  -9.42528539764312       -9.17528539764312       -8.92551723674489     
  -8.67542374654155       -8.42510665153066       -8.17485795084096     
  -7.92434985513614       -7.67406623064098       -7.42314751818106     
  -7.17285631820142       -6.92249722001408       -6.67218786346936     
  -6.42170520106213       -6.17132624567553       -5.92090259622093     
  -5.67052527769057       -5.42015052018541       -5.16981251436283     
  -4.91950023795442       -4.66922932865091       -4.41900234512204     
  -4.16883054095165       -3.91872293409005       -3.66869282102244     
  -3.41875508693205       -3.16892858023551       -2.91923578067740     
  -2.66970370574340       -2.42036299340429       -2.17125182332745     
  -1.92240164810846       -9.42528539764312       -9.17528539764312     
  -8.92497979465681       -8.67449032365165       -8.42383095096258     
  -8.17342239765988       -7.92253828253155       -7.67250299332597     
  -7.42126003418408       -7.16978022862052       -6.92015189366670     
  -6.66946023697647       -6.41908063520275       -6.16862847228325     
  -5.91823570271507       -5.66789996653706       -5.41761966421201     
  -5.16741912539257       -4.91730331811677       -4.66729553797817     
  -4.41741304688024       -4.16768348343871       -3.91813644576835     
  -3.66881020481590       -3.41975031119773       -3.17101312715966     
  -2.92266689241450       -2.67479350589379       -2.42748636347336     
  -2.18083450908942       -1.93486655517500     
  0.000000000000000E+000  0.000000000000000E+000  3.716494653384299E-004
  1.436071455729952E-003  3.077942986022655E-003  6.015627818893881E-003
  8.040273814819811E-003  1.438695176592322E-002  1.446761175230867E-002
  2.520946738043609E-002  2.989966829080301E-002  3.681136527686379E-002
  4.397634832840442E-002  5.140775171777173E-002  5.925414384508641E-002
  6.723918213767029E-002  7.542664431655823E-002  8.364329379101640E-002
  9.185573388004573E-002  9.995156105777390E-002  0.107859648701245     
  0.115485634477400       0.122745794552131       0.129549972832976     
  0.135809014504040       0.141428788698173       0.146308304326912     
  0.150331936678177       0.153351049559801       0.155163259951725     
  0.155301867338445       0.290581825739480       0.290581825739480     
  0.290936696033440       0.289384990446245       0.287356523734972     
  0.280786121729311       0.281137898445844       0.262746321179055     
  0.273555016802336       0.244883156567398       0.242295685291635     
  0.227922354671815       0.215190681940651       0.202342129776098     
  0.187925428759486       0.173766258378612       0.158887649849252     
  0.144072919542957       0.129099897882972       0.114298953485423     
  9.969940600802116E-002  8.549033651134988E-002  7.177330669694904E-002
  5.868878284681256E-002  4.635257675752308E-002  3.489184970761199E-002
  2.443788170579176E-002  1.515249701785679E-002  7.271169659594416E-003
  1.254328188401441E-003 -1.603767239236609E-003   1.14543974346790     
   1.14543974346790        1.14556454899871        1.14550901915361     
   1.14562563955618        1.14506649290966        1.14619187382109     
   1.14331874363082        1.14732860571691        1.14271089661865     
   1.14500455982771        1.14361723579572        1.14333433371415     
   1.14281630653014        1.14222220337571        1.14159318673843     
   1.14089533666946        1.14015897861511        1.13937087621909     
   1.13854572688910        1.13768520617685        1.13680150027768     
   1.13590508501708        1.13501237680499        1.13414309420379     
   1.13332375797847        1.13258874459622        1.13198364239576     
   1.13156882794518        1.13141994144782        1.13163317809083     
   2.51489251828899        2.51489251828899        2.51493867032120     
   2.51492548054071        2.51498359417896        2.51481395553001     
   2.51525956130526        2.51426253450591        2.51578924177124     
   2.51420909758531        2.51514967590052        2.51476509974717     
   2.51478031174641        2.51474664505298        2.51469440884577     
   2.51464806378704        2.51459222573652        2.51453928299297     
   2.51448412873490        2.51443166483541        2.51438188423117     
   2.51433788140083        2.51430163271276        2.51427618708046     
   2.51426446124773        2.51426968438050        2.51429480323418     
   2.51434209549407        2.51441242408796        2.51450329303383     
   2.51460494771302        4.31935253268844        4.31935253268844     
   4.31937097525850        4.31936553893168        4.31938856533140     
   4.31932446275198        4.31949994223004        4.31911439876640     
   4.31971006158857        4.31911321412111        4.31948693586336     
   4.31935441136084        4.31937254158012        4.31937856377475     
   4.31937821483590        4.31938288148008        4.31938570261459     
   4.31939152103914        4.31939804908776        4.31940678499754     
   4.31941725462632        4.31942996202801        4.31944483304908     
   4.31946195159845        4.31948112385559        4.31950201413761     
   4.31952395789357        4.31954587305097        4.31956607197326     
   4.31958174128742        4.31958732340493        6.45395112957464     
   6.45395112957464        6.45395791760236        6.45395497536363     
   6.45396310060331        6.45393780408122        6.45400465885636     
   6.45385597746007        6.45408344437045        6.45385913588656     
   6.45400345945354        6.45395673909158        6.45396611693518     
   6.45397212006496        6.45397567546167        6.45398143709820     
   6.45398657934623        6.45399286232623        6.45399929850323     
   6.45400629967293        6.45401353995218        6.45402103196176     
   6.45402857728534        6.45403602974805        6.45404315485480     
   6.45404968558526        6.45405527279556        6.45405946843636     
   6.45406167210147        6.45406096275083        6.45405549986047     
   8.79463319744677        8.79463319744677        8.79463360141599     
   8.79463129527246        8.79463188541014        8.79462358560618     
   8.79463949788991        8.79459886601155        8.79465683695353     
   8.79459893089324        8.79463668375157        8.79462504231489     
   8.79462776474404        8.79462978216262        8.79463113052446     
   8.79463308452578        8.79463487041334        8.79463694325724     
   8.79463903192268        8.79464123103459        8.79464344515112     
   8.79464566695096        8.79464783772591        8.79464991476172     
   8.79465183690937        8.79465353914797        8.79465494106485     
   8.79465594331499        8.79465641481597        8.79465615233252     
   8.79465473584438        11.2053668025532        11.2053668025532     
   11.2053619049897        11.2053594606165        11.2053539993966     
   11.2053569521965        11.2053357731496        11.2053708910467     
   11.2053079039814        11.2053661655467        11.2053277659732     
   11.2053393273610        11.2053363053203        11.2053341868562     
   11.2053327317105        11.2053307849630        11.2053290723272     
   11.2053271786690        11.2053253699229        11.2053235702436     
   11.2053218817732        11.2053203250062        11.2053189684687     
   11.2053178662058        11.2053170894662        11.2053167133780     
   11.2053168277916        11.2053175415070        11.2053189961510     
   11.2053214113671        11.2053252556144        13.5460488704254     
   13.5460488704254        13.5460370501156        13.5460344613149     
   13.5460205583511        13.5460393300892        13.5459658848237     
   13.5461074815775        13.5458732645664        13.5460973950434     
   13.5459515363566        13.5459974012003        13.5459867988924     
   13.5459797724884        13.5459751085914        13.5459683265324     
   13.5459621840387        13.5459549863777        13.5459477208517     
   13.5459400165735        13.5459322251611        13.5459243751146     
   13.5459167054602        13.5459094110855        13.5459027785489     
   13.5458971322843        13.5458928823425        13.5458905414912     
   13.5458907796108        13.5458946009281        13.5459040003436     
   15.6806474673116        15.6806474673116        15.6806232482866     
   15.6806220301819        15.6805918975026        15.6806476806328     
   15.6804635711167        15.6808394503912        15.6802341803538     
   15.6808297267587        15.6804526930858        15.6805827014823     
   15.6805612918615        15.6805520709419        15.6805488164398     
   15.6805403927989        15.6805335070298        15.6805233918158     
   15.6805122915201        15.6804987437326        15.6804832329808     
   15.6804653063760        15.6804451034682        15.6804226484917     
   15.6803982873542        15.6803725724345        15.6803464637593     
   15.6803214403706        15.6802997156567        15.6802848155296     
   15.6802834340976        17.4851074817110        17.4851074817110     
   17.4850550389250        17.4850607777834        17.4849946350121     
   17.4851545964280        17.4846990121978        17.4856840456047     
   17.4841457706488        17.4857233937204        17.4847778678831     
   17.4851583249309        17.4851377401662        17.4851659055876     
   17.4852117564164        17.4852511285539        17.4852990762603     
   17.4853432121355        17.4853884196286        17.4854296652012     
   17.4854667250957        17.4854962826900        17.4855160799384     
   17.4855227684575        17.4855130958187        17.4854834860769     
   17.4854306542094        17.4853520484590        17.4852466755189     
   17.4851171967148        17.4849740575310        18.8545602565321     
   18.8545602565321        18.8544290145119        18.8544768680879     
   18.8543521188874        18.8549011695425        18.8537662967442     
   18.8566256580429        18.8526051306238        18.8572194126033     
   18.8549206241828        18.8563035500781        18.8565806604210     
   18.8570927634187        18.8576799634047        18.8583014300530     
   18.8589907147992        18.8597175052170        18.8604948037449     
   18.8613078069103        18.8621546551007        18.8630230621996     
   18.8639025241201        18.8647768643513        18.8656271730186     
   18.8664291137010        18.8671539035174        18.8677710001563     
   18.8682658313933        18.8687413248638        18.8703148478993     
   19.7094181742605        19.7094181742605        19.7090569693960     
   19.7106017770385        19.7126231930657        19.7191840673250     
   19.7188234035119        19.7371981127309        19.7263829724773     
   19.7550511752469        19.7576344195590        19.7720042610087     
   19.7847310776237        19.7975748181276        19.8119857901350     
   19.8261387103426        19.8410100962519        19.8558166833223     
   19.8707802964920        19.8855704448243        19.9001574166224     
   19.9143517605753        19.9280512913424        19.9411148097092     
   19.9534255274517        19.9648550240888        19.9752703823887     
   19.9845076231955        19.9923285899514        19.9982716081391     
   20.0010497319324        20.0000000000000        20.0000000000000     
   19.9996220330280        19.9985493959112        19.9968989539788     
   19.9939503553667        19.9919157276868        19.9855529376956     
   19.9854629198153        19.9747138928515        19.9700178150483     
   19.9630986330697        19.9559253673921        19.9484843406919     
   19.9406269328126        19.9326290912875        19.9244267040966     
   19.9161924828152        19.9079592089514        19.8998384362729     
   19.8919001757437        19.8842372516052        19.8769312610678     
   19.8700693284261        19.8637361877037        19.8580193371864     
   19.8530096286899        19.8488072235916        19.8455373685541     
   19.8433706312055        19.8427424288674     
 -6.536680706074363E-003 -6.536680706074363E-003 -1.345021241822286E-004
  6.972163852947548E-003  1.414230420946361E-002  2.180862055963612E-002
  2.859193761371057E-002  3.660925001932940E-002  4.269162830497901E-002
  5.186996911981208E-002  5.619333054576077E-002  6.228948000900852E-002
  6.650205615143601E-002  7.070637731899745E-002  7.385927739952769E-002
  7.645157564285504E-002  7.818108435488509E-002  7.917616287804352E-002
  7.935003456543686E-002  7.874733980695496E-002  7.735359151033722E-002
  7.519939925571442E-002  7.230491255447717E-002  6.870977802375637E-002
  6.445777350755168E-002  5.960607912732480E-002  5.422360511940337E-002
  4.839721901979871E-002  4.224680608868410E-002  3.597128414914101E-002
  2.984014210910452E-002 -6.536680706074363E-003 -6.536680706074363E-003
 -2.620910431015231E-002 -4.507082320601249E-002 -6.225029092565657E-002
 -7.977743996630526E-002 -9.469714487252744E-002 -0.111108484072449     
 -0.119314349073196      -0.145784630678319      -0.153214590843400     
 -0.167383621837995      -0.176511768729844      -0.186757874862703     
 -0.194654222464859      -0.202068711281509      -0.207952250435234     
 -0.212936923094248      -0.216709088823751      -0.219533149271369     
 -0.221375210721220      -0.222405874503164      -0.222721062624870     
 -0.222500869062314      -0.221925139835756      -0.221225563513273     
 -0.220666506581364      -0.220570480536718      -0.221332269200469     
 -0.223484127142163      -0.228007983730048      -6.536680706074363E-003
 -6.536680706074363E-003 -2.005198831011463E-002 -3.226313506142137E-002
 -4.294067882252339E-002 -5.409678591069424E-002 -6.252642375688486E-002
 -7.445455033654662E-002 -7.511850302715796E-002 -9.945778298961172E-002
 -0.101160622008436      -0.113838585269442      -0.120855817726382     
 -0.130635553352985      -0.138952416927326      -0.147941686412563     
 -0.156555733234107      -0.165337405430460      -0.174033609391957     
 -0.182788908966480      -0.191547840473638      -0.200353345938955     
 -0.209196146676617      -0.218088087267825      -0.227021844092267     
 -0.235984987695853      -0.244942369979529      -0.253826579175745     
 -0.262509931386186      -0.270751845345187      -0.278057589254073     