 Title = "Wing and Wake"
 VARIABLES = "X" "Y" "Z" "GAM"
 Zone I=    5 J=   14 K=1  T="Blade"
 DATAPACKING=BLOCK
 VARLOCATION=([4]=CELLCENTERED)
  -8.49619469809175       -8.24714602356881       -7.99809734904587     
  -7.74904867452294       -7.50000000000000       -8.49619469809175     
  -8.24714602356881       -7.99809734904587       -7.74904867452294     
  -7.50000000000000       -8.49619469809175       -8.24714602356881     
  -7.99809734904587       -7.74904867452294       -7.50000000000000     
  -8.49619469809175       -8.24714602356881       -7.99809734904587     
  -7.74904867452294       -7.50000000000000       -8.49619469809175     
  -8.24714602356881       -7.99809734904587       -7.74904867452294     
  -7.50000000000000       -8.49619469809175       -8.24714602356881     
  -7.99809734904587       -7.74904867452294       -7.50000000000000     
  -8.49619469809175       -8.24714602356881       -7.99809734904587     
  -7.74904867452294       -7.50000000000000       -8.49619469809175     
  -8.24714602356881       -7.99809734904587       -7.74904867452294     
  -7.50000000000000       -8.49619469809175       -8.24714602356881     
  -7.99809734904587       -7.74904867452294       -7.50000000000000     
  -8.49619469809175       -8.24714602356881       -7.99809734904587     
  -7.74904867452294       -7.50000000000000       -8.49619469809175     
  -8.24714602356881       -7.99809734904587       -7.74904867452294     
  -7.50000000000000       -8.49619469809175       -8.24714602356881     
  -7.99809734904587       -7.74904867452294       -7.50000000000000     
  -8.49619469809175       -8.24714602356881       -7.99809734904587     
  -7.74904867452294       -7.50000000000000       -8.49619469809175     
  -8.24714602356881       -7.99809734904587       -7.74904867452294     
  -7.50000000000000     
  0.000000000000000E+000  0.000000000000000E+000  0.000000000000000E+000
  0.000000000000000E+000  0.000000000000000E+000  0.290581825739480     
  0.290581825739480       0.290581825739480       0.290581825739480     
  0.290581825739480        1.14543974346790        1.14543974346790     
   1.14543974346790        1.14543974346790        1.14543974346790     
   2.51489251828899        2.51489251828899        2.51489251828899     
   2.51489251828899        2.51489251828899        4.31935253268844     
   4.31935253268844        4.31935253268844        4.31935253268844     
   4.31935253268844        6.45395112957464        6.45395112957464     
   6.45395112957464        6.45395112957464        6.45395112957464     
   8.79463319744677        8.79463319744677        8.79463319744677     
   8.79463319744677        8.79463319744677        11.2053668025532     
   11.2053668025532        11.2053668025532        11.2053668025532     
   11.2053668025532        13.5460488704254        13.5460488704254     
   13.5460488704254        13.5460488704254        13.5460488704254     
   15.6806474673116        15.6806474673116        15.6806474673116     
   15.6806474673116        15.6806474673116        17.4851074817110     
   17.4851074817110        17.4851074817110        17.4851074817110     
   17.4851074817110        18.8545602565321        18.8545602565321     
   18.8545602565321        18.8545602565321        18.8545602565321     
   19.7094181742605        19.7094181742605        19.7094181742605     
   19.7094181742605        19.7094181742605        20.0000000000000     
   20.0000000000000        20.0000000000000        20.0000000000000     
   20.0000000000000     
  8.715574274765817E-002  6.536680706074363E-002  4.357787137382908E-002
  2.178893568691454E-002  0.000000000000000E+000  8.715574274765817E-002
  6.536680706074363E-002  4.357787137382908E-002  2.178893568691454E-002
  0.000000000000000E+000  8.715574274765817E-002  6.536680706074363E-002
  4.357787137382908E-002  2.178893568691454E-002  0.000000000000000E+000
  8.715574274765817E-002  6.536680706074363E-002  4.357787137382908E-002
  2.178893568691454E-002  0.000000000000000E+000  8.715574274765817E-002
  6.536680706074363E-002  4.357787137382908E-002  2.178893568691454E-002
  0.000000000000000E+000  8.715574274765817E-002  6.536680706074363E-002
  4.357787137382908E-002  2.178893568691454E-002  0.000000000000000E+000
  8.715574274765817E-002  6.536680706074363E-002  4.357787137382908E-002
  2.178893568691454E-002  0.000000000000000E+000  8.715574274765817E-002
  6.536680706074363E-002  4.357787137382908E-002  2.178893568691454E-002
  0.000000000000000E+000  8.715574274765817E-002  6.536680706074363E-002
  4.357787137382908E-002  2.178893568691454E-002  0.000000000000000E+000
  8.715574274765817E-002  6.536680706074363E-002  4.357787137382908E-002
  2.178893568691454E-002  0.000000000000000E+000  8.715574274765817E-002
  6.536680706074363E-002  4.357787137382908E-002  2.178893568691454E-002
  0.000000000000000E+000  8.715574274765817E-002  6.536680706074363E-002
  4.357787137382908E-002  2.178893568691454E-002  0.000000000000000E+000
  8.715574274765817E-002  6.536680706074363E-002  4.357787137382908E-002
  2.178893568691454E-002  0.000000000000000E+000  8.715574274765817E-002
  6.536680706074363E-002  4.357787137382908E-002  2.178893568691454E-002
  0.000000000000000E+000
  0.731510683192899       0.983902868889351        1.12056305418529     
   1.19260406023745        1.05451975823684        1.48100985337018     
   1.72359161293562        1.85186660549901        1.22323966845206     
   1.73776325050649        2.04038663409503        2.20425700841696     
   1.29943274370760        1.85071557669273        2.17750480778708     
   2.35549946877579        1.33195044197250        1.89814835743790     
   2.23432247983417        2.41753033550707        1.34499237835810     
   1.91698355669457        2.25668070104576        2.44174520264853     
   1.34847174208468        1.92198358489228        2.26258818355809     
   2.44811534318844        1.34499237835810        1.91698355669457     
   2.25668070104576        2.44174520264853        1.33195044197250     
   1.89814835743790        2.23432247983417        2.41753033550707     
   1.29943274370760        1.85071557669273        2.17750480778708     
   2.35549946877579        1.22323966845206        1.73776325050649     
   2.04038663409503        2.20425700841696        1.05451975823684     
   1.48100985337018        1.72359161293562        1.85186660549902     
  0.731510683192900       0.983902868889351        1.12056305418529     
   1.19260406023746     
 Zone I=   31 J=   14 K=1  T="NearWake"
 DATAPACKING=BLOCK
 VARLOCATION=([4]=CELLCENTERED)
  -7.42528539764312       -7.17528539764312       -6.92471321485216     
  -6.67415985734957       -6.42360079064041       -6.17302999888236     
  -5.92249715945233       -5.67197808611126       -5.42150155933492     
  -5.17106220067561       -4.92067704691105       -4.67035275780353     
  -4.42010536229016       -4.16995030917764       -3.91990912037835     
  -3.67000734507245       -3.42027756772072       -3.17076033251335     
  -2.92150692942534       -2.67258216085455       -2.42406818885597     
  -2.17606870153779       -1.92871286043771       -1.68215620111661     
  -1.43657131344606       -1.19210930804279      -0.948794774719984     
 -0.706146524433624      -0.462622637180030      -0.195652984326297     
  7.457006467568130E-003  -7.42528539764312       -7.17528539764312     
  -6.92559653814272       -6.67532014921097       -6.42514525962819     
  -6.17482354627585       -5.92452214313702       -5.67417964720074     
  -5.42384609582264       -5.17350843038448       -4.92318546493358     
  -4.67287834368257       -4.42259780238110       -4.17234999105249     
  -3.92214474619308       -3.67199153269779       -3.42190233008538     
  -3.17189049724454       -2.92197180286475       -2.67216367170812     
  -2.42248415782941       -2.17294771378558       -1.92355455203851     
  -1.67426262126012       -1.42491546344178       -1.17505498600148     
 -0.923486696424079      -0.667316542411146      -0.395592141941081     
 -4.090601157409529E-002  3.374566700544105E-003  -7.42528539764312     
  -7.17528539764312       -6.92629976551075       -6.67663044363225     
  -6.42713579381915       -6.17744665362741       -5.92777824020979     
  -5.67804226235805       -5.42830066030957       -5.17853316218003     
  -4.92876077920720       -4.67898095276667       -4.42920303325934     
  -4.17942924480949       -3.92966519651787       -3.67991381868347     
  -3.43017813892653       -3.18045845534771       -2.93075156668131     
  -2.68104676554061       -2.43131977007929       -2.18152006787418     
  -1.93154611136263       -1.68119275908726       -1.43003433954164     
  -1.17714067624116      -0.920320870338097      -0.653781055799626     
 -0.359064664700548       6.393788284961056E-002 -4.913223860877466E-002
  -7.42528539764312       -7.17528539764312       -6.92630843854865     
  -6.67664259344688       -6.42715343655964       -6.17747208172054     
  -5.92781344304113       -5.67808699793909       -5.42835432578963     
  -5.17859266540156       -4.92882183110465       -4.67903640645108     
  -4.42924311677207       -4.17944021091455       -3.92962872325139     
  -3.67980555563711       -3.42996634259255       -3.18010199567669     
  -2.93019760779231       -2.68022776749105       -2.43014985601199     
  -2.17989054711840       -1.92931999134283       -1.67819753705131     
  -1.42605077849844       -1.17187934498275      -0.913358606380897     
 -0.644343272661969      -0.345121421492839       7.726674553688788E-002
 -6.417543304623585E-002  -7.42528539764312       -7.17528539764312     
  -6.92630299635806       -6.67662238809906       -6.42711581856704     
  -6.17741345388479       -5.92773293526076       -5.67798212328076     
  -5.42822371136217       -5.17843353567794       -4.92863149016621     
  -4.67881102014317       -4.42897837134320       -4.17913079858254     
  -3.92926863063128       -3.67938791959549       -3.42948366647405     
  -3.17954627022846       -2.92956064451177       -2.67950158027479     
  -2.42932717213363       -2.17896529733180       -1.92828757333353     
  -1.67705429693858       -1.42479146820049       -1.17048972784058     
 -0.911795890636586      -0.642473512128734      -0.342437229069716     
  7.890941361420487E-002 -6.886583027638155E-002  -7.42528539764312     
  -7.17528539764312       -6.92629951881140       -6.67660970372906     
  -6.42709313552704       -6.17737779547393       -5.92768403576756     
  -5.67791832540696       -5.42814466562584       -5.17833824744184     
  -4.92851953853330       -4.67868176716137       -4.42883146913151     
  -4.17896592124213       -3.92908569517269       -3.67918702859519     
  -3.42926522011636       -3.17931097423125       -2.92930955630402     
  -2.67923608851709       -2.42904893462788       -2.17867607209822     
  -1.92798889501689       -1.67674688059502       -1.42447411081961     
  -1.17015714232018      -0.911433782168265      -0.642043246429097     
 -0.341805391044782       7.920136147029343E-002 -7.012516387277819E-002
  -7.42528539764312       -7.17528539764312       -6.92629798127469     
  -6.67660424074247       -6.42708374806503       -6.17736319086577     
  -5.92766434236774       -5.67789295592704       -5.42811371839534     
  -5.17830155133251       -4.92847723789075       -4.67863395262219     
  -4.42877839533493       -4.17890787552633       -3.92902307032334     
  -3.67912027421540       -3.42919485761626       -3.17923756766226     
  -2.92923369665085       -2.67915835576222       -2.42896985203017     
  -2.17859603692180       -1.92790807932912       -1.67666507682461     
  -1.42439046875505       -1.17006965598030      -0.911338086289139     
 -0.641928699938021      -0.341636812289183       7.928011537223079E-002
 -7.046216138641126E-002  -7.42528539764312       -7.17528539764312     
  -6.92629798127469       -6.67660424074247       -6.42708374806503     
  -6.17736319086577       -5.92766434236774       -5.67789295592704     
  -5.42811371839534       -5.17830155133251       -4.92847723789075     
  -4.67863395262219       -4.42877839533493       -4.17890787552633     
  -3.92902307032334       -3.67912027421540       -3.42919485761626     
  -3.17923756766226       -2.92923369665085       -2.67915835576222     
  -2.42896985203017       -2.17859603692180       -1.92790807932912     
  -1.67666507682461       -1.42439046875505       -1.17006965598030     
 -0.911338086289139      -0.641928699938021      -0.341636812289182     
  7.928011537223059E-002 -7.046216138641123E-002  -7.42528539764312     
  -7.17528539764312       -6.92629951881140       -6.67660970372906     
  -6.42709313552704       -6.17737779547393       -5.92768403576756     
  -5.67791832540696       -5.42814466562584       -5.17833824744184     
  -4.92851953853330       -4.67868176716137       -4.42883146913151     
  -4.17896592124213       -3.92908569517269       -3.67918702859519     
  -3.42926522011636       -3.17931097423125       -2.92930955630402     
  -2.67923608851709       -2.42904893462788       -2.17867607209822     
  -1.92798889501689       -1.67674688059502       -1.42447411081961     
  -1.17015714232018      -0.911433782168265      -0.642043246429097     
 -0.341805391044782       7.920136147029345E-002 -7.012516387277819E-002
  -7.42528539764312       -7.17528539764312       -6.92630299635806     
  -6.67662238809906       -6.42711581856704       -6.17741345388479     
  -5.92773293526076       -5.67798212328076       -5.42822371136217     
  -5.17843353567794       -4.92863149016621       -4.67881102014317     
  -4.42897837134320       -4.17913079858254       -3.92926863063128     
  -3.67938791959549       -3.42948366647405       -3.17954627022846     
  -2.92956064451177       -2.67950158027479       -2.42932717213363     
  -2.17896529733180       -1.92828757333353       -1.67705429693858     
  -1.42479146820049       -1.17048972784058      -0.911795890636586     
 -0.642473512128734      -0.342437229069715       7.890941361420473E-002
 -6.886583027638155E-002  -7.42528539764312       -7.17528539764312     
  -6.92630843854865       -6.67664259344688       -6.42715343655964     
  -6.17747208172054       -5.92781344304113       -5.67808699793909     
  -5.42835432578963       -5.17859266540156       -4.92882183110465     
  -4.67903640645108       -4.42924311677207       -4.17944021091455     
  -3.92962872325139       -3.67980555563711       -3.42996634259255     
  -3.18010199567669       -2.93019760779231       -2.68022776749105     
  -2.43014985601199       -2.17989054711840       -1.92931999134283     
  -1.67819753705131       -1.42605077849844       -1.17187934498275     
 -0.913358606380897      -0.644343272661968      -0.345121421492839     
  7.726674553688748E-002 -6.417543304623614E-002  -7.42528539764312     
  -7.17528539764312       -6.92629976551075       -6.67663044363225     
  -6.42713579381915       -6.17744665362741       -5.92777824020979     
  -5.67804226235805       -5.42830066030957       -5.17853316218003     
  -4.92876077920720       -4.67898095276667       -4.42920303325934     
  -4.17942924480949       -3.92966519651787       -3.67991381868347     
  -3.43017813892653       -3.18045845534771       -2.93075156668131     
  -2.68104676554061       -2.43131977007929       -2.18152006787418     
  -1.93154611136263       -1.68119275908726       -1.43003433954164     
  -1.17714067624116      -0.920320870338097      -0.653781055799626     
 -0.359064664700548       6.393788284961038E-002 -4.913223860877509E-002
  -7.42528539764312       -7.17528539764312       -6.92559653814272     
  -6.67532014921097       -6.42514525962819       -6.17482354627585     
  -5.92452214313702       -5.67417964720074       -5.42384609582264     
  -5.17350843038448       -4.92318546493358       -4.67287834368257     
  -4.42259780238110       -4.17234999105249       -3.92214474619308     
  -3.67199153269779       -3.42190233008538       -3.17189049724454     
  -2.92197180286475       -2.67216367170812       -2.42248415782941     
  -2.17294771378558       -1.92355455203851       -1.67426262126012     
  -1.42491546344178       -1.17505498600148      -0.923486696424078     
 -0.667316542411144      -0.395592141941081      -4.090601157409625E-002
  3.374566700542704E-003  -7.42528539764312       -7.17528539764312     
  -6.92471321485216       -6.67415985734957       -6.42360079064041     
  -6.17302999888236       -5.92249715945233       -5.67197808611126     
  -5.42150155933492       -5.17106220067561       -4.92067704691105     
  -4.67035275780353       -4.42010536229016       -4.16995030917764     
  -3.91990912037835       -3.67000734507245       -3.42027756772072     
  -3.17076033251335       -2.92150692942534       -2.67258216085455     
  -2.42406818885597       -2.17606870153780       -1.92871286043771     
  -1.68215620111661       -1.43657131344606       -1.19210930804279     
 -0.948794774719983      -0.706146524433623      -0.462622637180032     
 -0.195652984326298       7.457006467570628E-003
  0.000000000000000E+000  0.000000000000000E+000  6.033071763704846E-004
  2.324948028246152E-003  4.364459923663423E-003  7.310858778098539E-003
  1.078135922984028E-002  1.494540135255782E-002  1.964330339851379E-002
  2.487990785271666E-002  3.056127335410246E-002  3.663254024323706E-002
  4.300770306881289E-002  4.960464670669299E-002  5.632768848839845E-002
  6.307542114082201E-002  6.973613011186108E-002  7.618847784230476E-002
  8.229884253846062E-002  8.791878861881007E-002  9.288072410973204E-002
  9.699218832077632E-002  0.100028231463307       0.101725112300561     
  0.101775529094133       9.981559925907499E-002  9.578130278214218E-002
  9.130356126860800E-002  9.057502305521167E-002  5.369788803526936E-002
  7.392677663319019E-002  0.290581825739480       0.290581825739480     
  0.291246441516132       0.287738686356816       0.285096265319524     
  0.279666488485306       0.273825889732714       0.266359452631231     
  0.258046894999134       0.248626616310074       0.238389847242242     
  0.227363001058780       0.215718881717508       0.203574612497591     
  0.191089161620015       0.178417729772366       0.165732172867525     
  0.153213156864032       0.141056337050050       0.129476252211182     
  0.118715964419389       0.109063200035781       0.100877713305871     
  9.464287801664600E-002  9.105702970360395E-002  9.120973870688967E-002
  9.703000211093722E-002  0.112412864878442       0.148795580788422     
  0.210363113659534       0.327868928728298        1.14543974346790     
   1.14543974346790        1.14569635578139        1.14541129743311     
   1.14554479729730        1.14534205318714        1.14525139607622     
   1.14502857346927        1.14480480025781        1.14451055843208     
   1.14418324817919        1.14380521166719        1.14338877650081     
   1.14293233362517        1.14244370103712        1.14192871359646     
   1.14139797576974        1.14086450717379        1.14034640090495     
   1.13986743832274        1.13945956216252        1.13916575687629     
   1.13904401713924        1.13917273707344        1.13965822282488     
   1.14064881268139        1.14236756980200        1.14513395961983     
   1.14950733820153        1.15058365570617        1.16693135815495     
   2.51489251828899        2.51489251828899        2.51499102863755     
   2.51490454387595        2.51497969062974        2.51494745650649     
   2.51496591492712        2.51495206236134        2.51495031860847     
   2.51493819129597        2.51492824273043        2.51491530559476     
   2.51490367391163        2.51489318804787        2.51488641494406     
   2.51488503857480        2.51489173868531        2.51490923798931     
   2.51494070671091        2.51498935671460        2.51505836819622     
   2.51515077669353        2.51526931693578        2.51541632216957     
   2.51559397327356        2.51580649859695        2.51606876795307     
   2.51639840426020        2.51685549312446        2.51582887074963     
   2.52048206332749        4.31935253268844        4.31935253268844     
   4.31939427168507        4.31936446621917        4.31939843810608     
   4.31939275101996        4.31940767455602        4.31941239962655     
   4.31942333821877        4.31943238328611        4.31944397068287     
   4.31945617654052        4.31947027653900        4.31948590698730     
   4.31950348782664        4.31952298553069        4.31954450396904     
   4.31956795169377        4.31959315714659        4.31961974578229     
   4.31964714624911        4.31967463895705        4.31970145946049     
   4.31972692864655        4.31975066171500        4.31977316971512     
   4.31979768555318        4.31982744571195        4.31987389887125     
   4.31949209961071        4.32086364899364        6.45395112957464     
   6.45395112957464        6.45396894905919        6.45395895313027     
   6.45397360301024        6.45397336402378        6.45398100372977     
   6.45398501967829        6.45399142634630        6.45399722459425     
   6.45400394053730        6.45401080584702        6.45401816232884     
   6.45402576397842        6.45403362056495        6.45404157976759     
   6.45404953352125        6.45405731640713        6.45406475456266     
   6.45407163807394        6.45407773400040        6.45408281232414     
   6.45408668895963        6.45408926497181        6.45409057677060     
   6.45409094523445        6.45409144996244        6.45409307845378     
   6.45409858639911        6.45397311083438        6.45443600407067     
   8.79463319744677        8.79463319744677        8.79463819735202     
   8.79463581108287        8.79463989426866        8.79464009566575     
   8.79464232772404        8.79464361532215        8.79464549271152     
   8.79464718732778        8.79464907542468        8.79465095389300     
   8.79465289766593        8.79465483604067        8.79465676271307     
   8.79465863356804        8.79466041791143        8.79466207447715     
   8.79466356384113        8.79466484220399        8.79466586452753     
   8.79466659048938        8.79466699433601        8.79466707281062     
   8.79466685476150        8.79466643310975        8.79466607154335     
   8.79466600374478        8.79466682502455        8.79463709956682     
   8.79475270248341        11.2053668025532        11.2053668025532     
   11.2053618026480        11.2053641889171        11.2053601057313     
   11.2053599043342        11.2053576722760        11.2053563846778     
   11.2053545072885        11.2053528126722        11.2053509245753     
   11.2053490461070        11.2053471023341        11.2053451639593     
   11.2053432372869        11.2053413664320        11.2053395820886     
   11.2053379255228        11.2053364361589        11.2053351577960     
   11.2053341354725        11.2053334095106        11.2053330056640     
   11.2053329271894        11.2053331452385        11.2053335668902     
   11.2053339284566        11.2053339962552        11.2053331749754     
   11.2053629004332        11.2052472975166        13.5460488704254     
   13.5460488704254        13.5460310509408        13.5460410468697     
   13.5460263969898        13.5460266359762        13.5460189962702     
   13.5460149803217        13.5460085736537        13.5460027754057     
   13.5459960594627        13.5459891941530        13.5459818376712     
   13.5459742360216        13.5459663794351        13.5459584202324     
   13.5459504664787        13.5459426835929        13.5459352454373     
   13.5459283619261        13.5459222659996        13.5459171876759     
   13.5459133110404        13.5459107350282        13.5459094232294     
   13.5459090547656        13.5459085500376        13.5459069215462     
   13.5459014136009        13.5460268891656        13.5455639959293     
   15.6806474673116        15.6806474673116        15.6806057283149     
   15.6806355337808        15.6806015618939        15.6806072489800     
   15.6805923254440        15.6805876003734        15.6805766617812     
   15.6805676167139        15.6805560293171        15.6805438234595     
   15.6805297234610        15.6805140930127        15.6804965121734     
   15.6804770144693        15.6804554960310        15.6804320483062     
   15.6804068428534        15.6803802542177        15.6803528537509     
   15.6803253610429        15.6802985405395        15.6802730713534     
   15.6802493382850        15.6802268302849        15.6802023144468     
   15.6801725542881        15.6801261011288        15.6805079003893     
   15.6791363510064        17.4851074817110        17.4851074817110     
   17.4850089713624        17.4850954561240        17.4850203093703     
   17.4850525434935        17.4850340850729        17.4850479376387     
   17.4850496813915        17.4850618087040        17.4850717572696     
   17.4850846944052        17.4850963260884        17.4851068119521     
   17.4851135850559        17.4851149614252        17.4851082613147     
   17.4850907620107        17.4850592932891        17.4850106432854     
   17.4849416318038        17.4848492233065        17.4847306830642     
   17.4845836778304        17.4844060267264        17.4841935014031     
   17.4839312320469        17.4836015957398        17.4831445068756     
   17.4841711292504        17.4795179366725        18.8545602565321     
   18.8545602565321        18.8543036442186        18.8545887025669     
   18.8544552027027        18.8546579468129        18.8547486039238     
   18.8549714265307        18.8551951997422        18.8554894415679     
   18.8558167518208        18.8561947883328        18.8566112234992     
   18.8570676663748        18.8575562989629        18.8580712864035     
   18.8586020242303        18.8591354928262        18.8596535990951     
   18.8601325616773        18.8605404378375        18.8608342431237     
   18.8609559828608        18.8608272629266        18.8603417771751     
   18.8593511873186        18.8576324301980        18.8548660403802     
   18.8504926617985        18.8494163442938        18.8330686418451     
   19.7094181742605        19.7094181742605        19.7087535584839     
   19.7122613136432        19.7149037346805        19.7203335115147     
   19.7261741102673        19.7336405473688        19.7419531050009     
   19.7513733836899        19.7616101527578        19.7726369989412     
   19.7842811182825        19.7964253875024        19.8089108383800     
   19.8215822702276        19.8342678271325        19.8467868431360     
   19.8589436629500        19.8705237477888        19.8812840355806     
   19.8909367999642        19.8991222866941        19.9053571219834     
   19.9089429702964        19.9087902612931        19.9029699978891     
   19.8875871351216        19.8512044192116        19.7896368863405     
   19.6721310712717        20.0000000000000        20.0000000000000     
   19.9993966928236        19.9976750519718        19.9956355400763     
   19.9926891412219        19.9892186407702        19.9850545986474     
   19.9803566966015        19.9751200921473        19.9694387266459     
   19.9633674597568        19.9569922969312        19.9503953532933     
   19.9436723115116        19.9369245788592        19.9302638698881     
   19.9238115221577        19.9177011574615        19.9120812113812     
   19.9071192758903        19.9030078116792        19.8999717685367     
   19.8982748876994        19.8982244709059        19.9001844007409     
   19.9042186972179        19.9086964387314        19.9094249769448     
   19.9463021119647        19.9260732233668     
 -6.536680706074363E-003 -6.536680706074363E-003  1.997704686463177E-003
  7.104706664445641E-003  1.431250480191331E-002  2.051480281386545E-002
  2.705414094313866E-002  3.305622885496184E-002  3.880853983506656E-002
  4.402375850323335E-002  4.872542627150867E-002  5.279109635591783E-002
  5.618519605521291E-002  5.883950140230972E-002  6.071357604763430E-002
  6.176405266936053E-002  6.195990945146107E-002  6.127441245413806E-002
  5.968833077254234E-002  5.718701734271601E-002  5.375953500561546E-002
  4.939505473228280E-002  4.407777177285182E-002  3.777778125014528E-002
  3.044556432119168E-002  2.201211947451876E-002  1.228449514011862E-002
  1.125115693637978E-003 -2.157553354736746E-002 -3.959173582665215E-002
  8.014358049975055E-002 -6.536680706074363E-003 -6.536680706074363E-003
 -3.622900924664728E-002 -4.930481047519772E-002 -6.959920150949231E-002
 -8.503251757094266E-002 -0.101874620834641      -0.116814828716704     
 -0.131550681611002      -0.145127599939692      -0.157995444071664     
 -0.169874498848203      -0.180885114857728      -0.190959556374992     
 -0.200155712209445      -0.208499242807465      -0.216071946337735     
 -0.222971974514083      -0.229341179144406      -0.235358921668914     
 -0.241254336951465      -0.247310299393035      -0.253872255910252     
 -0.261344673666730      -0.270160995592164      -0.280682863089498     
 -0.292814435016657      -0.304509667316500      -0.312639109662438     
 -0.260861106176290      -3.808521364415727E-002 -6.536680706074363E-003
 -6.536680706074363E-003 -2.726285255508469E-002 -3.542731852888335E-002
 -4.856520143714209E-002 -5.834813351985025E-002 -6.920440836854558E-002
 -7.908471334357167E-002 -8.913291176658765E-002 -9.886346376383676E-002
 -0.108589126885312      -0.118211596956852      -0.127832228708049     
 -0.137449083900016      -0.147111213723614      -0.156843242605782     
 -0.166684947515285      -0.176673084976015      -0.186852219240324     
 -0.197270966815566      -0.207985112092798      -0.219055544949488     
 -0.230543991657948      -0.242496571759045      -0.254895654619087     
 -0.267518518598012      -0.279490405194018      -0.287753042033830     
 -0.280333383721362      -0.156942168217566       4.485230390232583E-002