 Title = "Wing and Wake"
 VARIABLES = "X" "Y" "Z" "GAM"
 Zone I=    5 J=   14 K=1  T="Blade"
 DATAPACKING=BLOCK
 VARLOCATION=([4]=CELLCENTERED)
  -5.49619469809175       -5.24714602356881       -4.99809734904587     
  -4.74904867452294       -4.50000000000000       -5.49619469809175     
  -5.24714602356881       -4.99809734904587       -4.74904867452294     
  -4.50000000000000       -5.49619469809175       -5.24714602356881     
  -4.99809734904587       -4.74904867452294       -4.50000000000000     
  -5.49619469809175       -5.24714602356881       -4.99809734904587     
  -4.74904867452294       -4.50000000000000       -5.49619469809175     
  -5.24714602356881       -4.99809734904587       -4.74904867452294     
  -4.50000000000000       -5.49619469809175       -5.24714602356881     
  -4.99809734904587       -4.74904867452294       -4.50000000000000     
  -5.49619469809175       -5.24714602356881       -4.99809734904587     
  -4.74904867452294       -4.50000000000000       -5.49619469809175     
  -5.24714602356881       -4.99809734904587       -4.74904867452294     
  -4.50000000000000       -5.49619469809175       -5.24714602356881     
  -4.99809734904587       -4.74904867452294       -4.50000000000000     
  -5.49619469809175       -5.24714602356881       -4.99809734904587     
  -4.74904867452294       -4.50000000000000       -5.49619469809175     
  -5.24714602356881       -4.99809734904587       -4.74904867452294     
  -4.50000000000000       -5.49619469809175       -5.24714602356881     
  -4.99809734904587       -4.74904867452294       -4.50000000000000     
  -5.49619469809175       -5.24714602356881       -4.99809734904587     
  -4.74904867452294       -4.50000000000000       -5.49619469809175     
  -5.24714602356881       -4.99809734904587       -4.74904867452294     
  -4.50000000000000     
  0.000000000000000E+000  0.000000000000000E+000  0.000000000000000E+000
  0.000000000000000E+000  0.000000000000000E+000  0.290581825739480     
  0.290581825739480       0.290581825739480       0.290581825739480     
  0.290581825739480        1.14543974346790        1.14543974346790     
   1.14543974346790        1.14543974346790        1.14543974346790     
   2.51489251828899        2.51489251828899        2.51489251828899     
   2.51489251828899        2.51489251828899        4.31935253268844     
   4.31935253268844        4.31935253268844        4.31935253268844     
   4.31935253268844        6.45395112957464        6.45395112957464     
   6.45395112957464        6.45395112957464        6.45395112957464     
   8.79463319744677        8.79463319744677        8.79463319744677     
   8.79463319744677        8.79463319744677        11.2053668025532     
   11.2053668025532        11.2053668025532        11.2053668025532     
   11.2053668025532        13.5460488704254        13.5460488704254     
   13.5460488704254        13.5460488704254        13.5460488704254     
   15.6806474673116        15.6806474673116        15.6806474673116     
   15.6806474673116        15.6806474673116        17.4851074817110     
   17.4851074817110        17.4851074817110        17.4851074817110     
   17.4851074817110        18.8545602565321        18.8545602565321     
   18.8545602565321        18.8545602565321        18.8545602565321     
   19.7094181742605        19.7094181742605        19.7094181742605     
   19.7094181742605        19.7094181742605        20.0000000000000     
   20.0000000000000        20.0000000000000        20.0000000000000     
   20.0000000000000     
  8.715574274765817E-002  6.536680706074363E-002  4.357787137382908E-002
  2.178893568691454E-002  0.000000000000000E+000  8.715574274765817E-002
  6.536680706074363E-002  4.357787137382908E-002  2.178893568691454E-002
  0.000000000000000E+000  8.715574274765817E-002  6.536680706074363E-002
  4.357787137382908E-002  2.178893568691454E-002  0.000000000000000E+000
  8.715574274765817E-002  6.536680706074363E-002  4.357787137382908E-002
  2.178893568691454E-002  0.000000000000000E+000  8.715574274765817E-002
  6.536680706074363E-002  4.357787137382908E-002  2.178893568691454E-002
  0.000000000000000E+000  8.715574274765817E-002  6.536680706074363E-002
  4.357787137382908E-002  2.178893568691454E-002  0.000000000000000E+000
  8.715574274765817E-002  6.536680706074363E-002  4.357787137382908E-002
  2.178893568691454E-002  0.000000000000000E+000  8.715574274765817E-002
  6.536680706074363E-002  4.357787137382908E-002  2.178893568691454E-002
  0.000000000000000E+000  8.715574274765817E-002  6.536680706074363E-002
  4.357787137382908E-002  2.178893568691454E-002  0.000000000000000E+000
  8.715574274765817E-002  6.536680706074363E-002  4.357787137382908E-002
  2.178893568691454E-002  0.000000000000000E+000  8.715574274765817E-002
  6.536680706074363E-002  4.357787137382908E-002  2.178893568691454E-002
  0.000000000000000E+000  8.715574274765817E-002  6.536680706074363E-002
  4.357787137382908E-002  2.178893568691454E-002  0.000000000000000E+000
  8.715574274765817E-002  6.536680706074363E-002  4.357787137382908E-002
  2.178893568691454E-002  0.000000000000000E+000  8.715574274765817E-002
  6.536680706074363E-002  4.357787137382908E-002  2.178893568691454E-002
  0.000000000000000E+000
  0.710427946253063       0.953176282826990        1.08273256474118     
   1.14907788096641        1.02076642180881        1.43030948694287     
   1.66025264794323        1.77851323084742        1.17675037147704     
   1.66741674195590        1.95198354076006        2.10144228339342     
   1.24152415693497        1.76302309675338        2.06726583241264     
   2.22731385359648        1.26597625388196        1.79837846123794     
   2.10911981889374        2.27226609673353        1.27472236957837     
   1.81086190520090        2.12371873531576        2.28776550886683     
   1.27691116825165        1.81396731925654        2.12732991455451     
   2.29157900258208        1.27472236957838        1.81086190520090     
   2.12371873531576        2.28776550886683        1.26597625388196     
   1.79837846123794        2.10911981889374        2.27226609673353     
   1.24152415693497        1.76302309675338        2.06726583241264     
   2.22731385359648        1.17675037147704        1.66741674195590     
   1.95198354076006        2.10144228339343        1.02076642180881     
   1.43030948694287        1.66025264794323        1.77851323084742     
  0.710427946253063       0.953176282826990        1.08273256474119     
   1.14907788096641     
 Zone I=   19 J=   14 K=1  T="NearWake"
 DATAPACKING=BLOCK
 VARLOCATION=([4]=CELLCENTERED)
  -4.42528539764312       -4.17528539764312       -3.92479387525466     
  -3.67433403381520       -3.42391241723486       -3.17352711628330     
  -2.92324538562661       -2.67306451707003       -2.42304148691922     
  -2.17320961684416       -1.92363705608164       -1.67439867380032     
  -1.42559851248262       -1.17735702164864      -0.929792192119873     
 -0.682901933388742      -0.436156104743645      -0.182121396030606     
  5.208894474521759E-002  -4.42528539764312       -4.17528539764312     
  -3.92573517241521       -3.67555443599014       -3.42556737818674     
  -3.17542645262940       -2.92538024738969       -2.67532216087854     
  -2.42534798398723       -2.17542881024929       -1.92560667070825     
  -1.67586531884713       -1.42618262832993       -1.17641873460402     
 -0.926156092042776      -0.674011625050167      -0.414696330812003     
 -0.117249473942815       5.097483842622332E-002  -4.42528539764312     
  -4.17528539764312       -3.92636436385588       -3.67670341765814     
  -3.42728980959757       -3.17764800598325       -2.92807365345372     
  -2.67841891871909       -2.42878055212547       -2.17909809135571     
  -1.92938300684050       -1.67955985580462       -1.42951521464687     
  -1.17894728145705      -0.927133494053641      -0.672020088346163     
 -0.406587331617429      -8.242818695814219E-002  2.770276757937723E-002
  -4.42528539764312       -4.17528539764312       -3.92635658421154     
  -3.67667293674068       -3.42723611050238       -3.17755329213693     
  -2.92792899390400       -2.67819772712059       -2.42845717606096     
  -2.17863134912011       -1.92872490533931       -1.67864640495782     
  -1.42826890903182       -1.17726928062125      -0.924890913287245     
 -0.668990033708937      -0.402264740913291      -7.314050989043776E-002
  2.113134178256133E-002  -4.42528539764312       -4.17528539764312     
  -3.92634082530922       -3.67662974032599       -3.42716574904925     
  -3.17744618698531       -2.92778623653320       -2.67801314318724     
  -2.42823046286492       -2.17835895810644       -1.92840622656788     
  -1.67827973999364       -1.42785323289245       -1.17680076848673     
 -0.924358803777527      -0.668363355173797      -0.401453287886373     
 -7.140728156237905E-002  1.933000604198263E-002  -4.42528539764312     
  -4.17528539764312       -3.92633439983501       -3.67661110529723     
  -3.42713698430509       -3.17740342298430       -2.92773162999311     
  -2.67794542352600       -2.42815124216649       -2.17826845768892     
  -1.92830571345762       -1.67816977552346       -1.42773423893877     
  -1.17667194264501      -0.924217263486992      -0.668201254093650     
 -0.401249028761977      -7.098882224924169E-002  1.888415856633439E-002
  -4.42528539764312       -4.17528539764312       -3.92633264394838     
  -3.67660530201725       -3.42712830703231       -3.17739050897244     
  -2.92771540591661       -2.67792550187185       -2.42812820072483     
  -2.17824235103701       -1.92827688476963       -1.67813830361622     
  -1.42770013310915       -1.17663485333725      -0.924176284523227     
 -0.668154178310766      -0.401190016079507      -7.087075614037731E-002
  1.877126007422819E-002  -4.42528539764312       -4.17528539764312     
  -3.92633264394838       -3.67660530201725       -3.42712830703231     
  -3.17739050897244       -2.92771540591661       -2.67792550187185     
  -2.42812820072483       -2.17824235103701       -1.92827688476963     
  -1.67813830361622       -1.42770013310915       -1.17663485333725     
 -0.924176284523227      -0.668154178310766      -0.401190016079507     
 -7.087075614037747E-002  1.877126007422821E-002  -4.42528539764312     
  -4.17528539764312       -3.92633439983501       -3.67661110529723     
  -3.42713698430509       -3.17740342298430       -2.92773162999311     
  -2.67794542352600       -2.42815124216649       -2.17826845768892     
  -1.92830571345762       -1.67816977552346       -1.42773423893877     
  -1.17667194264501      -0.924217263486992      -0.668201254093650     
 -0.401249028761977      -7.098882224924166E-002  1.888415856633441E-002
  -4.42528539764312       -4.17528539764312       -3.92634082530922     
  -3.67662974032599       -3.42716574904925       -3.17744618698531     
  -2.92778623653320       -2.67801314318724       -2.42823046286492     
  -2.17835895810644       -1.92840622656788       -1.67827973999364     
  -1.42785323289245       -1.17680076848673      -0.924358803777527     
 -0.668363355173797      -0.401453287886373      -7.140728156237909E-002
  1.933000604198260E-002  -4.42528539764312       -4.17528539764312     
  -3.92635658421154       -3.67667293674068       -3.42723611050238     
  -3.17755329213693       -2.92792899390400       -2.67819772712059     
  -2.42845717606096       -2.17863134912011       -1.92872490533931     
  -1.67864640495782       -1.42826890903182       -1.17726928062125     
 -0.924890913287245      -0.668990033708937      -0.402264740913291     
 -7.314050989043795E-002  2.113134178256127E-002  -4.42528539764312     
  -4.17528539764312       -3.92636436385588       -3.67670341765814     
  -3.42728980959757       -3.17764800598325       -2.92807365345372     
  -2.67841891871909       -2.42878055212547       -2.17909809135571     
  -1.92938300684050       -1.67955985580462       -1.42951521464687     
  -1.17894728145705      -0.927133494053641      -0.672020088346163     
 -0.406587331617429      -8.242818695814226E-002  2.770276757937700E-002
  -4.42528539764312       -4.17528539764312       -3.92573517241521     
  -3.67555443599014       -3.42556737818674       -3.17542645262940     
  -2.92538024738969       -2.67532216087854       -2.42534798398723     
  -2.17542881024929       -1.92560667070825       -1.67586531884713     
  -1.42618262832993       -1.17641873460401      -0.926156092042776     
 -0.674011625050167      -0.414696330812003      -0.117249473942815     
  5.097483842622264E-002  -4.42528539764312       -4.17528539764312     
  -3.92479387525466       -3.67433403381520       -3.42391241723486     
  -3.17352711628330       -2.92324538562661       -2.67306451707003     
  -2.42304148691922       -2.17320961684416       -1.92363705608164     
  -1.67439867380032       -1.42559851248262       -1.17735702164864     
 -0.929792192119873      -0.682901933388741      -0.436156104743645     
 -0.182121396030606       5.208894474521831E-002
  0.000000000000000E+000  0.000000000000000E+000  5.550631769532236E-004
  2.020671179625742E-003  3.791844298806719E-003  6.246239199798038E-003
  9.064413590026873E-003  1.229753035651501E-002  1.575483344876877E-002
  1.933298772633247E-002  2.283712651120681E-002  2.606130938417884E-002
  2.873916102097970E-002  3.057033797194805E-002  3.126814422703923E-002
  3.071774224112763E-002  3.056323650970049E-002  1.870413452777573E-002
  2.563810148102830E-002  0.290581825739480       0.290581825739480     
  0.291191572073683       0.287947018713410       0.285594310579940     
  0.280778063856472       0.275764678328952       0.269513884725952     
  0.262843613152362       0.255646199778888       0.248362959066361     
  0.241258193445787       0.234833332203854       0.229721461123487     
  0.226935740283185       0.228323151728772       0.237965520263208     
  0.254687542075641       0.304444379550173        1.14543974346790     
   1.14543974346790        1.14567635392800        1.14542043160132     
   1.14555467828102        1.14539365389324        1.14534854366721     
   1.14520750454791        1.14509668334384        1.14496913118853     
   1.14487550800070        1.14482636236052        1.14486570478092     
   1.14503533639394        1.14540118839065        1.14607329444965     
   1.14732192395934        1.14790707504403        1.15145159908915     
   2.51489251828899        2.51489251828899        2.51498368324299     
   2.51491998778769        2.51499607636101        2.51498789556646     
   2.51502610805593        2.51504477278333        2.51507971600733     
   2.51511446856339        2.51515869028131        2.51520868693010     
   2.51526700615158        2.51533319364483        2.51541128301797     
   2.51551555713971        2.51568936113176        2.51560790110490     
   2.51642496699214        4.31935253268844        4.31935253268844     
   4.31938926242433        4.31937219686333        4.31940300277695     
   4.31940608882531        4.31942396699567        4.31943525893960     
   4.31945050182058        4.31946415688700        4.31947843090806     
   4.31949174782442        4.31950442401437        4.31951615352102     
   4.31952786552964        4.31954264274426        4.31956952814093     
   4.31952961799244        4.31976698707460        6.45395112957464     
   6.45395112957464        6.45396509409798        6.45396013921596     
   6.45397117076638        6.45397271121926        6.45397876557569     
   6.45398238718832        6.45398691171681        6.45399061334464     
   6.45399419144571        6.45399721313307        6.45399983120252     
   6.45400202191139        6.45400411140437        6.45400701243008     
   6.45401333550007        6.45399970239811        6.45408247410273     
   8.79463319744677        8.79463319744677        8.79463678217846     
   8.79463563856662        8.79463835987124        8.79463873690017     
   8.79464015618792        8.79464095773898        8.79464194049949     
   8.79464270488713        8.79464342380986        8.79464400619576     
   8.79464449726439        8.79464490043734        8.79464529824418     
   8.79464590788309        8.79464734828808        8.79464410448772     
   8.79466510766242        11.2053668025532        11.2053668025532     
   11.2053632178215        11.2053643614334        11.2053616401288     
   11.2053612630998        11.2053598438121        11.2053590422610     
   11.2053580595005        11.2053572951129        11.2053565761901     
   11.2053559938042        11.2053555027356        11.2053550995627     
   11.2053547017558        11.2053540921169        11.2053526517119     
   11.2053558955123        11.2053348923376        13.5460488704254     
   13.5460488704254        13.5460349059020        13.5460398607840     
   13.5460288292336        13.5460272887807        13.5460212344243     
   13.5460176128117        13.5460130882832        13.5460093866554     
   13.5460058085543        13.5460027868669        13.5460001687975     
   13.5459979780886        13.5459958885956        13.5459929875699     
   13.5459866644999        13.5460002976019        13.5459175258973     
   15.6806474673116        15.6806474673116        15.6806107375757     
   15.6806278031367        15.6805969972230        15.6805939111747     
   15.6805760330043        15.6805647410604        15.6805494981794     
   15.6805358431130        15.6805215690919        15.6805082521756     
   15.6804955759856        15.6804838464790        15.6804721344704     
   15.6804573572557        15.6804304718591        15.6804703820076     
   15.6802330129254        17.4851074817110        17.4851074817110     
   17.4850163167570        17.4850800122123        17.4850039236390     
   17.4850121044335        17.4849738919441        17.4849552272167     
   17.4849202839927        17.4848855314366        17.4848413097187     
   17.4847913130699        17.4847329938484        17.4846668063552     
   17.4845887169820        17.4844844428603        17.4843106388682     
   17.4843920988951        17.4835750330079        18.8545602565321     
   18.8545602565321        18.8543236460720        18.8545795683987     
   18.8544453217190        18.8546063461068        18.8546514563328     
   18.8547924954521        18.8549033166562        18.8550308688115     
   18.8551244919993        18.8551736376395        18.8551342952191     
   18.8549646636061        18.8545988116093        18.8539267055504     
   18.8526780760407        18.8520929249560        18.8485484009108     
   19.7094181742605        19.7094181742605        19.7088084279263     
   19.7120529812866        19.7144056894201        19.7192219361435     
   19.7242353216710        19.7304861152740        19.7371563868476     
   19.7443538002211        19.7516370409336        19.7587418065542     
   19.7651666677961        19.7702785388765        19.7730642597168     
   19.7716768482712        19.7620344797368        19.7453124579244     
   19.6955556204498        20.0000000000000        20.0000000000000     
   19.9994449368230        19.9979793288204        19.9962081557012     
   19.9937537608002        19.9909355864100        19.9877024696435     
   19.9842451665512        19.9806670122737        19.9771628734888     
   19.9739386906158        19.9712608389790        19.9694296620281     
   19.9687318557730        19.9692822577589        19.9694367634903     
   19.9812958654722        19.9743618985190     
 -6.536680706074363E-003 -6.536680706074363E-003  5.050035817957960E-004
  4.639260338811556E-003  1.024647082751193E-002  1.481907257013543E-002
  1.930664364128877E-002  2.299027323955822E-002  2.598180731965515E-002
  2.798562061355264E-002  2.888756568695337E-002  2.845725394512508E-002
  2.646813890857554E-002  2.261330821588876E-002  1.650336989379966E-002
  7.477996997514966E-003 -6.288433608345197E-003 -2.425382416322290E-002
  4.753429451868730E-002 -6.536680706074363E-003 -6.536680706074363E-003
 -3.611263809221899E-002 -4.919350968264687E-002 -6.945153267828881E-002
 -8.495056093161453E-002 -0.101887230120252      -0.117050418955564     
 -0.132126007996359      -0.146245837841417      -0.159897173961541     
 -0.172882600524153      -0.185374056357019      -0.197318330023526     
 -0.208591454683303      -0.218401693630748      -0.223659178779799     
 -0.206099257837248      -1.773323305721209E-002 -6.536680706074363E-003
 -6.536680706074363E-003 -2.763923047090231E-002 -3.612261049444534E-002
 -4.975379648833866E-002 -6.009184722372854E-002 -7.164868489643876E-002
 -8.236107034195558E-002 -9.342140367521853E-002 -0.104369005940197     
 -0.115566288808039      -0.126960122337355      -0.138697271152386     
 -0.150772016904848      -0.163043131500698      -0.174627956699405     
 -0.181556628089731      -0.166146165240376       4.474433916226081E-002
 -6.536680706074363E-003 -6.536680706074363E-003 -2.613561333220477E-002
 -3.342277871327251E-002 -4.547414081641083E-002 -5.429885108838736E-002
 -6.427547342913106E-002 -7.347151109625616E-002 -8.307113468850444E-002
 -9.266410787866936E-002 -0.102627401878736      -0.112927830860786     
 -0.123710234778811      -0.134941291187605      -0.146399796250484     
 -0.157033144776877      -0.162494299990081      -0.143913590036401     
  6.929682286951343E-002 -6.536680706074363E-003 -6.536680706074363E-003
 -2.566161556092158E-002 -3.253335321709038E-002 -4.403946387014421E-002
 -5.231752914614312E-002 -6.171370548937488E-002 -7.033155707510777E-002
 -7.935461307754521E-002 -8.838464711648771E-002 -9.780119965939754E-002
 -0.107574090852480      -0.117847720330063      -0.128586957342237     
 -0.139567445899372      -0.149731640004997      -0.154713166287315     
 -0.135434973841402       7.803833095455397E-002 -6.536680706074363E-003
 -6.536680706074363E-003 -2.549222691413363E-002 -3.221489317404559E-002
 -4.352493799369401E-002 -5.160491897146410E-002 -6.078892890816736E-002
 -6.919293269451467E-002 -7.800016750847680E-002 -8.681705419762646E-002
 -9.602503776769518E-002 -0.105596746830482      -0.115678941981373     
 -0.126239041983650      -0.137055055343048      -0.147070876202054     
 -0.151916629634280      -0.132457575559669       8.107274120649476E-002
 -6.536680706074363E-003 -6.536680706074363E-003 -2.543411838340742E-002
 -3.210685458550800E-002 -4.335112998288422E-002 -5.136521850648694E-002
 -6.047876363697201E-002 -6.881204747802284E-002 -7.754813862005859E-002
 -8.629510408792661E-002 -9.543506436444063E-002 -0.104941648233001     
 -0.114962405634793      -0.125465537543777      -0.136229662542450     
 -0.146198877344512      -0.151001954282312      -0.131487837223036     
  8.206234278438942E-002 -6.536680706074363E-003 -6.536680706074363E-003
 -2.543411838340742E-002 -3.210685458550798E-002 -4.335112998288427E-002
 -5.136521850648694E-002 -6.047876363697201E-002 -6.881204747802294E-002
 -7.754813862005866E-002 -8.629510408792654E-002 -9.543506436444056E-002
 -0.104941648233001      -0.114962405634793      -0.125465537543777     
 -0.136229662542450      -0.146198877344512      -0.151001954282312     
 -0.131487837223036       8.206234278438945E-002 -6.536680706074363E-003
 -6.536680706074363E-003 -2.549222691413364E-002 -3.221489317404558E-002
 -4.352493799369399E-002 -5.160491897146413E-002 -6.078892890816747E-002
 -6.919293269451464E-002 -7.800016750847676E-002 -8.681705419762652E-002
 -9.602503776769512E-002 -0.105596746830481      -0.115678941981373     
 -0.126239041983650      -0.137055055343049      -0.147070876202054     
 -0.151916629634280      -0.132457575559669       8.107274120649477E-002
 -6.536680706074363E-003 -6.536680706074363E-003 -2.566161556092156E-002
 -3.253335321709037E-002 -4.403946387014415E-002 -5.231752914614332E-002
 -6.171370548937501E-002 -7.033155707510767E-002 -7.935461307754520E-002
 -8.838464711648793E-002 -9.780119965939753E-002 -0.107574090852480     
 -0.117847720330063      -0.128586957342237      -0.139567445899372     
 -0.149731640004997      -0.154713166287315      -0.135434973841402     
  7.803833095455402E-002 -6.536680706074363E-003 -6.536680706074363E-003
 -2.613561333220474E-002 -3.342277871327250E-002 -4.547414081641095E-002
 -5.429885108838751E-002 -6.427547342913115E-002 -7.347151109625612E-002
 -8.307113468850451E-002 -9.266410787866929E-002 -0.102627401878736     
 -0.112927830860786      -0.123710234778811      -0.134941291187605     
 -0.146399796250484      -0.157033144776877      -0.162494299990081     
 -0.143913590036401       6.929682286951357E-002 -6.536680706074363E-003
 -6.536680706074363E-003 -2.763923047090231E-002 -3.612261049444535E-002
 -4.975379648833861E-002 -6.009184722372853E-002 -7.164868489643869E-002
 -8.236107034195549E-002 -9.342140367521851E-002 -0.104369005940197     
 -0.115566288808039      -0.126960122337355      -0.138697271152386     
 -0.150772016904848      -0.163043131500698      -0.174627956699405     
 -0.181556628089731      -0.166146165240376       4.474433916226107E-002
 -6.536680706074363E-003 -6.536680706074363E-003 -3.611263809221899E-002
 -4.919350968264682E-002 -6.945153267828853E-002 -8.495056093161427E-002
 -0.101887230120252      -0.117050418955563      -0.132126007996359     
 -0.146245837841416      -0.159897173961541      -0.172882600524154     
 -0.185374056357018      -0.197318330023527      -0.208591454683304     
 -0.218401693630749      -0.223659178779800      -0.206099257837248     
 -1.773323305721167E-002 -6.536680706074363E-003 -6.536680706074363E-003
  5.050035817958081E-004  4.639260338811578E-003  1.024647082751183E-002
  1.481907257013523E-002  1.930664364128866E-002  2.299027323955803E-002
  2.598180731965485E-002  2.798562061355236E-002  2.888756568695296E-002
  2.845725394512495E-002  2.646813890857551E-002  2.261330821588896E-002
  1.650336989380005E-002  7.477996997515867E-003 -6.288433608344909E-003
 -2.425382416322323E-002  4.753429451868760E-002
   1.14907788096641        1.14276104921375        1.13572176412294     
   1.12784020016942        1.11896915097763        1.10892567638957     
   1.09747943126000        1.08433596959880        1.06911226722641     
   1.05129973883409        1.03020640715806        1.00486259147205     
  0.973858434038998       0.935043765751740       0.884911471366558     
  0.817122145994892       0.717952076931788       0.545687230928579     
   1.77851323084742        1.76774687130842        1.75571938109035     
   1.74221765493717        1.72697924614805        1.70967718973379     
   1.68989876312098        1.66711504942870        1.64063624387196     
   1.60954396139755        1.57258527955507        1.52799981794014     
   1.47322374154820        1.40435192360063        1.31507668024105     
   1.19436106594707        1.02014754055350       0.735561100336828     
   2.10144228339342        2.08617081947623        2.06908215631870     
   2.04987278178874        2.02817178256332        2.00352160552806     
   1.97535191638772        1.94294337235398        1.90537647195558     
   1.86145722279845        1.80960608475144        1.74768437980462     
   1.67270957966126        1.58035263084665        1.46395879974757     
   1.31238267385890        1.10391394579400       0.782326100572016     
   2.22731385359648        2.20843305002443        2.18738471869599     
   2.16383148377253        2.13736731139958        2.10749934788512     
   2.07362347682979        2.03499061728117        1.99065925364340     
   1.93942615290331        1.87972219649234        1.80944735323888     
   1.72569643953580        1.62426711239531        1.49868926620788     
   1.33806052524169        1.12094440580768       0.791278928221502     
   2.27226609673353        2.25129218411635        2.22803175318206     
   2.20214805155541        2.17323793467846        2.14081425119516     
   2.10428200377187        2.06290527298872        2.01576037746364     
   1.96166712793758        1.89908508255534        1.82594861530297     
   1.73939243491094        1.63525863329197        1.50712425988876     
   1.34413341106689        1.12488759619166       0.793323245359819     
   2.28776550886683        2.26586620772044        2.24165670248486     
   2.21480380361687        2.18490866014730        2.15148918053293     
   2.11395621316765        2.07158046516018        2.02344563356405     
   1.96837959004969        1.90485053854391        1.83080192530550     
   1.74337776595346        1.63842940476177        1.50954269403987     
   1.34586936362122        1.12601564997301       0.793911270808085     
   2.29157900258208        2.26942934601453        2.24496685122837     
   2.21785941458911        2.18770938772441        2.15403599325893     
   2.11625149747839        2.07362811755225        2.02525113883741     
   1.96995008087233        1.90619483520523        1.83193054857300     
   1.74430292194289        1.63916492624379        1.51010392089124     
   1.34627288741357        1.12627868704179       0.794049049972261     
   2.28776550886683        2.26586620772045        2.24165670248487     
   2.21480380361688        2.18490866014730        2.15148918053293     
   2.11395621316765        2.07158046516018        2.02344563356405     
   1.96837959004969        1.90485053854391        1.83080192530550     
   1.74337776595346        1.63842940476177        1.50954269403987     
   1.34586936362122        1.12601564997301       0.793911270808084     
   2.27226609673353        2.25129218411635        2.22803175318206     
   2.20214805155541        2.17323793467846        2.14081425119516     
   2.10428200377187        2.06290527298872        2.01576037746364     
   1.96166712793758        1.89908508255534        1.82594861530296     
   1.73939243491094        1.63525863329196        1.50712425988876     
   1.34413341106689        1.12488759619166       0.793323245359819     