 Title = "Wing and Wake"
 VARIABLES = "X" "Y" "Z" "GAM"
 Zone I=    5 J=   14 K=1  T="Blade"
 DATAPACKING=BLOCK
 VARLOCATION=([4]=CELLCENTERED)
  -7.49619469809175       -7.24714602356881       -6.99809734904587     
  -6.74904867452294       -6.50000000000000       -7.49619469809175     
  -7.24714602356881       -6.99809734904587       -6.74904867452294     
  -6.50000000000000       -7.49619469809175       -7.24714602356881     
  -6.99809734904587       -6.74904867452294       -6.50000000000000     
  -7.49619469809175       -7.24714602356881       -6.99809734904587     
  -6.74904867452294       -6.50000000000000       -7.49619469809175     
  -7.24714602356881       -6.99809734904587       -6.74904867452294     
  -6.50000000000000       -7.49619469809175       -7.24714602356881     
  -6.99809734904587       -6.74904867452294       -6.50000000000000     
  -7.49619469809175       -7.24714602356881       -6.99809734904587     
  -6.74904867452294       -6.50000000000000       -7.49619469809175     
  -7.24714602356881       -6.99809734904587       -6.74904867452294     
  -6.50000000000000       -7.49619469809175       -7.24714602356881     
  -6.99809734904587       -6.74904867452294       -6.50000000000000     
  -7.49619469809175       -7.24714602356881       -6.99809734904587     
  -6.74904867452294       -6.50000000000000       -7.49619469809175     
  -7.24714602356881       -6.99809734904587       -6.74904867452294     
  -6.50000000000000       -7.49619469809175       -7.24714602356881     
  -6.99809734904587       -6.74904867452294       -6.50000000000000     
  -7.49619469809175       -7.24714602356881       -6.99809734904587     
  -6.74904867452294       -6.50000000000000       -7.49619469809175     
  -7.24714602356881       -6.99809734904587       -6.74904867452294     
  -6.50000000000000     
  0.000000000000000E+000  0.000000000000000E+000  0.000000000000000E+000
  0.000000000000000E+000  0.000000000000000E+000  0.290581825739480     
  0.290581825739480       0.290581825739480       0.290581825739480     
  0.290581825739480        1.14543974346790        1.14543974346790     
   1.14543974346790        1.14543974346790        1.14543974346790     
   2.51489251828899        2.51489251828899        2.51489251828899     
   2.51489251828899        2.51489251828899        4.31935253268844     
   4.31935253268844        4.31935253268844        4.31935253268844     
   4.31935253268844        6.45395112957464        6.45395112957464     
   6.45395112957464        6.45395112957464        6.45395112957464     
   8.79463319744677        8.79463319744677        8.79463319744677     
   8.79463319744677        8.79463319744677        11.2053668025532     
   11.2053668025532        11.2053668025532        11.2053668025532     
   11.2053668025532        13.5460488704254        13.5460488704254     
   13.5460488704254        13.5460488704254        13.5460488704254     
   15.6806474673116        15.6806474673116        15.6806474673116     
   15.6806474673116        15.6806474673116        17.4851074817110     
   17.4851074817110        17.4851074817110        17.4851074817110     
   17.4851074817110        18.8545602565321        18.8545602565321     
   18.8545602565321        18.8545602565321        18.8545602565321     
   19.7094181742605        19.7094181742605        19.7094181742605     
   19.7094181742605        19.7094181742605        20.0000000000000     
   20.0000000000000        20.0000000000000        20.0000000000000     
   20.0000000000000     
  8.715574274765817E-002  6.536680706074363E-002  4.357787137382908E-002
  2.178893568691454E-002  0.000000000000000E+000  8.715574274765817E-002
  6.536680706074363E-002  4.357787137382908E-002  2.178893568691454E-002
  0.000000000000000E+000  8.715574274765817E-002  6.536680706074363E-002
  4.357787137382908E-002  2.178893568691454E-002  0.000000000000000E+000
  8.715574274765817E-002  6.536680706074363E-002  4.357787137382908E-002
  2.178893568691454E-002  0.000000000000000E+000  8.715574274765817E-002
  6.536680706074363E-002  4.357787137382908E-002  2.178893568691454E-002
  0.000000000000000E+000  8.715574274765817E-002  6.536680706074363E-002
  4.357787137382908E-002  2.178893568691454E-002  0.000000000000000E+000
  8.715574274765817E-002  6.536680706074363E-002  4.357787137382908E-002
  2.178893568691454E-002  0.000000000000000E+000  8.715574274765817E-002
  6.536680706074363E-002  4.357787137382908E-002  2.178893568691454E-002
  0.000000000000000E+000  8.715574274765817E-002  6.536680706074363E-002
  4.357787137382908E-002  2.178893568691454E-002  0.000000000000000E+000
  8.715574274765817E-002  6.536680706074363E-002  4.357787137382908E-002
  2.178893568691454E-002  0.000000000000000E+000  8.715574274765817E-002
  6.536680706074363E-002  4.357787137382908E-002  2.178893568691454E-002
  0.000000000000000E+000  8.715574274765817E-002  6.536680706074363E-002
  4.357787137382908E-002  2.178893568691454E-002  0.000000000000000E+000
  8.715574274765817E-002  6.536680706074363E-002  4.357787137382908E-002
  2.178893568691454E-002  0.000000000000000E+000  8.715574274765817E-002
  6.536680706074363E-002  4.357787137382908E-002  2.178893568691454E-002
  0.000000000000000E+000
  0.726528425016366       0.976711432668702        1.11179564670096     
   1.18262083389628        1.04663039033835        1.46925767919084     
   1.70904432554885        1.83519064540757        1.21251259909266     
   1.72165725865980        2.02032294204048        2.18115250663599     
   1.28608548430969        1.83064357150759        2.15246749108352     
   2.32663981480267        1.31659433658665        1.87506668685932     
   2.20555208476981        2.38440199264363        1.32847140507773     
   1.89217364056208        2.22579001220651        2.40622231123770     
   1.33158304741430        1.89663137460429        2.23103663480127     
   2.41185176213534        1.32847140507773        1.89217364056208     
   2.22579001220651        2.40622231123771        1.31659433658665     
   1.87506668685932        2.20555208476982        2.38440199264363     
   1.28608548430970        1.83064357150759        2.15246749108352     
   2.32663981480268        1.21251259909266        1.72165725865980     
   2.02032294204047        2.18115250663599        1.04663039033835     
   1.46925767919084        1.70904432554885        1.83519064540757     
  0.726528425016366       0.976711432668702        1.11179564670096     
   1.18262083389628     
 Zone I=   27 J=   14 K=1  T="NearWake"
 DATAPACKING=BLOCK
 VARLOCATION=([4]=CELLCENTERED)
  -6.42528539764312       -6.17528539764312       -5.92473072831667     
  -5.67419690305916       -5.42366558488499       -5.17313096948574     
  -4.92264541068386       -4.67218784611152       -4.42179088895671     
  -4.17145434039141       -3.92120174354471       -3.67104830777071     
  -3.42102109274542       -3.17114991834056       -2.92147506209372     
  -2.67204666689744       -2.42292963487622       -2.17420669373057     
  -1.92598315863873       -1.67838977826898       -1.43158019274470     
  -1.18570847760990      -0.940853262469379      -0.696732592963312     
 -0.452136461656313      -0.190648862298014       2.483839673595368E-002
  -6.42528539764312       -6.17528539764312       -5.92562700488552     
  -5.67537269080227       -5.42523808269184       -5.17495549485942     
  -4.92470719569203       -4.67442349417521       -4.42416264875661     
  -4.17390944350622       -3.92368811788679       -3.67350109111605     
  -3.42336413827927       -3.17328720953655       -2.92328602525698     
  -2.67337537847124       -2.42357222064938       -2.17389040755200     
  -1.92433436164894       -1.67487791363306       -1.42541193556425     
  -1.17560773600215      -0.924565264780211      -0.669805430856179     
 -0.402154850120177      -6.685183401083709E-002  2.228148065723540E-002
  -6.42528539764312       -6.17528539764312       -5.92631348019341     
  -5.67664739735058       -5.42717045442445       -5.17749380371329     
  -4.92784771189576       -4.67813419550265       -4.42842256251672     
  -4.17868855092946       -3.92895649089489       -3.67922203832541     
  -3.42949519824667       -3.17977562634250       -2.93006522078631     
  -2.68035787820150       -2.43063950857509       -2.18087636418718     
  -1.93099850624860       -1.68086044865390       -1.43015574060967     
  -1.17820611416749      -0.923394119447463      -0.661371543082011     
 -0.378117798534440       1.579331171807911E-002 -2.245386754570889E-002
  -6.42528539764312       -6.17528539764312       -5.92631905303309     
  -5.67665167472580       -5.42717511790443       -5.17749767235957     
  -4.92785106037987       -4.67813241358976       -4.42841099743552     
  -4.17865783349659       -3.92889499494138       -3.67911273072538     
  -3.42931593333549       -3.17949661460932       -2.92964776793826     
  -2.67975164067451       -2.42977994779309       -2.17968127610764     
  -1.92936425890651       -1.67865721573314       -1.42722063831046     
  -1.17432860688830      -0.918274790577371      -0.654481903058030     
 -0.368167540424378       3.099644501781497E-002 -3.564668798571293E-002
  -6.42528539764312       -6.17528539764312       -5.92631081534971     
  -5.67662545830489       -5.42712852683863       -5.17742550741899     
  -4.92775233831395       -4.67800315227621       -4.42824913196443     
  -4.17845922752285       -3.92865597785128       -3.67882832016125     
  -3.42898102100897       -3.17910537241278       -2.92919430983924     
  -2.67923005405956       -2.42918484108384       -2.17900807148332     
  -1.92860947946548       -1.67781813013934       -1.42629355774643     
  -1.17330387476012      -0.917123945908877      -0.653120680781381     
 -0.366307040019186       3.351046411999788E-002 -3.957299443448830E-002
  -6.42528539764312       -6.17528539764312       -5.92630594166289     
  -5.67661007623089       -5.42710233773662       -5.17738515939981     
  -4.92769804016065       -4.67793317334180       -4.42816354525541     
  -4.17835729681264       -3.92853782246500       -3.67869387676189     
  -3.42883070939148       -3.17893973122218       -2.92901423909132     
  -2.67903667295799       -2.42897951389060       -2.17879224499554     
  -1.92838447559891       -1.67758471505167       -1.42605119297623     
  -1.17304927160492      -0.916847968524490      -0.652799628676391     
 -0.365866317884396       3.406684961592225E-002 -4.060339863125805E-002
  -6.42528539764312       -6.17528539764312       -5.92630406514861     
  -5.67660401946542       -5.42709241031252       -5.17737002969891     
  -4.92767810533013       -4.67790792087934       -4.42813329555470     
  -4.17832203256675       -3.92849789482282       -3.67864955692655     
  -3.42878243469672       -3.17888793905419       -2.92895943210219     
  -2.67897934284551       -2.42892013049926       -2.17873118984266     
  -1.92832197633220       -1.67752073124542       -1.42598523658399     
  -1.17298006563768      -0.916772694867917      -0.652711721957710     
 -0.365746050538176       3.421986911080366E-002 -4.087479964195787E-002
  -6.42528539764312       -6.17528539764312       -5.92630406514861     
  -5.67660401946542       -5.42709241031252       -5.17737002969891     
  -4.92767810533013       -4.67790792087934       -4.42813329555470     
  -4.17832203256675       -3.92849789482282       -3.67864955692655     
  -3.42878243469672       -3.17888793905419       -2.92895943210219     
  -2.67897934284551       -2.42892013049926       -2.17873118984266     
  -1.92832197633220       -1.67752073124542       -1.42598523658399     
  -1.17298006563768      -0.916772694867917      -0.652711721957710     
 -0.365746050538176       3.421986911080346E-002 -4.087479964195778E-002
  -6.42528539764312       -6.17528539764312       -5.92630594166289     
  -5.67661007623089       -5.42710233773662       -5.17738515939981     
  -4.92769804016065       -4.67793317334180       -4.42816354525541     
  -4.17835729681264       -3.92853782246500       -3.67869387676189     
  -3.42883070939148       -3.17893973122218       -2.92901423909132     
  -2.67903667295799       -2.42897951389060       -2.17879224499554     
  -1.92838447559891       -1.67758471505167       -1.42605119297623     
  -1.17304927160492      -0.916847968524490      -0.652799628676391     
 -0.365866317884396       3.406684961592227E-002 -4.060339863125804E-002
  -6.42528539764312       -6.17528539764312       -5.92631081534971     
  -5.67662545830489       -5.42712852683863       -5.17742550741899     
  -4.92775233831395       -4.67800315227621       -4.42824913196443     
  -4.17845922752285       -3.92865597785128       -3.67882832016125     
  -3.42898102100897       -3.17910537241278       -2.92919430983924     
  -2.67923005405956       -2.42918484108384       -2.17900807148332     
  -1.92860947946548       -1.67781813013934       -1.42629355774643     
  -1.17330387476012      -0.917123945908877      -0.653120680781381     
 -0.366307040019186       3.351046411999772E-002 -3.957299443448834E-002
  -6.42528539764312       -6.17528539764312       -5.92631905303309     
  -5.67665167472580       -5.42717511790443       -5.17749767235957     
  -4.92785106037987       -4.67813241358976       -4.42841099743552     
  -4.17865783349659       -3.92889499494138       -3.67911273072538     
  -3.42931593333549       -3.17949661460932       -2.92964776793826     
  -2.67975164067451       -2.42977994779309       -2.17968127610764     
  -1.92936425890651       -1.67865721573314       -1.42722063831046     
  -1.17432860688830      -0.918274790577371      -0.654481903058030     
 -0.368167540424378       3.099644501781462E-002 -3.564668798571315E-002
  -6.42528539764312       -6.17528539764312       -5.92631348019341     
  -5.67664739735058       -5.42717045442445       -5.17749380371329     
  -4.92784771189576       -4.67813419550265       -4.42842256251672     
  -4.17868855092946       -3.92895649089489       -3.67922203832541     
  -3.42949519824667       -3.17977562634250       -2.93006522078631     
  -2.68035787820150       -2.43063950857509       -2.18087636418718     
  -1.93099850624860       -1.68086044865390       -1.43015574060967     
  -1.17820611416749      -0.923394119447462      -0.661371543082010     
 -0.378117798534439       1.579331171807903E-002 -2.245386754570925E-002
  -6.42528539764312       -6.17528539764312       -5.92562700488552     
  -5.67537269080227       -5.42523808269184       -5.17495549485942     
  -4.92470719569203       -4.67442349417521       -4.42416264875661     
  -4.17390944350622       -3.92368811788679       -3.67350109111605     
  -3.42336413827927       -3.17328720953655       -2.92328602525698     
  -2.67337537847124       -2.42357222064938       -2.17389040755200     
  -1.92433436164894       -1.67487791363306       -1.42541193556425     
  -1.17560773600215      -0.924565264780210      -0.669805430856177     
 -0.402154850120177      -6.685183401083812E-002  2.228148065723417E-002
  -6.42528539764312       -6.17528539764312       -5.92473072831667     
  -5.67419690305916       -5.42366558488499       -5.17313096948574     
  -4.92264541068386       -4.67218784611152       -4.42179088895671     
  -4.17145434039141       -3.92120174354471       -3.67104830777071     
  -3.42102109274542       -3.17114991834056       -2.92147506209372     
  -2.67204666689744       -2.42292963487622       -2.17420669373057     
  -1.92598315863873       -1.67838977826898       -1.43158019274470     
  -1.18570847760990      -0.940853262469378      -0.696732592963311     
 -0.452136461656314      -0.190648862298015       2.483839673595548E-002
  0.000000000000000E+000  0.000000000000000E+000  5.922358447177484E-004
  2.255288729623710E-003  4.237579423347897E-003  7.078893218775532E-003
  1.041513431889704E-002  1.439179232163122E-002  1.884787363374715E-002
  2.377108361347326E-002  2.905515405993311E-002  3.462550294457064E-002
  4.037424318206320E-002  4.619081744098047E-002  5.194446577104735E-002
  5.748893646048556E-002  6.265512214083177E-002  6.724755080045694E-002
  7.103673212097610E-002  7.375193710312500E-002  7.507732408574251E-002
  7.465973745433487E-002  7.235224855472258E-002  6.877809283112404E-002
  6.781442692683275E-002  4.014303904404029E-002  5.516566015220412E-002
  0.290581825739480       0.290581825739480       0.291233865288258     
  0.287784506045660       0.285205404063829       0.279906522964730     
  0.274237815060841       0.267016402981445       0.259023533583480     
  0.250019198907246       0.240310921566400       0.229950541878538     
  0.219140148110691       0.208034306168893       0.196837931377930     
  0.185766351072449       0.175072873254555       0.165053243761326     
  0.156071105449769       0.148595756405069       0.143274819875454     
  0.141066167005197       0.143594525060012       0.154057829924818     
  0.180990193170051       0.224983091650053       0.318973639559832     
   1.14543974346790        1.14543974346790        1.14569089532318     
   1.14541104981001        1.14554307660213        1.14534700140956     
   1.14526277579243        1.14505245018997        1.14484543315268     
   1.14457573024505        1.14428196765291        1.14395008608253     
   1.14359607364511        1.14322387250345        1.14284835906136     
   1.14248511202708        1.14215783686765        1.14189767503350     
   1.14174748314541        1.14176495056375        1.14202814360507     
   1.14264260460353        1.14375235727293        1.14561075318177     
   1.14866007404151        1.14999510323779        1.16029318269787     
   2.51489251828899        2.51489251828899        2.51498896171959     
   2.51490729635884        2.51498233283913        2.51495520582476     
   2.51497790824618        2.51497133150230        2.51497820769939     
   2.51497765587208        2.51498207387360        2.51498722989783     
   2.51499782562639        2.51501445140701        2.51504017181098     
   2.51507705853252        2.51512772761253        2.51519439475923     
   2.51527908477853        2.51538332444096        2.51550856413535     
   2.51565778100126        2.51583908591546        2.51607522014867     
   2.51642135780917        2.51592631583504        2.51871484892183     
   4.31935253268844        4.31935253268844        4.31939339086372     
   4.31936708832887        4.31940091130561        4.31939824250246     
   4.31941506228868        4.31942294155017        4.31943692033556     
   4.31944959520826        4.31946490358896        4.31948102572677     
   4.31949894225388        4.31951813041813        4.31953867770651     
   4.31956019454269        4.31958231292898        4.31960445954870     
   4.31962602574468        4.31964641669305        4.31966530068403     
   4.31968305182992        4.31970142112648        4.31972504567776     
   4.31976478576392        4.31956802775664        4.32038751767736     
   6.45395112957464        6.45395112957464        6.45396830151596     
   6.45395998387005        6.45397411518908        6.45397488934693     
   6.45398271392520        6.45398731890721        6.45399397147424     
   6.45400000713143        6.45400668917892        6.45401330056250     
   6.45402006323654        6.45402670280573        6.45403315538013     
   6.45403922436027        6.45404474931014        6.45404954209404     
   6.45405344703086        6.45405635742033        6.45405828341160     
   6.45405945914406        6.45406050058970        6.45406279317027     
   6.45406928795101        6.45400374953394        6.45428372241536     
   8.79463319744677        8.79463319744677        8.79463793181973     
   8.79463599841312        8.79463982625934        8.79464021927862     
   8.79464236727224        8.79464366909067        8.79464543811328     
   8.79464700460016        8.79464867435785        8.79465026687999     
   8.79465183302997        8.79465330574128        8.79465467156117     
   8.79465588855996        8.79465692667738        8.79465775232354     
   8.79465834218109        8.79465868627096        8.79465880243550     
   8.79465875905114        8.79465870945742        8.79465898196348     
   8.79466025856241        8.79464468695431        8.79471506845080     
   11.2053668025532        11.2053668025532        11.2053620681803     
   11.2053640015869        11.2053601737407        11.2053597807214     
   11.2053576327278        11.2053563309093        11.2053545618867     
   11.2053529953998        11.2053513256421        11.2053497331200     
   11.2053481669700        11.2053466942587        11.2053453284388     
   11.2053441114400        11.2053430733226        11.2053422476765     
   11.2053416578189        11.2053413137290        11.2053411975645     
   11.2053412409489        11.2053412905426        11.2053410180365     
   11.2053397414376        11.2053553130457        11.2052849315492     
   13.5460488704254        13.5460488704254        13.5460316984840     
   13.5460400161300        13.5460258848109        13.5460251106531     
   13.5460172860748        13.5460126810928        13.5460060285258     
   13.5459999928686        13.5459933108211        13.5459866994375     
   13.5459799367635        13.5459732971943        13.5459668446199     
   13.5459607756397        13.5459552506899        13.5459504579060     
   13.5459465529691        13.5459436425797        13.5459417165884     
   13.5459405408559        13.5459394994103        13.5459372068297     
   13.5459307120490        13.5459962504661        13.5457162775846     
   15.6806474673116        15.6806474673116        15.6806066091363     
   15.6806329116711        15.6805990886944        15.6806017574975     
   15.6805849377113        15.6805770584498        15.6805630796644     
   15.6805504047917        15.6805350964110        15.6805189742732     
   15.6805010577461        15.6804818695819        15.6804613222935     
   15.6804398054573        15.6804176870710        15.6803955404513     
   15.6803739742553        15.6803535833069        15.6803346993160     
   15.6803169481701        15.6802985788735        15.6802749543222     
   15.6802352142361        15.6804319722434        15.6796124823226     
   17.4851074817110        17.4851074817110        17.4850110382804     
   17.4850927036412        17.4850176671609        17.4850447941752     
   17.4850220917538        17.4850286684977        17.4850217923006     
   17.4850223441279        17.4850179261264        17.4850127701022     
   17.4850021743736        17.4849855485930        17.4849598281890     
   17.4849229414675        17.4848722723875        17.4848056052408     
   17.4847209152215        17.4846166755590        17.4844914358646     
   17.4843422189987        17.4841609140845        17.4839247798513     
   17.4835786421908        17.4840736841650        17.4812851510782     
   18.8545602565321        18.8545602565321        18.8543091046768     
   18.8545889501900        18.8544569233979        18.8546529985904     
   18.8547372242076        18.8549475498100        18.8551545668473     
   18.8554242697549        18.8557180323471        18.8560499139175     
   18.8564039263549        18.8567761274965        18.8571516409386     
   18.8575148879729        18.8578421631324        18.8581023249665     
   18.8582525168546        18.8582350494362        18.8579718563949     
   18.8573573953965        18.8562476427271        18.8543892468182     
   18.8513399259585        18.8500048967622        18.8397068173021     
   19.7094181742605        19.7094181742605        19.7087661347117     
   19.7122154939543        19.7147945959362        19.7200934770353     
   19.7257621849392        19.7329835970186        19.7409764664165     
   19.7499808010928        19.7596890784336        19.7700494581215     
   19.7808598518893        19.7919656938311        19.8031620686221     
   19.8142336489275        19.8249271267454        19.8349467562387     
   19.8439288945502        19.8514042435949        19.8567251801245     
   19.8589338329948        19.8564054749400        19.8459421700752     
   19.8190098068300        19.7750169083499        19.6810263604402     
   20.0000000000000        20.0000000000000        19.9994077641553     
   19.9977447112704        19.9957624205767        19.9929211067812     
   19.9895848656811        19.9856082076784        19.9811521263663     
   19.9762289163865        19.9709448459401        19.9653744970554     
   19.9596257568179        19.9538091825590        19.9480555342289     
   19.9425110635395        19.9373448778592        19.9327524491995     
   19.9289632678790        19.9262480628969        19.9249226759143     
   19.9253402625457        19.9276477514453        19.9312219071689     
   19.9321855730732        19.9598569609560        19.9448343398478     
 -6.536680706074363E-003 -6.536680706074363E-003  1.655173638600779E-003
  6.546140844909928E-003  1.340386677214020E-002  1.926100443502656E-002
  2.537636529952798E-002  3.091536407972422E-002  3.613444506715333E-002
  4.075408074824620E-002  4.478206097170110E-002  4.809190486653023E-002
  5.063502220569635E-002  5.233225090428180E-002  5.312673287990763E-002
  5.295563365956178E-002  5.176123923969153E-002  4.948079119844993E-002
  4.604388472354599E-002  4.136229339191208E-002  3.531846995706080E-002
  2.775294714935652E-002  1.843632865865920E-002  6.982651233389364E-003
 -1.277035597972262E-002 -3.297202937058322E-002  7.117273420514610E-002
 -6.536680706074363E-003 -6.536680706074363E-003 -3.620998077853192E-002
 -4.929334916010986E-002 -6.959103978376827E-002 -8.505298503782757E-002
 -0.101935912332306      -0.116951003174024      -0.131795540192803     
 -0.145534850098568      -0.158630020914682      -0.170824079936388     
 -0.182261465934440      -0.192908017865542      -0.202862360538735     
 -0.212200667220207      -0.221065802111522      -0.229629128334369     
 -0.238116791604571      -0.246798269902425      -0.255966588998108     
 -0.265854111450067      -0.276400221215869      -0.286071775921548     
 -0.290860468291007      -0.250282909953467      -2.779173780091403E-002
 -6.536680706074363E-003 -6.536680706074363E-003 -2.735078630136643E-002
 -3.558791673038281E-002 -4.883647464295273E-002 -5.874094374809197E-002
 -6.974729514526648E-002 -7.980136656385095E-002 -9.005549728656355E-002
 -0.100026980671682      -0.110036127412767      -0.119991703467258     
 -0.130004915126113      -0.140085264057340      -0.150296191507790     
 -0.160679653222165      -0.171296216744956      -0.182206020757476     
 -0.193476312442589      -0.205166560933177      -0.217298256211933     
 -0.229752975882486      -0.241942786133128      -0.251666897960246     
 -0.250098501446904      -0.176934583196245       5.150252937933705E-002
 -6.536680706074363E-003 -6.536680706074363E-003 -2.567556003221999E-002
 -3.257983849656978E-002 -4.402973665104589E-002 -5.217829390645773E-002
 -6.129587175958919E-002 -6.947201792896089E-002 -7.783110508153651E-002
 -8.594060836573163E-002 -9.412714719192471E-002 -0.102324970942160     
 -0.110659842559198      -0.119160919345217      -0.127909048731347     
 -0.136965056437440      -0.146407330990735      -0.156311982327179     
 -0.166756447048445      -0.177797962755650      -0.189430921381582     
 -0.201462984020229      -0.213148133197403      -0.221976772533680     
 -0.218272263022822      -0.132410252640594       8.431536540839553E-002
 -6.536680706074363E-003 -6.536680706074363E-003 -2.509574671121718E-002
 -3.150302820883088E-002 -4.228344356745584E-002 -4.975504120530529E-002
 -5.813683894016368E-002 -6.556577872857841E-002 -7.316166020106527E-002
 -8.050989132035714E-002 -8.794221375915705E-002 -9.540259240273537E-002
 -0.103022945909341      -0.110838903295741      -0.118936142219754     
 -0.127379302491473      -0.136248905165330      -0.145621350774977     
 -0.155572189476901      -0.166154494780247      -0.177356448050645     
 -0.188978179121861      -0.200265774310720      -0.208701327697646     
 -0.204546724333130      -0.116009914924740       9.749503881659323E-002
 -6.536680706074363E-003 -6.536680706074363E-003 -2.487541618497697E-002
 -3.109465315824908E-002 -4.162250181401426E-002 -4.883866786123365E-002
 -5.694267315589095E-002 -6.408862937787198E-002 -7.139441919957765E-002
 -7.845167980598433E-002 -8.559378171642362E-002 -9.276791664948347E-002
 -0.100107997918479      -0.107651798442212      -0.115486707921103     
 -0.123678967848476      -0.132310528355130      -0.141459174107738     
 -0.151201876133058      -0.161593278358562      -0.172623374166798     
 -0.184094358526318      -0.195254378697167      -0.203586505379434     
 -0.199337652695598      -0.110169301987000       0.102526624975792     
 -6.536680706074363E-003 -6.536680706074363E-003 -2.479803510613750E-002
 -3.095223434775972E-002 -4.139289901334053E-002 -4.852142158597209E-002
 -5.653027685646210E-002 -6.357948191165787E-002 -7.078610994624979E-002
 -7.774386777224489E-002 -8.478660558446066E-002 -9.186258364987186E-002
 -9.910638945144593E-002 -0.106556563263431      -0.114301155013055     
 -0.122407069660269      -0.130956893381579      -0.140029046891574     
 -0.149701137125762      -0.160028445129266      -0.171001588548930     
 -0.182423331755094      -0.193542222086610      -0.201841208921556     
 -0.197562526045171      -0.108221788633109       0.104262678403418     
 -6.536680706074363E-003 -6.536680706074363E-003 -2.479803510613751E-002
 -3.095223434775979E-002 -4.139289901334056E-002 -4.852142158597209E-002
 -5.653027685646225E-002 -6.357948191165790E-002 -7.078610994624963E-002
 -7.774386777224510E-002 -8.478660558446097E-002 -9.186258364987182E-002
 -9.910638945144604E-002 -0.106556563263431      -0.114301155013055     