 Title = "Wing and Wake"
 VARIABLES = "X" "Y" "Z" "GAM"
 Zone I=    5 J=   14 K=1  T="Blade"
 DATAPACKING=BLOCK
 VARLOCATION=([4]=CELLCENTERED)
  -1.99619469809175       -1.74714602356881       -1.49809734904587     
  -1.24904867452294       -1.00000000000000       -1.99619469809175     
  -1.74714602356881       -1.49809734904587       -1.24904867452294     
  -1.00000000000000       -1.99619469809175       -1.74714602356881     
  -1.49809734904587       -1.24904867452294       -1.00000000000000     
  -1.99619469809175       -1.74714602356881       -1.49809734904587     
  -1.24904867452294       -1.00000000000000       -1.99619469809175     
  -1.74714602356881       -1.49809734904587       -1.24904867452294     
  -1.00000000000000       -1.99619469809175       -1.74714602356881     
  -1.49809734904587       -1.24904867452294       -1.00000000000000     
  -1.99619469809175       -1.74714602356881       -1.49809734904587     
  -1.24904867452294       -1.00000000000000       -1.99619469809175     
  -1.74714602356881       -1.49809734904587       -1.24904867452294     
  -1.00000000000000       -1.99619469809175       -1.74714602356881     
  -1.49809734904587       -1.24904867452294       -1.00000000000000     
  -1.99619469809175       -1.74714602356881       -1.49809734904587     
  -1.24904867452294       -1.00000000000000       -1.99619469809175     
  -1.74714602356881       -1.49809734904587       -1.24904867452294     
  -1.00000000000000       -1.99619469809175       -1.74714602356881     
  -1.49809734904587       -1.24904867452294       -1.00000000000000     
  -1.99619469809175       -1.74714602356881       -1.49809734904587     
  -1.24904867452294       -1.00000000000000       -1.99619469809175     
  -1.74714602356881       -1.49809734904587       -1.24904867452294     
  -1.00000000000000     
  0.000000000000000E+000  0.000000000000000E+000  0.000000000000000E+000
  0.000000000000000E+000  0.000000000000000E+000  0.290581825739480     
  0.290581825739480       0.290581825739480       0.290581825739480     
  0.290581825739480        1.14543974346790        1.14543974346790     
   1.14543974346790        1.14543974346790        1.14543974346790     
   2.51489251828899        2.51489251828899        2.51489251828899     
   2.51489251828899        2.51489251828899        4.31935253268844     
   4.31935253268844        4.31935253268844        4.31935253268844     
   4.31935253268844        6.45395112957464        6.45395112957464     
   6.45395112957464        6.45395112957464        6.45395112957464     
   8.79463319744677        8.79463319744677        8.79463319744677     
   8.79463319744677        8.79463319744677        11.2053668025532     
   11.2053668025532        11.2053668025532        11.2053668025532     
   11.2053668025532        13.5460488704254        13.5460488704254     
   13.5460488704254        13.5460488704254        13.5460488704254     
   15.6806474673116        15.6806474673116        15.6806474673116     
   15.6806474673116        15.6806474673116        17.4851074817110     
   17.4851074817110        17.4851074817110        17.4851074817110     
   17.4851074817110        18.8545602565321        18.8545602565321     
   18.8545602565321        18.8545602565321        18.8545602565321     
   19.7094181742605        19.7094181742605        19.7094181742605     
   19.7094181742605        19.7094181742605        20.0000000000000     
   20.0000000000000        20.0000000000000        20.0000000000000     
   20.0000000000000     
  8.715574274765817E-002  6.536680706074363E-002  4.357787137382908E-002
  2.178893568691454E-002  0.000000000000000E+000  8.715574274765817E-002
  6.536680706074363E-002  4.357787137382908E-002  2.178893568691454E-002
  0.000000000000000E+000  8.715574274765817E-002  6.536680706074363E-002
  4.357787137382908E-002  2.178893568691454E-002  0.000000000000000E+000
  8.715574274765817E-002  6.536680706074363E-002  4.357787137382908E-002
  2.178893568691454E-002  0.000000000000000E+000  8.715574274765817E-002
  6.536680706074363E-002  4.357787137382908E-002  2.178893568691454E-002
  0.000000000000000E+000  8.715574274765817E-002  6.536680706074363E-002
  4.357787137382908E-002  2.178893568691454E-002  0.000000000000000E+000
  8.715574274765817E-002  6.536680706074363E-002  4.357787137382908E-002
  2.178893568691454E-002  0.000000000000000E+000  8.715574274765817E-002
  6.536680706074363E-002  4.357787137382908E-002  2.178893568691454E-002
  0.000000000000000E+000  8.715574274765817E-002  6.536680706074363E-002
  4.357787137382908E-002  2.178893568691454E-002  0.000000000000000E+000
  8.715574274765817E-002  6.536680706074363E-002  4.357787137382908E-002
  2.178893568691454E-002  0.000000000000000E+000  8.715574274765817E-002
  6.536680706074363E-002  4.357787137382908E-002  2.178893568691454E-002
  0.000000000000000E+000  8.715574274765817E-002  6.536680706074363E-002
  4.357787137382908E-002  2.178893568691454E-002  0.000000000000000E+000
  8.715574274765817E-002  6.536680706074363E-002  4.357787137382908E-002
  2.178893568691454E-002  0.000000000000000E+000  8.715574274765817E-002
  6.536680706074363E-002  4.357787137382908E-002  2.178893568691454E-002
  0.000000000000000E+000
  0.607257624830264       0.793180393630521       0.871446160375470     
  0.884911471366558       0.847135321381655        1.15456547253676     
   1.29181188691231        1.31507668024105       0.934209018457035     
   1.28256828402609        1.44018395679450        1.46395879974757     
  0.956868572433034        1.31438161905761        1.47581249267797     
   1.49868926620788       0.962674166869281        1.32234115718028     
   1.48457246747559        1.50712425988876       0.964368982395964     
   1.32464332864059        1.48709102447067        1.50954269403987     
  0.964764197831593        1.32517860539172        1.48767564192104     
   1.51010392089124       0.964368982395964        1.32464332864059     
   1.48709102447067        1.50954269403987       0.962674166869281     
   1.32234115718028        1.48457246747559        1.50712425988876     
  0.956868572433034        1.31438161905761        1.47581249267797     
   1.49868926620788       0.934209018457035        1.28256828402609     
   1.44018395679450        1.46395879974757       0.847135321381656     
   1.15456547253676        1.29181188691231        1.31507668024105     
  0.607257624830264       0.793180393630521       0.871446160375470     
  0.884911471366559     
 Zone I=    5 J=   14 K=1  T="NearWake"
 DATAPACKING=BLOCK
 VARLOCATION=([4]=CELLCENTERED)
 -0.925285397643119      -0.675285397643119      -0.425319503509719     
 -0.175263308085380       7.425856649850503E-002 -0.925285397643119     
 -0.675285397643119      -0.426370419103736      -0.174333405742032     
  7.395168499193072E-002 -0.925285397643119      -0.675285397643119     
 -0.426477391401984      -0.173815722523708       7.330380456450789E-002
 -0.925285397643119      -0.675285397643119      -0.426413935843678     
 -0.173525932371311       7.322670784789598E-002 -0.925285397643119     
 -0.675285397643119      -0.426393444651934      -0.173456101765182     
  7.322039121626923E-002 -0.925285397643119      -0.675285397643119     
 -0.426386852658640      -0.173437304190508       7.322128219591839E-002
 -0.925285397643119      -0.675285397643119      -0.426384793904148     
 -0.173431855453837       7.322193115469788E-002 -0.925285397643119     
 -0.675285397643119      -0.426384793904148      -0.173431855453837     
  7.322193115469790E-002 -0.925285397643119      -0.675285397643119     
 -0.426386852658640      -0.173437304190508       7.322128219591839E-002
 -0.925285397643119      -0.675285397643119      -0.426393444651934     
 -0.173456101765182       7.322039121626921E-002 -0.925285397643119     
 -0.675285397643119      -0.426413935843678      -0.173525932371311     
  7.322670784789598E-002 -0.925285397643119      -0.675285397643119     
 -0.426477391401984      -0.173815722523708       7.330380456450784E-002
 -0.925285397643119      -0.675285397643119      -0.426370419103736     
 -0.174333405742032       7.395168499193071E-002 -0.925285397643119     
 -0.675285397643119      -0.425319503509719      -0.175263308085380     
  7.425856649850500E-002
  0.000000000000000E+000  0.000000000000000E+000  3.913514442681798E-004
  4.836064786023453E-004  8.763940203323044E-004  0.290581825739480     
  0.290581825739480       0.291024558348192       0.289798463930188     
  0.291224070617249        1.14543974346790        1.14543974346790     
   1.14561969219126        1.14554071960961        1.14567370600635     
   2.51489251828899        2.51489251828899        2.51492979099852     
   2.51491559450104        2.51494411983022        4.31935253268844     
   4.31935253268844        4.31936093982126        4.31935741927044     
   4.31936448789279        6.45395112957464        6.45395112957464     
   6.45395340321914        6.45395232983053        6.45395447322008     
   8.79463319744677        8.79463319744677        8.79463370900124     
   8.79463345177078        8.79463396372721        11.2053668025532     
   11.2053668025532        11.2053662909988        11.2053665482292     
   11.2053660362728        13.5460488704254        13.5460488704254     
   13.5460465967809        13.5460476701695        13.5460455267799     
   15.6806474673116        15.6806474673116        15.6806390601787     
   15.6806425807296        15.6806355121072        17.4851074817110     
   17.4851074817110        17.4850702090015        17.4850844054990     
   17.4850558801698        18.8545602565321        18.8545602565321     
   18.8543803078087        18.8544592803904        18.8543262939936     
   19.7094181742605        19.7094181742605        19.7089754416518     
   19.7102015360698        19.7087759293827        20.0000000000000     
   20.0000000000000        19.9996086485557        19.9995163935214     
   19.9991236059797     
 -6.536680706074363E-003 -6.536680706074363E-003 -8.493708398448895E-003
 -1.147819068768638E-002  2.039363192944694E-004 -6.536680706074363E-003
 -6.536680706074363E-003 -3.364540943778205E-002 -4.310285409662033E-002
 -1.163262499994460E-002 -6.536680706074363E-003 -6.536680706074363E-003
 -2.929800291252239E-002 -3.731738104554980E-002 -1.079346131497730E-003
 -6.536680706074363E-003 -6.536680706074363E-003 -2.860511495747942E-002
 -3.585879966991372E-002  2.073543801140184E-003 -6.536680706074363E-003
 -6.536680706074363E-003 -2.837420052521768E-002 -3.539793606148267E-002
  2.916381196627400E-003 -6.536680706074363E-003 -6.536680706074363E-003
 -2.829976078763768E-002 -3.525831554652463E-002  3.154956331569479E-003
 -6.536680706074363E-003 -6.536680706074363E-003 -2.827680300666010E-002
 -3.521640219256186E-002  3.225214762404626E-003 -6.536680706074363E-003
 -6.536680706074363E-003 -2.827680300666009E-002 -3.521640219256184E-002
  3.225214762404630E-003 -6.536680706074363E-003 -6.536680706074363E-003
 -2.829976078763767E-002 -3.525831554652462E-002  3.154956331569484E-003
 -6.536680706074363E-003 -6.536680706074363E-003 -2.837420052521770E-002
 -3.539793606148267E-002  2.916381196627412E-003 -6.536680706074363E-003
 -6.536680706074363E-003 -2.860511495747941E-002 -3.585879966991369E-002
  2.073543801140203E-003 -6.536680706074363E-003 -6.536680706074363E-003
 -2.929800291252241E-002 -3.731738104554980E-002 -1.079346131497683E-003
 -6.536680706074363E-003 -6.536680706074363E-003 -3.364540943778208E-002
 -4.310285409662033E-002 -1.163262499994455E-002 -6.536680706074363E-003
 -6.536680706074363E-003 -8.493708398448846E-003 -1.147819068768635E-002
  2.039363192944928E-004
  0.884911471366558       0.817122145994892       0.717952076931788     
  0.545687230928579        1.31507668024105        1.19436106594707     
   1.02014754055350       0.735561100336828        1.46395879974757     
   1.31238267385890        1.10391394579400       0.782326100572016     
   1.49868926620788        1.33806052524169        1.12094440580768     
  0.791278928221502        1.50712425988876        1.34413341106689     
   1.12488759619166       0.793323245359819        1.50954269403987     
   1.34586936362122        1.12601564997301       0.793911270808085     
   1.51010392089124        1.34627288741357        1.12627868704179     
  0.794049049972261        1.50954269403987        1.34586936362122     
   1.12601564997301       0.793911270808084        1.50712425988876     
   1.34413341106689        1.12488759619166       0.793323245359819     
   1.49868926620788        1.33806052524169        1.12094440580768     
  0.791278928221502        1.46395879974757        1.31238267385890     
   1.10391394579400       0.782326100572015        1.31507668024105     
   1.19436106594707        1.02014754055351       0.735561100336828     
  0.884911471366559       0.817122145994892       0.717952076931788     
  0.545687230928579     
 Zone I=    2 J=1   K=1   T="FarWake"
 DATAPACKING=BLOCK
 VARLOCATION=([4]=CELLCENTERED)
  7.425856649850500E-002  7.425856649850500E-002
   19.9991236059797        19.9991236059797     
  2.039363192944928E-004  2.039363192944928E-004
  0.000000000000000E+000
