 Title = "Wing and Wake"
 VARIABLES = "X" "Y" "Z" "GAM"
 Zone I=    5 J=   14 K=1  T="Blade"
 DATAPACKING=BLOCK
 VARLOCATION=([4]=CELLCENTERED)
  -6.99619469809175       -6.74714602356881       -6.49809734904587     
  -6.24904867452294       -6.00000000000000       -6.99619469809175     
  -6.74714602356881       -6.49809734904587       -6.24904867452294     
  -6.00000000000000       -6.99619469809175       -6.74714602356881     
  -6.49809734904587       -6.24904867452294       -6.00000000000000     
  -6.99619469809175       -6.74714602356881       -6.49809734904587     
  -6.24904867452294       -6.00000000000000       -6.99619469809175     
  -6.74714602356881       -6.49809734904587       -6.24904867452294     
  -6.00000000000000       -6.99619469809175       -6.74714602356881     
  -6.49809734904587       -6.24904867452294       -6.00000000000000     
  -6.99619469809175       -6.74714602356881       -6.49809734904587     
  -6.24904867452294       -6.00000000000000       -6.99619469809175     
  -6.74714602356881       -6.49809734904587       -6.24904867452294     
  -6.00000000000000       -6.99619469809175       -6.74714602356881     
  -6.49809734904587       -6.24904867452294       -6.00000000000000     
  -6.99619469809175       -6.74714602356881       -6.49809734904587     
  -6.24904867452294       -6.00000000000000       -6.99619469809175     
  -6.74714602356881       -6.49809734904587       -6.24904867452294     
  -6.00000000000000       -6.99619469809175       -6.74714602356881     
  -6.49809734904587       -6.24904867452294       -6.00000000000000     
  -6.99619469809175       -6.74714602356881       -6.49809734904587     
  -6.24904867452294       -6.00000000000000       -6.99619469809175     
  -6.74714602356881       -6.49809734904587       -6.24904867452294     
  -6.00000000000000     
  0.000000000000000E+000  0.000000000000000E+000  0.000000000000000E+000
  0.000000000000000E+000  0.000000000000000E+000  0.290581825739480     
  0.290581825739480       0.290581825739480       0.290581825739480     
  0.290581825739480        1.14543974346790        1.14543974346790     
   1.14543974346790        1.14543974346790        1.14543974346790     
   2.51489251828899        2.51489251828899        2.51489251828899     
   2.51489251828899        2.51489251828899        4.31935253268844     
   4.31935253268844        4.31935253268844        4.31935253268844     
   4.31935253268844        6.45395112957464        6.45395112957464     
   6.45395112957464        6.45395112957464        6.45395112957464     
   8.79463319744677        8.79463319744677        8.79463319744677     
   8.79463319744677        8.79463319744677        11.2053668025532     
   11.2053668025532        11.2053668025532        11.2053668025532     
   11.2053668025532        13.5460488704254        13.5460488704254     
   13.5460488704254        13.5460488704254        13.5460488704254     
   15.6806474673116        15.6806474673116        15.6806474673116     
   15.6806474673116        15.6806474673116        17.4851074817110     
   17.4851074817110        17.4851074817110        17.4851074817110     
   17.4851074817110        18.8545602565321        18.8545602565321     
   18.8545602565321        18.8545602565321        18.8545602565321     
   19.7094181742605        19.7094181742605        19.7094181742605     
   19.7094181742605        19.7094181742605        20.0000000000000     
   20.0000000000000        20.0000000000000        20.0000000000000     
   20.0000000000000     
  8.715574274765817E-002  6.536680706074363E-002  4.357787137382908E-002
  2.178893568691454E-002  0.000000000000000E+000  8.715574274765817E-002
  6.536680706074363E-002  4.357787137382908E-002  2.178893568691454E-002
  0.000000000000000E+000  8.715574274765817E-002  6.536680706074363E-002
  4.357787137382908E-002  2.178893568691454E-002  0.000000000000000E+000
  8.715574274765817E-002  6.536680706074363E-002  4.357787137382908E-002
  2.178893568691454E-002  0.000000000000000E+000  8.715574274765817E-002
  6.536680706074363E-002  4.357787137382908E-002  2.178893568691454E-002
  0.000000000000000E+000  8.715574274765817E-002  6.536680706074363E-002
  4.357787137382908E-002  2.178893568691454E-002  0.000000000000000E+000
  8.715574274765817E-002  6.536680706074363E-002  4.357787137382908E-002
  2.178893568691454E-002  0.000000000000000E+000  8.715574274765817E-002
  6.536680706074363E-002  4.357787137382908E-002  2.178893568691454E-002
  0.000000000000000E+000  8.715574274765817E-002  6.536680706074363E-002
  4.357787137382908E-002  2.178893568691454E-002  0.000000000000000E+000
  8.715574274765817E-002  6.536680706074363E-002  4.357787137382908E-002
  2.178893568691454E-002  0.000000000000000E+000  8.715574274765817E-002
  6.536680706074363E-002  4.357787137382908E-002  2.178893568691454E-002
  0.000000000000000E+000  8.715574274765817E-002  6.536680706074363E-002
  4.357787137382908E-002  2.178893568691454E-002  0.000000000000000E+000
  8.715574274765817E-002  6.536680706074363E-002  4.357787137382908E-002
  2.178893568691454E-002  0.000000000000000E+000  8.715574274765817E-002
  6.536680706074363E-002  4.357787137382908E-002  2.178893568691454E-002
  0.000000000000000E+000
  0.723433147109791       0.972220856216401        1.10629294335361     
   1.17632170107136        1.04169938477163        1.46188036778217     
   1.69986906403207        1.82461806298213        1.20575673906130     
   1.71147259085120        2.00757832971030        2.16640215973624     
   1.27766225987289        1.81792981738491        2.13654390137536     
   2.30820150677466        1.30694331987425        1.86051325946421     
   2.18734691724872        2.36335586200884        1.31814129137740     
   1.87661436210076        2.20635345107275        2.38378931368527     
   1.32104487309244        1.88076604089067        2.21122824876508     
   2.38900359470453        1.31814129137740        1.87661436210076     
   2.20635345107275        2.38378931368527        1.30694331987425     
   1.86051325946421        2.18734691724872        2.36335586200884     
   1.27766225987289        1.81792981738491        2.13654390137536     
   2.30820150677466        1.20575673906130        1.71147259085121     
   2.00757832971030        2.16640215973624        1.04169938477163     
   1.46188036778217        1.69986906403207        1.82461806298214     
  0.723433147109791       0.972220856216401        1.10629294335361     
   1.17632170107136     
 Zone I=   25 J=   14 K=1  T="NearWake"
 DATAPACKING=BLOCK
 VARLOCATION=([4]=CELLCENTERED)
  -5.92528539764312       -5.67528539764312       -5.42474213780646     
  -5.17422128412897       -4.92370870287020       -4.67319892838545     
  -4.42274637862577       -4.17233246294520       -3.92199292301344     
  -3.67173182956696       -3.42157821558892       -3.17155459101810     
  -2.92169761217118       -2.67204985031528       -2.42266853639458     
  -2.17362617214431       -1.92501649429619       -1.67695730306744     
  -1.42959066022180       -1.18306676617241      -0.937482461598894     
 -0.692643212162236      -0.447512764431584      -0.188301445346451     
  3.260095644647544E-002  -5.92528539764312       -5.67528539764312     
  -5.42564671324411       -5.17540634691860       -4.92529813632143     
  -4.67504113682792       -4.42482828126489       -4.17458410667901     
  -3.92437284431515       -3.67417777771311       -3.42402717463685     
  -3.17392439421062       -2.92388881417899       -2.67393242664714     
  -2.42407311753602       -2.17432404013812       -1.92469224084998     
  -1.67515866648418       -1.42563579148318       -1.17585088502015     
 -0.925036364693924      -0.670968638558640      -0.405422565561510     
 -7.979363661267189E-002  3.055835837603370E-002  -5.92528539764312     
  -5.67528539764312       -5.42632257766500       -5.17665823511923     
  -4.92719293295163       -4.67752399946853       -4.42789232103055     
  -4.17819281898817       -3.92849995518557       -3.67878612852027     
  -3.42907749350076       -3.17936715589244       -2.92966352066429     
  -2.67996036491322       -2.43024945026729       -2.18050353424905     
  -1.93066693371956       -1.68061994294110       -1.43010861770691     
  -1.17856570479795      -0.924628822796868      -0.664598762331974     
 -0.386416014307875      -9.727809744585173E-003 -9.078254522330661E-003
  -5.92528539764312       -5.67528539764312       -5.42632595487891     
  -5.17665688309900       -4.92718823099680       -4.67751218912410     
  -4.42787230559055       -4.17815663053919       -3.92843972331475     
  -3.67868752018907       -3.42892300221258       -3.17913182622235     
  -2.92931529576575       -2.67945672576684       -2.42953582262710     
  -2.17950989684554       -1.92930491897873       -1.67877883139782     
  -1.42765016357543       -1.17531287941358      -0.920333330150849     
 -0.658829325023985      -0.378150587762064       4.865348927268708E-003
 -2.081156113120219E-002  -5.92528539764312       -5.67528539764312     
  -5.42631601662916       -5.17662695085904       -4.92713617408689     
  -4.67743182092466       -4.42776271395119       -4.17801303527606     
  -3.92825988106444       -3.67846678112732       -3.42865758006665     
  -3.17881668863137       -2.92894572800610       -2.67902770156681     
  -2.42904287433985       -2.17894912528265       -1.92867340454493     
  -1.67807427915467       -1.42686958818335       -1.17444852542344     
 -0.919362426688018      -0.657685738031719      -0.376618871986261     
  7.422396784791648E-003 -2.423342457316635E-002  -5.92528539764312     
  -5.67528539764312       -5.42631051709930       -5.17661033588093     
  -4.92710854443092       -4.67738965643129       -4.42770659367890     
  -4.17794127753613       -3.92817290210214       -3.67836409459653     
  -3.42853970101184       -3.17868394465593       -2.92879898466304     
  -2.67886791638880       -2.42887130231197       -2.17876707105247     
  -1.92848211048099       -1.67787453406356       -1.42666113533163     
  -1.17422889119638      -0.919124497741448      -0.657411251779253     
 -0.376252969409685       8.008815926144133E-003 -2.512095233329470E-002
  -5.92528539764312       -5.67528539764312       -5.42630855938405     
  -5.17660414052786       -4.92709862062967       -4.67737466089454     
  -4.42768707653479       -4.17791677271691       -3.92814384124593     
  -3.67833052984269       -3.42850206313190       -3.17864255713540     
  -2.92875431609962       -2.67882039629495       -2.42882137572423     
  -2.17871510349678       -1.92842835207914       -1.67781901276043     
  -1.42660351550569       -1.17416819634997      -0.919058522787078     
 -0.657334916558675      -0.376151718406259       8.171025586738623E-003
 -2.535275272710995E-002  -5.92528539764312       -5.67528539764312     
  -5.42630855938405       -5.17660414052786       -4.92709862062967     
  -4.67737466089454       -4.42768707653479       -4.17791677271691     
  -3.92814384124593       -3.67833052984269       -3.42850206313190     
  -3.17864255713540       -2.92875431609962       -2.67882039629495     
  -2.42882137572423       -2.17871510349678       -1.92842835207914     
  -1.67781901276043       -1.42660351550569       -1.17416819634997     
 -0.919058522787078      -0.657334916558675      -0.376151718406259     
  8.171025586738394E-003 -2.535275272710989E-002  -5.92528539764312     
  -5.67528539764312       -5.42631051709930       -5.17661033588093     
  -4.92710854443092       -4.67738965643129       -4.42770659367890     
  -4.17794127753613       -3.92817290210214       -3.67836409459653     
  -3.42853970101184       -3.17868394465593       -2.92879898466304     
  -2.67886791638880       -2.42887130231197       -2.17876707105247     
  -1.92848211048099       -1.67787453406356       -1.42666113533163     
  -1.17422889119638      -0.919124497741448      -0.657411251779253     
 -0.376252969409685       8.008815926144186E-003 -2.512095233329472E-002
  -5.92528539764312       -5.67528539764312       -5.42631601662916     
  -5.17662695085904       -4.92713617408689       -4.67743182092466     
  -4.42776271395119       -4.17801303527606       -3.92825988106444     
  -3.67846678112732       -3.42865758006665       -3.17881668863137     
  -2.92894572800610       -2.67902770156681       -2.42904287433985     
  -2.17894912528265       -1.92867340454493       -1.67807427915467     
  -1.42686958818335       -1.17444852542344      -0.919362426688018     
 -0.657685738031719      -0.376618871986261       7.422396784791525E-003
 -2.423342457316638E-002  -5.92528539764312       -5.67528539764312     
  -5.42632595487891       -5.17665688309900       -4.92718823099680     
  -4.67751218912410       -4.42787230559055       -4.17815663053919     
  -3.92843972331475       -3.67868752018907       -3.42892300221258     
  -3.17913182622235       -2.92931529576575       -2.67945672576684     
  -2.42953582262710       -2.17950989684554       -1.92930491897873     
  -1.67877883139782       -1.42765016357543       -1.17531287941358     
 -0.920333330150849      -0.658829325023985      -0.378150587762064     
  4.865348927268446E-003 -2.081156113120234E-002  -5.92528539764312     
  -5.67528539764312       -5.42632257766500       -5.17665823511923     
  -4.92719293295163       -4.67752399946853       -4.42789232103055     
  -4.17819281898817       -3.92849995518557       -3.67878612852027     
  -3.42907749350076       -3.17936715589244       -2.92966352066429     
  -2.67996036491322       -2.43024945026729       -2.18050353424905     
  -1.93066693371956       -1.68061994294110       -1.43010861770691     
  -1.17856570479795      -0.924628822796868      -0.664598762331974     
 -0.386416014307875      -9.727809744585234E-003 -9.078254522330978E-003
  -5.92528539764312       -5.67528539764312       -5.42564671324411     
  -5.17540634691860       -4.92529813632143       -4.67504113682792     
  -4.42482828126489       -4.17458410667901       -3.92437284431515     
  -3.67417777771311       -3.42402717463685       -3.17392439421062     
  -2.92388881417899       -2.67393242664714       -2.42407311753602     
  -2.17432404013812       -1.92469224084998       -1.67515866648418     
  -1.42563579148318       -1.17585088502015      -0.925036364693923     
 -0.670968638558638      -0.405422565561510      -7.979363661267283E-002
  3.055835837603260E-002  -5.92528539764312       -5.67528539764312     
  -5.42474213780646       -5.17422128412897       -4.92370870287020     
  -4.67319892838545       -4.42274637862577       -4.17233246294520     
  -3.92199292301344       -3.67173182956696       -3.42157821558892     
  -3.17155459101810       -2.92169761217118       -2.67204985031528     
  -2.42266853639458       -2.17362617214431       -1.92501649429619     
  -1.67695730306744       -1.42959066022180       -1.18306676617241     
 -0.937482461598894      -0.692643212162235      -0.447512764431586     
 -0.188301445346452       3.260095644647688E-002
  0.000000000000000E+000  0.000000000000000E+000  5.852362118784195E-004
  2.211209687229951E-003  4.156009030437840E-003  6.928516019904758E-003
  1.017521714536247E-002  1.402553200623137E-002  1.831599443132286E-002
  2.302134772120962E-002  2.802457091044373E-002  3.323451941610050E-002
  3.852390707803065E-002  4.375651526344868E-002  4.876885460773316E-002
  5.337213507284596E-002  5.734239298942451E-002  6.041419354078589E-002
  6.227553412161038E-002  6.258059036281247E-002  6.113377511022629E-002
  5.825263951751723E-002  5.735848166248818E-002  3.407025019055517E-002
  4.677471049233402E-002  0.290581825739480       0.290581825739480     
  0.291225890120033       0.287813997408195       0.285275782063389     
  0.280062481387266       0.274507487242683       0.267450355042980     
  0.259675040885925       0.250958757002044       0.241623984703173     
  0.231745082922562       0.221550425364937       0.211230033486599     
  0.201036847492273       0.191254785704588       0.182237790153653     
  0.174435287104437       0.168458983938412       0.165198520901892     
  0.166123982713794       0.174087599507827       0.196319398474343     
  0.232465777175860       0.314922621931823        1.14543974346790     
   1.14543974346790        1.14568771263233        1.14541163448231     
   1.14554322226588        1.14535221584658        1.14527321028013     
   1.14507255517481        1.14487869078045        1.14462829425390     
   1.14436125624595        1.14406658784375        1.14376364877149     
   1.14346145101908        1.14318155153281        1.14294899147073     
   1.14280027457426        1.14278380237196        1.14296541947359     
   1.14343225953503        1.14430014586175        1.14578888033894     
   1.14828496764947        1.14952258193720        1.15756152663309     
   2.51489251828899        2.51489251828899        2.51498782392231     
   2.51490941978638        2.51498458565549        2.51496097406790     
   2.51498667174541        2.51498508103410        2.51499781930594     
   2.51500501911838        2.51501889801807        2.51503570495039     
   2.51506016639953        2.51509296358962        2.51513688203619     
   2.51519355125712        2.51526482422513        2.51535190142885     
   2.51545594107171        2.51557910498738        2.51572735271534     
   2.51592397994326        2.51621988321256        2.51589639491373     
   2.51799767571225        4.31935253268844        4.31935253268844     
   4.31939276416098        4.31936852637094        4.31940208538986     
   4.31940103009084        4.31941867140623        4.31942802108271     
   4.31944323956813        4.31945731810859        4.31947384525330     
   4.31949101901013        4.31950959039887        4.31952889104206     
   4.31954876821398        4.31956864782368        4.31958803664025     
   4.31960638495080        4.31962337600017        4.31963924385397     
   4.31965528222214        4.31967638508791        4.31971264874477     
   4.31957786200572        4.32019390916328        6.45395112957464     
   6.45395112957464        6.45396778825311        6.45396034145946     
   6.45397400077017        6.45397516602084        6.45398285593394     
   6.45398751927663        6.45399398866006        6.45399979490364     
   6.45400605580133        6.45401209204072        6.45401806971312     
   6.45402371335210        6.45402893592833        6.45403354985888     
   6.45403742944115        6.45404046915275        6.45404266498871     
   6.45404419072462        6.45404551521283        6.45404809171702     
   6.45405474538373        6.45400950554691        6.45422130959773     
   8.79463319744677        8.79463319744677        8.79463773029472     
   8.79463601545009        8.79463964489392        8.79464008713688     
   8.79464212186613        8.79464336034007        8.79464499394502     
   8.79464641237608        8.79464788567156        8.79464924922623     
   8.79465054484649        8.79465171143826        8.79465273557335     
   8.79465358271099        8.79465423510492        8.79465468121604     
   8.79465493353849        8.79465504467283        8.79465513273964     
   8.79465554191687        8.79465693490714        8.79464617537307     
   8.79469959388852        11.2053668025532        11.2053668025532     
   11.2053622697053        11.2053639845499        11.2053603551061     
   11.2053599128631        11.2053578781339        11.2053566396599     
   11.2053550060550        11.2053535876239        11.2053521143284     
   11.2053507507738        11.2053494551535        11.2053482885617     
   11.2053472644266        11.2053464172890        11.2053457648951     
   11.2053453187840        11.2053450664615        11.2053449553272     
   11.2053448672604        11.2053444580831        11.2053430650929     
   11.2053538246269        11.2053004061115        13.5460488704254     
   13.5460488704254        13.5460322117469        13.5460396585405     
   13.5460259992298        13.5460248339792        13.5460171440661     
   13.5460124807234        13.5460060113399        13.5460002050963     
   13.5459939441987        13.5459879079593        13.5459819302869     
   13.5459762866479        13.5459710640717        13.5459664501411     
   13.5459625705588        13.5459595308472        13.5459573350113     
   13.5459558092754        13.5459544847872        13.5459519082830     
   13.5459452546163        13.5459904944531        13.5457786904023     
   15.6806474673116        15.6806474673116        15.6806072358390     
   15.6806314736291        15.6805979146101        15.6805989699092     
   15.6805813285938        15.6805719789173        15.6805567604319     
   15.6805426818914        15.6805261547467        15.6805089809899     
   15.6804904096011        15.6804711089579        15.6804512317860     
   15.6804313521763        15.6804119633598        15.6803936150492     
   15.6803766239998        15.6803607561460        15.6803447177779     
   15.6803236149121        15.6802873512552        15.6804221379943     
   15.6798060908367        17.4851074817110        17.4851074817110     
   17.4850121760777        17.4850905802136        17.4850154143445     
   17.4850390259321        17.4850133282546        17.4850149189659     
   17.4850021806941        17.4849949808816        17.4849811019819     
   17.4849642950496        17.4849398336005        17.4849070364104     
   17.4848631179638        17.4848064487429        17.4847351757749     
   17.4846480985711        17.4845440589283        17.4844208950126     
   17.4842726472847        17.4840760200567        17.4837801167874     
   17.4841036050863        17.4820023242877        18.8545602565321     
   18.8545602565321        18.8543122873677        18.8545883655177     
   18.8544567777341        18.8546477841534        18.8547267897199     
   18.8549274448252        18.8551213092195        18.8553717057461     
   18.8556387437541        18.8559334121562        18.8562363512285     
   18.8565385489809        18.8568184484672        18.8570510085293     
   18.8571997254257        18.8572161976280        18.8570345805264     
   18.8565677404650        18.8556998541383        18.8542111196611     
   18.8517150323505        18.8504774180628        18.8424384733669     
   19.7094181742605        19.7094181742605        19.7087741098800     
   19.7121860025918        19.7147242179366        19.7199375186127     
   19.7254925127573        19.7325496449570        19.7403249591141     
   19.7490412429980        19.7583760152968        19.7682549170774     
   19.7784495746351        19.7887699665134        19.7989631525077     
   19.8087452142954        19.8177622098463        19.8255647128956     
   19.8315410160616        19.8348014790981        19.8338760172862     
   19.8259124004922        19.8036806015257        19.7675342228241     
   19.6850773780682        20.0000000000000        20.0000000000000     
   19.9994147637881        19.9977887903128        19.9958439909696     
   19.9930714839801        19.9898247828546        19.9859744679938     
   19.9816840055687        19.9769786522788        19.9719754290896     
   19.9667654805839        19.9614760929220        19.9562434847366     
   19.9512311453923        19.9466278649272        19.9426576070106     
   19.9395858064592        19.9377244658784        19.9374194096372     
   19.9388662248898        19.9417473604825        19.9426415183375     
   19.9659297498094        19.9532252895077     
 -6.536680706074363E-003 -6.536680706074363E-003  1.439161515250833E-003
  6.191624350030810E-003  1.282319651509331E-002  1.845382412189509E-002
  2.428770324677659E-002  2.951438895174158E-002  3.436848853209414E-002
  3.857334901601126E-002  4.212351403394301E-002  4.488603955237552E-002
  4.679847550758691E-002  4.776716614792586E-002  4.771410685716443E-002
  4.654871836880067E-002  4.417364100703913E-002  4.047030317820822E-002
  3.528829253267350E-002  2.842746284022329E-002  1.962207649524365E-002
  8.389977026464939E-003 -9.935405314262595E-003 -3.032004742188977E-002
  6.588959063527065E-002 -6.536680706074363E-003 -6.536680706074363E-003
 -3.619548951045330E-002 -4.928166416717721E-002 -6.957794771295475E-002
 -8.505414242176422E-002 -0.101957712456210      -0.117014223364223     
 -0.131920266373264      -0.145754005890255      -0.158983744505976     
 -0.171368101801704      -0.183068146608384      -0.194071975443222     
 -0.204503911430807      -0.214470805295799      -0.224147602087917     
 -0.233734389583735      -0.243458009351865      -0.253486483871591     
 -0.263750923091846      -0.272938449155722      -0.277030779138440     
 -0.242220171765949      -2.421315644956655E-002 -6.536680706074363E-003
 -6.536680706074363E-003 -2.740568281426534E-002 -3.568878112416015E-002
 -4.900787773777806E-002 -5.899077067127018E-002 -7.009497421368695E-002
 -8.026375720577693E-002 -9.065552984136308E-002 -0.100790225750349     
 -0.110994134845766      -0.121181984461338      -0.131473180293015     
 -0.141886831542604      -0.152498131221539      -0.163362010097240     
 -0.174551106763436      -0.186128916707542      -0.198133727709674     
 -0.210490924301469      -0.222738918021645      -0.233060802190117     
 -0.234019877535339      -0.180353568238437       5.219986506203599E-002
 -6.536680706074363E-003 -6.536680706074363E-003 -2.576129730474225E-002
 -3.273595527468161E-002 -4.429508692177028E-002 -5.256464179543121E-002
 -6.183384567438462E-002 -7.018752557026937E-002 -7.875980546253049E-002
 -8.712160997654642E-002 -9.560845249888482E-002 -0.104162604997927     
 -0.112920760365973      -0.121923712371445      -0.131265302641794     
 -0.141018150233983      -0.151266985733865      -0.162076544046271     
 -0.173464175073914      -0.185292692406019      -0.196962745347164     
 -0.206383730345817      -0.205417713634431      -0.142309524571262     
  8.346362046441415E-002 -6.536680706074363E-003 -6.536680706074363E-003
 -2.520259270489277E-002 -3.169663431375040E-002 -4.261147953280760E-002
 -5.023089590500629E-002 -5.879687465045847E-002 -6.643968582186573E-002
 -7.429017138658855E-002 -8.193658521920473E-002 -8.971976889772838E-002
 -9.759112451296414E-002 -0.105692867291064      -0.114071009344098     
 -0.122822517967601      -0.132021465346372      -0.141751830364615     
 -0.152075383592294      -0.163004449322485      -0.174395347618213     
 -0.185641425291314      -0.194643399426029      -0.193216334358827     
 -0.128123250169942       9.564040256799554E-002 -6.536680706074363E-003
 -6.536680706074363E-003 -2.499364726209087E-002 -3.130833774816727E-002
 -4.198343065391675E-002 -4.936056135501649E-002 -5.766402657260466E-002
 -6.504018646805101E-002 -7.261838134670645E-002 -7.999270983737249E-002
 -8.750565303723198E-002 -9.511162402503825E-002 -0.102954734531692     
 -0.111083004533022      -0.119595064758755      -0.128566612002792     
 -0.138083217011775      -0.148208346725642      -0.158956202591521     
 -0.170185161798214      -0.181290522107588      -0.190173765385368     
 -0.188639027874767      -0.123071767086857       0.100180813580284     
 -6.536680706074363E-003 -6.536680706074363E-003 -2.492082369866948E-002
 -3.117399253351283E-002 -4.176694820277649E-002 -4.906155947722125E-002
 -5.727572445061299E-002 -6.456131361350773E-002 -7.204701074153427E-002
 -7.932886747262022E-002 -8.674987662655355E-002 -9.426548579055370E-002
 -0.102020494141946      -0.110063692194903      -0.118494396004742     
 -0.127388995249000      -0.136833736351659      -0.146892758245445     
 -0.157580913853368      -0.168757168873066      -0.179817225576215     
 -0.188662436563767      -0.187093401779641      -0.121394324623415     
  0.101726036994639      -6.536680706074363E-003 -6.536680706074363E-003
 -2.492082369866951E-002 -3.117399253351282E-002 -4.176694820277663E-002
 -4.906155947722127E-002 -5.727572445061287E-002 -6.456131361350791E-002
 -7.204701074153451E-002 -7.932886747262019E-002 -8.674987662655363E-002
 -9.426548579055374E-002 -0.102020494141946      -0.110063692194903     
 -0.118494396004742      -0.127388995249000      -0.136833736351659     
 -0.146892758245445      -0.157580913853369      -0.168757168873066     
 -0.179817225576215      -0.188662436563767      -0.187093401779641     
 -0.121394324623415       0.101726036994639      -6.536680706074363E-003
 -6.536680706074363E-003 -2.499364726209081E-002 -3.130833774816736E-002
 -4.198343065391684E-002 -4.936056135501640E-002 -5.766402657260464E-002
 -6.504018646805110E-002 -7.261838134670666E-002 -7.999270983737244E-002
 -8.750565303723187E-002 -9.511162402503837E-002 -0.102954734531692     
 -0.111083004533022      -0.119595064758755      -0.128566612002792     
 -0.138083217011775      -0.148208346725642      -0.158956202591521     
 -0.170185161798213      -0.181290522107588      -0.190173765385368     
 -0.188639027874767      -0.123071767086857       0.100180813580284     
 -6.536680706074363E-003 -6.536680706074363E-003 -2.520259270489281E-002
 -3.169663431375045E-002 -4.261147953280759E-002 -5.023089590500632E-002
 -5.879687465045866E-002 -6.643968582186574E-002 -7.429017138658849E-002
 -8.193658521920456E-002 -8.971976889772822E-002 -9.759112451296455E-002
 -0.105692867291064      -0.114071009344098      -0.122822517967601     
 -0.132021465346373      -0.141751830364615      -0.152075383592294     
 -0.163004449322485      -0.174395347618212      -0.185641425291314     
 -0.194643399426030      -0.193216334358827      -0.128123250169941     
  9.564040256799561E-002 -6.536680706074363E-003 -6.536680706074363E-003
 -2.576129730474227E-002 -3.273595527468157E-002 -4.429508692177014E-002
 -5.256464179543126E-002 -6.183384567438467E-002 -7.018752557026947E-002
 -7.875980546253047E-002 -8.712160997654642E-002 -9.560845249888499E-002