 Title = "Wing and Wake"
 VARIABLES = "X" "Y" "Z" "GAM"
 Zone I=    5 J=   14 K=1  T="Blade"
 DATAPACKING=BLOCK
 VARLOCATION=([4]=CELLCENTERED)
  -10.7461946980917       -10.4971460235688       -10.2480973490459     
  -9.99904867452294       -9.75000000000000       -10.7461946980917     
  -10.4971460235688       -10.2480973490459       -9.99904867452294     
  -9.75000000000000       -10.7461946980917       -10.4971460235688     
  -10.2480973490459       -9.99904867452294       -9.75000000000000     
  -10.7461946980917       -10.4971460235688       -10.2480973490459     
  -9.99904867452294       -9.75000000000000       -10.7461946980917     
  -10.4971460235688       -10.2480973490459       -9.99904867452294     
  -9.75000000000000       -10.7461946980917       -10.4971460235688     
  -10.2480973490459       -9.99904867452294       -9.75000000000000     
  -10.7461946980917       -10.4971460235688       -10.2480973490459     
  -9.99904867452294       -9.75000000000000       -10.7461946980917     
  -10.4971460235688       -10.2480973490459       -9.99904867452294     
  -9.75000000000000       -10.7461946980917       -10.4971460235688     
  -10.2480973490459       -9.99904867452294       -9.75000000000000     
  -10.7461946980917       -10.4971460235688       -10.2480973490459     
  -9.99904867452294       -9.75000000000000       -10.7461946980917     
  -10.4971460235688       -10.2480973490459       -9.99904867452294     
  -9.75000000000000       -10.7461946980917       -10.4971460235688     
  -10.2480973490459       -9.99904867452294       -9.75000000000000     
  -10.7461946980917       -10.4971460235688       -10.2480973490459     
  -9.99904867452294       -9.75000000000000       -10.7461946980917     
  -10.4971460235688       -10.2480973490459       -9.99904867452294     
  -9.75000000000000     
  0.000000000000000E+000  0.000000000000000E+000  0.000000000000000E+000
  0.000000000000000E+000  0.000000000000000E+000  0.290581825739480     
  0.290581825739480       0.290581825739480       0.290581825739480     
  0.290581825739480        1.14543974346790        1.14543974346790     
   1.14543974346790        1.14543974346790        1.14543974346790     
   2.51489251828899        2.51489251828899        2.51489251828899     
   2.51489251828899        2.51489251828899        4.31935253268844     
   4.31935253268844        4.31935253268844        4.31935253268844     
   4.31935253268844        6.45395112957464        6.45395112957464     
   6.45395112957464        6.45395112957464        6.45395112957464     
   8.79463319744677        8.79463319744677        8.79463319744677     
   8.79463319744677        8.79463319744677        11.2053668025532     
   11.2053668025532        11.2053668025532        11.2053668025532     
   11.2053668025532        13.5460488704254        13.5460488704254     
   13.5460488704254        13.5460488704254        13.5460488704254     
   15.6806474673116        15.6806474673116        15.6806474673116     
   15.6806474673116        15.6806474673116        17.4851074817110     
   17.4851074817110        17.4851074817110        17.4851074817110     
   17.4851074817110        18.8545602565321        18.8545602565321     
   18.8545602565321        18.8545602565321        18.8545602565321     
   19.7094181742605        19.7094181742605        19.7094181742605     
   19.7094181742605        19.7094181742605        20.0000000000000     
   20.0000000000000        20.0000000000000        20.0000000000000     
   20.0000000000000     
  8.715574274765817E-002  6.536680706074363E-002  4.357787137382908E-002
  2.178893568691454E-002  0.000000000000000E+000  8.715574274765817E-002
  6.536680706074363E-002  4.357787137382908E-002  2.178893568691454E-002
  0.000000000000000E+000  8.715574274765817E-002  6.536680706074363E-002
  4.357787137382908E-002  2.178893568691454E-002  0.000000000000000E+000
  8.715574274765817E-002  6.536680706074363E-002  4.357787137382908E-002
  2.178893568691454E-002  0.000000000000000E+000  8.715574274765817E-002
  6.536680706074363E-002  4.357787137382908E-002  2.178893568691454E-002
  0.000000000000000E+000  8.715574274765817E-002  6.536680706074363E-002
  4.357787137382908E-002  2.178893568691454E-002  0.000000000000000E+000
  8.715574274765817E-002  6.536680706074363E-002  4.357787137382908E-002
  2.178893568691454E-002  0.000000000000000E+000  8.715574274765817E-002
  6.536680706074363E-002  4.357787137382908E-002  2.178893568691454E-002
  0.000000000000000E+000  8.715574274765817E-002  6.536680706074363E-002
  4.357787137382908E-002  2.178893568691454E-002  0.000000000000000E+000
  8.715574274765817E-002  6.536680706074363E-002  4.357787137382908E-002
  2.178893568691454E-002  0.000000000000000E+000  8.715574274765817E-002
  6.536680706074363E-002  4.357787137382908E-002  2.178893568691454E-002
  0.000000000000000E+000  8.715574274765817E-002  6.536680706074363E-002
  4.357787137382908E-002  2.178893568691454E-002  0.000000000000000E+000
  8.715574274765817E-002  6.536680706074363E-002  4.357787137382908E-002
  2.178893568691454E-002  0.000000000000000E+000  8.715574274765817E-002
  6.536680706074363E-002  4.357787137382908E-002  2.178893568691454E-002
  0.000000000000000E+000
  0.750123362633635        1.00969734909387        1.15070242617962     
   1.22535376123040        1.08280153529626        1.52163814584395     
   1.77187498093334        1.90467076430548        1.25956548670551     
   1.79040305450212        2.10336542911627        2.27342680727094     
   1.34297612007482        1.91395898672709        2.25332677362259     
   2.43891956471811        1.38145777869613        1.97009455028970     
   2.32061996537638        2.51251100749619        1.39827007816872     
   1.99440030877445        2.34952420712051        2.54390712593572     
   1.40291050235784        2.00107925846478        2.35743592462255     
   2.55247559431795        1.39800004674779        1.99400849948608     
   2.34906215276176        2.54342158092255        1.38112347512374     
   1.96960136593636        2.32002879525078        2.51187985633249     
   1.34286521968003        1.91377613494764        2.25308569105807     
   2.43864001526366        1.25981153974693        1.79072565705283     
   2.10370746987525        2.27374800300540        1.08327803229942     
   1.52228331298501        1.77258993311200        1.90538198508695     
  0.750538376007698        1.01023514843338        1.15129240721837     
   1.22594779844744     
 Zone I=   31 J=   14 K=1  T="NearWake"
 DATAPACKING=BLOCK
 VARLOCATION=([4]=CELLCENTERED)
  -9.67528539764312       -9.42528539764312       -9.17498467447439     
  -8.92444280807549       -8.67390654690437       -8.42320989046373     
  -8.17285128007759       -7.92191918323519       -7.67198306551042     
  -7.42068425860393       -7.16903994144169       -6.91958780108845     
  -6.66887141205405       -6.41852470646333       -6.16808979529458     
  -5.91771603471169       -5.66740552975389       -5.41715162080717     
  -5.16698301948311       -4.91690285972777       -4.66693651793712     
  -4.41710118965893       -4.16742586694702       -3.91794082205093     
  -3.66868547972344       -3.41970629961381       -3.17106039004194     
  -2.92281554955934       -2.67504928418179       -2.42783568248486     
  -2.18117379253493       -9.67528539764312       -9.42528539764312     
  -9.17551870343667       -8.92538620129415       -8.67515024114694     
  -8.42475317104243       -8.17442947498425       -7.92395009304399     
  -7.67351806730154       -7.42268914222360       -7.17222252443700     
  -6.92198054517592       -6.67165031413169       -6.42116820478069     
  -6.17078990998532       -5.92036414202598       -5.66998845888371     
  -5.41961463405277       -5.16928002392619       -4.91897168278297     
  -4.66870624546676       -4.41848574452808       -4.16832175283172     
  -3.91822326031078       -3.66820373090572       -3.41827822210622     
  -3.16846591653716       -2.91878985706983       -2.66927822191612     
  -2.41996017719702       -2.17086369377071       -9.67528539764312     
  -9.42528539764312       -9.17594853851403       -8.92646086748566     
  -8.67689205164156       -8.42721252442754       -8.17754623773282     
  -7.92772976891367       -7.67806862347294       -7.42788670178051     
  -7.17883813545163       -6.92864702914179       -6.67890272263635     
  -6.42895740385242       -6.17911002117286       -5.92922452620360     
  -5.67936673032209       -5.42950811767494       -5.17966693190194     
  -4.92983882467563       -4.68003137173521       -4.43024611034540     
  -4.18048772135028       -3.93075867815390       -3.68106149270215     
  -3.43139624352992       -3.18175984739058       -2.93214267660652     
  -2.68252364709879       -2.43285946463990       -2.18307382424116     
  -9.67528539764312       -9.42528539764312       -9.17596267483313     
  -8.92648518381487       -8.67692844225564       -8.42726083632414     
  -8.17761580010829       -7.92781044150994       -7.67818024058133     
  -7.42800303601046       -7.17897919713416       -6.92883634090670     
  -6.67912902926059       -6.42923574010006       -6.17942082831047     
  -5.92957022778682       -5.67973700958255       -5.42989743261461     
  -5.18006430505013       -4.93023196951705       -4.68040383520936     
  -4.43057768880587       -4.18075324802065       -3.93092732814639     
  -3.68109564863280       -3.43125026601332       -3.18137865362564     
  -2.93146014276833       -2.68146075578363       -2.43132142686756     
  -2.18095685451698       -9.67528539764312       -9.42528539764312     
  -9.17596454956598       -8.92648047053967       -8.67691195802605     
  -8.42723186264971       -8.17756786967882       -7.92775362951806     
  -7.67809022134232       -7.42792094359446       -7.17885434883543     
  -6.92871036776043       -6.67897588039734       -6.42907099331736     
  -6.17923334226177       -5.92936247748074       -5.67950296323336     
  -5.42963436523382       -5.17976677618009       -4.92989479151882     
  -4.68002061712613       -4.43014151539121       -4.18025642479367     
  -3.93036159620589       -3.68045230484449       -3.43052041734494     
  -3.18055354820863       -2.93053157034085       -2.68042146479574     
  -2.43016532344773       -2.17968224662476       -9.67528539764312     
  -9.42528539764312       -9.17596613382889       -8.92647886028382     
  -8.67690327852469       -8.42721684726108       -8.17753832922535     
  -7.92772330084310       -7.67802835065328       -7.42787549613894     
  -7.17876748888933       -6.92862650902136       -6.67887110909729     
  -6.42895665610454       -6.17910263732822       -5.92921781924159     
  -5.67934202267346       -5.42945706663979       -5.17957193108627     
  -4.92968176119164       -4.67978860935349       -4.42988997384197     
  -4.17998494664342       -3.93007005028798       -3.68014087417938     
  -3.43018965585079       -3.18020441560748       -2.93016542860784     
  -2.68004001697979       -2.42977042709560       -2.17927645645615     
  -9.67528539764312       -9.42528539764312       -9.17596690034021     
  -8.92647839770834       -8.67689972489521       -8.42721088866555     
  -8.17752522117670       -7.92771114656480       -7.67799909272209     
  -7.42785663097817       -7.17872642482778       -6.92858843704872     
  -6.67882341936734       -6.42890506834088       -6.17904412669934     
  -5.92915374263757       -5.67927168989915       -5.42938082855238     
  -5.17948973240562       -4.92959381835667       -4.67969511756181     
  -4.42979124208277       -4.17988134814260       -3.92996204171901     
  -3.68002898404458       -3.43007447339403       -3.18008657061771     
  -2.93004555833863       -2.67991871862809       -2.42964817966633     
  -2.17915374579339       -9.67528539764312       -9.42528539764312     
  -9.17596669735880       -8.92647802443139       -8.67689914798896     
  -8.42721001144031       -8.17752399729679       -7.92770939513856     
  -7.67799669200687       -7.42785321538340       -7.17872265292359     
  -6.92858416844340       -6.67881866136685       -6.42889978086040     
  -6.17903827650353       -5.92914729055788       -5.67926459597169     
  -5.42937305149091       -5.17948123060821       -4.92958455051187     
  -4.67968504343876       -4.42978032338011       -4.17986954944383     
  -3.92994933152786       -3.68001533590186       -3.43005986703227     
  -3.18007099312084       -2.93002900522491       -2.67990119472473     
  -2.42962969937721       -2.17913433045912       -9.67528539764312     
  -9.42528539764312       -9.17596570379881       -8.92647806537915     
  -8.67690203098469       -8.42721490138001       -8.17753556189306     
  -7.92771923217010       -7.67802266704177       -7.42786722857645     
  -7.17875822060608       -6.92861585485665       -6.67885904496631     
  -6.42894303941119       -6.17908733088897       -5.92920066351098     
  -5.67932284485128       -5.42943567936634       -5.17954813325271     
  -4.92965533873746       -4.67975933642786       -4.42985761469768     
  -4.17994925836758       -3.93003078658564       -3.68009779045219     
  -3.43014251566795       -3.18015299868529       -2.93010954010196     
  -2.67997949747970       -2.42970516098141       -2.17920636497634     
  -9.67528539764312       -9.42528539764312       -9.17596429641438     
  -8.92647998697951       -8.67691115250607       -8.42723047721187     
  -8.17756579458167       -7.92775030266693       -7.67808535665531     
  -7.42791343156727       -7.17884561122089       -6.92869993578054     
  -6.67896364184247       -6.42905671884801       -6.17921677511019     
  -5.92934331860940       -5.67948086555249       -5.42960892953106     
  -5.17973754029999       -4.92986122083271       -4.67998209081805     
  -4.43009731100151       -4.18020569941493       -3.93030336479276     
  -3.68038541594404       -3.43044352761736       -3.18046509878425     
  -2.93042976989184       -2.68030428585769       -2.43003051319101     
  -2.17952728874160       -9.67528539764312       -9.42528539764312     
  -9.17596291225876       -8.92648557248734       -8.67692894536558     
  -8.42726133160548       -8.17761632097409       -7.92781061992796     
  -7.67818011535376       -7.42800205355734       -7.17897746194937     
  -6.92883357494750       -6.67912507612895       -6.42923043561174     
  -6.17941394758100       -5.92956152383295       -5.67972618251182     
  -5.42988413640405       -5.18004813047435       -4.93021243788088     
  -4.68038038345352       -4.43054965579865       -4.18071985539894     
  -3.93088765506155       -3.68104859114109       -3.43119446147430     
  -3.18131232151329       -2.93138073094230       -2.68136415314919     
  -2.43120025964064       -2.18079668387598       -9.67528539764312     
  -9.42528539764312       -9.17594928425081       -8.92646214543141     
  -8.67689388135139       -8.42721494675144       -8.17754947270662     
  -7.92773373100764       -7.67807378076956       -7.42789346384100     
  -7.17884489325868       -6.92865382221291       -6.67890936900316     
  -6.42896388600942       -6.17911623300381       -5.92923038667115     
  -5.67937211842661       -5.42951289704076       -5.17967092543643     
  -4.92984181467211       -4.68003308324617       -4.43024620206653     
  -4.18048577297537       -3.93075418746954       -3.68105389204544     
  -3.43138497000262       -3.18174454335095       -2.93212373529527     
  -2.68250386267265       -2.43285085078763       -2.18315288088190     
  -9.67528539764312       -9.42528539764312       -9.17551932185845     
  -8.92538684020562       -8.67515114445773       -8.42475461389615     
  -8.17443216718932       -7.92395384703052       -7.67352472456150     
  -7.42270051206896       -7.17223416088277       -6.92199293433061     
  -6.67166325517327       -6.42118177846218       -6.17080417297872     
  -5.92037920351735       -5.67000444905364       -5.41963172291643     
  -5.16929842203585       -4.91899165515592       -4.66872812584797     
  -4.41850994712875       -4.16834879274754       -3.91825377340487     
  -3.66823850307710       -3.41831822756623       -3.16851237045163     
  -2.91884434195375       -2.66934295559115       -2.42003875359708     
  -2.17096221762156       -9.67528539764312       -9.42528539764312     
  -9.17498591389103       -8.92444567865289       -8.67391148036610     
  -8.42321716663718       -8.17286121477017       -7.92193194621977     
  -7.67199753692588       -7.42070028280179       -7.16905702580476     
  -6.91960590363719       -6.66889068690004       -6.41854530506826     
  -6.16811187788588       -5.91773978245029       -5.66743114569645     
  -5.41717933412829       -5.16701308528242       -4.91693555852794     
  -4.66697215002818       -4.41714006224239       -4.16746826525664     
  -3.91798695308923       -3.66873536754412       -3.41975960553900     
  -3.17111612250893       -2.92287166152383       -2.67510231565724     
  -2.42788130306417       -2.18121071879515     
  0.000000000000000E+000  0.000000000000000E+000  3.609986502303647E-004
  1.409408917978581E-003  3.276684497301599E-003  5.533770475818148E-003
  9.411697042543243E-003  1.169120253077512E-002  1.936037328007445E-002
  1.916007592855686E-002  3.128903803187406E-002  3.628680597148750E-002
  4.372408926625997E-002  5.134550458386187E-002  5.915025094702402E-002
  6.732693809693270E-002  7.556742596361239E-002  8.395336908058493E-002
  9.229962120124310E-002  0.100579777870069       0.108680136866006     
  0.116533883924067       0.124049384412535       0.131147495296370     
  0.137742624585386       0.143750454762515       0.149080637679463     
  0.153632556187617       0.157281502008891       0.159823616576228     
  0.160837733593355       0.290581825739480       0.290581825739480     
  0.290932952468090       0.289623092694052       0.286368568886700     
  0.283517672711214       0.274499892505829       0.275539617603560     
  0.252938946105598       0.266559353404065       0.233472195434626     
  0.231371335188751       0.215674774855135       0.202145381595197     
  0.188690051962931       0.173633144250835       0.159040588153222     
  0.143788453089630       0.128745383350612       0.113640620696894     
  9.882569681125151E-002  8.431139762216193E-002  7.028684124873991E-002
  5.684208173920612E-002  4.411052125883692E-002  3.219889250649529E-002
  2.122958610321315E-002  1.133889899773958E-002  2.726519096416524E-003
 -4.208405836224576E-003 -8.322470880039385E-003   1.14543974346790     
   1.14543974346790        1.14556046153170        1.14556260679218     
   1.14543395238356        1.14560813546469        1.14481158900261     
   1.14625556433136        1.14269686703998        1.14753049895923     
   1.14200243073329        1.14477931633921        1.14310655758018     
   1.14283312549543        1.14223792899129        1.14159109473673     
   1.14089718968904        1.14014009541065        1.13934326246753     
   1.13849766024469        1.13761712656252        1.13670516634313     
   1.13577484472926        1.13483846144440        1.13391451355949     
   1.13302575907486        1.13220294030657        1.13148645861537     
   1.13092961231186        1.13060121858135        1.13057808977968     
   2.51489251828899        2.51489251828899        2.51493756229823     
   2.51494487329247        2.51491647894739        2.51500546805282     
   2.51476523766325        2.51533600062202        2.51410037122334     
   2.51594563543945        2.51404456204188        2.51518008500742     
   2.51470620421356        2.51473803694758        2.51469346430172     
   2.51463796951679        2.51458487407922        2.51452407028310     
   2.51446588236963        2.51440628985330        2.51434978347896     
   2.51429666691039        2.51424998888297        2.51421182489749     
   2.51418519092726        2.51417292252815        2.51417799845663     
   2.51420287618572        2.51424880692495        2.51431451660106     
   2.51438939647600        4.31935253268844        4.31935253268844     
   4.31937071746686        4.31937328530539        4.31936282292383     
   4.31939865799818        4.31930871795353        4.31953364603356     
   4.31905623122529        4.31977744703907        4.31905778795896     
   4.31950849263080        4.31934339759687        4.31936881727089     
   4.31937239509068        4.31937214298567        4.31937571262977     
   4.31937794980519        4.31938302230528        4.31938894960158     
   4.31939706672720        4.31940695359133        4.31941905516543     
   4.31943327966064        4.31944965331830        4.31946791421897     
   4.31948761639505        4.31950792334955        4.31952742155058     
   4.31954368511584        4.31955089650374        6.45395112957464     
   6.45395112957464        6.45395789839349        6.45395809828474     
   6.45395333603947        6.45396647675642        6.45393146360299     
   6.45401738593850        6.45383350003660        6.45410934858583     
   6.45383832548661        6.45401214994320        6.45395338930605     
   6.45396559758373        6.45397092036045        6.45397466577034     
   6.45398019230271        6.45398525268469        6.45399137918209     
   6.45399768107557        6.45400451347089        6.45401156532070     
   6.45401882827917        6.45402609743891        6.45403320822347     
   6.45403990513410        6.45404588655998        6.45405074743974     
   6.45405392839099        6.45405457197769        6.45405070871227     
   8.79463319744677        8.79463319744677        8.79463364004345     
   8.79463225542160        8.79462947431388        8.79463137131438     
   8.79462054128653        8.79464142538798        8.79459159411987     
   8.79466218015408        8.79459214663074        8.79463755676086     
   8.79462282908970        8.79462627373121        8.79462813924908     
   8.79462954642406        8.79463145939055        8.79463324131645     
   8.79463529495394        8.79463737110721        8.79463955170473     
   8.79464174472766        8.79464393838929        8.79464607275988     
   8.79464810127794        8.79464995828879        8.79465157106920     
   8.79465284639178        8.79465365896454        8.79465381724394     
   8.79465287127639        11.2053668025532        11.2053668025532     
   11.2053619900151        11.2053589455766        11.2053569291600     
   11.2053500850502        11.2053555464447        11.2053292655177     
   11.2053736531035        11.2052977541774        11.2053683516467     
   11.2053221060751        11.2053367724020        11.2053329467011     
   11.2053309600455        11.2053294052939        11.2053274827666     
   11.2053257602688        11.2053238883496        11.2053221067389     
   11.2053203574009        11.2053187395283        11.2053172811925     
   11.2053160541350        11.2053151191064        11.2053145546488     
   11.2053144470028        11.2053149030317        11.2053160638305     
   11.2053181443271        11.2053216571919        13.5460488704254     
   13.5460488704254        13.5460372725795        13.5460319947721     
   13.5460311323835        13.5460120791094        13.5460404897573     
   13.5459477539882        13.5461245845706        13.5458415198555     
   13.5461125695225        13.5459368728239        13.5459947133632     
   13.5459810648379        13.5459745794928        13.5459695433771     
   13.5459628373643        13.5459566086701        13.5459494114139     
   13.5459421297345        13.5459344588398        13.5459267378989     
   13.5459190240869        13.5459115696359        13.5459045972003     
   13.5458984247947        13.5458934243961        13.5458900778717     
   13.5458890310819        13.5458912480680        13.5458988930631     
   15.6806474673116        15.6806474673116        15.6806238282685     
   15.6806152710158        15.6806189161917        15.6805757510271     
   15.6806572046421        15.6804232844358        15.6808909848151     
   15.6801594271090        15.6808779808362        15.6804233553379     
   15.6805857204573        15.6805565422520        15.6805493862860     
   15.6805455493887        15.6805377416322        15.6805308978543     
   15.6805209582176        15.6805098387037        15.6804962501694     
   15.6804806178498        15.6804625547507        15.6804422234541     
   15.6804197202359        15.6803954809682        15.6803702051093     
   15.6803450827711        15.6803220200673        15.6803041428265     
   15.6802984433300        17.4851074817110        17.4851074817110     
   17.4850565463220        17.4850426177244        17.4850633607993     
   17.4849660718021        17.4851963902989        17.4846152547848     
   17.4858387034757        17.4839810449175        17.4858797828187     
   17.4847384980858        17.4852079834309        17.4851701098061     
   17.4852086647358        17.4852570903452        17.4853025404002     
   17.4853546820747        17.4854032503806        17.4854520041927     
   17.4854963456439        17.4855357345492        17.4855669218713     
   17.4855875676880        17.4855943922257        17.4855842677534     
   17.4855539241784        17.4855006090810        17.4854227735537     
   17.4853213361765        17.4852063966492        18.8545602565321     
   18.8545602565321        18.8544334899264        18.8544245728237     
   18.8545454001788        18.8543628906163        18.8551490989747     
   18.8536954906711        18.8572398804819        18.8523951905267     
   18.8579198922003        18.8551371665784        18.8568053585316     
   18.8570724451229        18.8576613726318        18.8583008402095     
   18.8589868299204        18.8597350079213        18.8605220544465     
   18.8613568065330        18.8622254757834        18.8631245757111     
   18.8640413195353        18.8649640218904        18.8658756235138     
   18.8667565220850        18.8675832273669        18.8683333158058     
   18.8690050258128        18.8697216643435        18.8716746328380     
   19.7094181742605        19.7094181742605        19.7090610478658     
   19.7103651820588        19.7136132692391        19.7164569942347     
   19.7254649905004        19.7244159265914        19.7469981405324     
   19.7333721795482        19.7664555649367        19.7685518359537     
   19.7842449210024        19.7977691269025        19.8112195102862     
   19.8262703848616        19.8408564201926        19.8561009275485     
   19.8711354108925        19.8862301716229        19.9010335965570     
   19.9155343852423        19.9295429780264        19.9429685012465     
   19.9556765922094        19.9675591850257        19.9784920880878     
   19.9883366111317        19.9968896321064        20.0037495995573     
   20.0077792204476        20.0000000000000        20.0000000000000     
   19.9996330240524        19.9985771253440        19.9967011025537     
   19.9944349442591        19.9905453362270        19.9882553056761     
   19.9805683441554        19.9807590629184        19.9686211982549     
   19.9636162626605        19.9561697419501        19.9485380797166     
   19.9407213505259        19.9325308802716        19.9242742783036     
   19.9158694269388        19.9075007448022        19.8991937768310     
   19.8910610142903        19.8831676592099        19.8756030820893     
   19.8684432287296        19.8617690058798        19.8556576816690     
   19.8501887206230        19.8454458982557        19.8415286032675     
   19.8386053095475        19.8370588967424     
 -6.536680706074363E-003 -6.536680706074363E-003 -6.036489121556948E-005
  6.989522916577912E-003  1.442815824448552E-002  2.173953048164105E-002
  2.934798149818438E-002  3.614435968217467E-002  4.361094425352913E-002
  5.006531298176841E-002  5.812632215489616E-002  6.231926367280920E-002
  6.785573091378314E-002  7.155663252334479E-002  7.518179791854424E-002
  7.773445995847149E-002  7.970189693690066E-002  8.079127444774885E-002
  8.114022828672023E-002  8.066862166254667E-002  7.943101433814605E-002
  7.741985545725047E-002  7.467457337014401E-002  7.122288310648829E-002
  6.711279924228433E-002  6.239657108863525E-002  5.714155463043500E-002
  5.143130596957092E-002  4.538000725641692E-002  3.916788630149221E-002
  3.319822023315225E-002 -6.536680706074363E-003 -6.536680706074363E-003
 -2.634009658899265E-002 -4.482767092831045E-002 -6.278646664518615E-002
 -7.922740942306920E-002 -9.556837971242822E-002 -0.110434872481962     
 -0.124412905990403      -0.133685885566603      -0.156835312374923     
 -0.164697354007626      -0.177194232404788      -0.185398468504518     
 -0.194439879926444      -0.201149417949351      -0.207336577490950     
 -0.211975506609556      -0.215721337724947      -0.218260750803616     
 -0.219881620053035      -0.220555555731954      -0.220471052882510     
 -0.219733907968934      -0.218538850279261      -0.217078072940404     
 -0.215599354001371      -0.214388153835312      -0.213808480663314     
 -0.214364749450238      -0.216955673396246      -6.536680706074363E-003
 -6.536680706074363E-003 -2.012824217413992E-002 -3.206027661780950E-002
 -4.333120911835631E-002 -5.336304078685195E-002 -6.397520615316460E-002
 -7.213781147941410E-002 -8.344042767312272E-002 -8.380619463766446E-002
 -0.107902027710233      -0.109577838627925      -0.122070232357214     
 -0.128966733737973      -0.138621119580047      -0.146822133041273     
 -0.155698951297733      -0.164205414640951      -0.172880802527726     
 -0.181470638379145      -0.190116149228245      -0.198758477544607     
 -0.207435488939528      -0.216131089450842      -0.224847107004178     
 -0.233561354715637      -0.242238597953547      -0.250808091778358     
 -0.259145616252754      -0.267024877140388      -0.273904007933017     