 Title = "Wing and Wake"
 VARIABLES = "X" "Y" "Z" "GAM"
 Zone I=    5 J=   14 K=1  T="Blade"
 DATAPACKING=BLOCK
 VARLOCATION=([4]=CELLCENTERED)
  -12.2461946980917       -11.9971460235688       -11.7480973490459     
  -11.4990486745229       -11.2500000000000       -12.2461946980917     
  -11.9971460235688       -11.7480973490459       -11.4990486745229     
  -11.2500000000000       -12.2461946980917       -11.9971460235688     
  -11.7480973490459       -11.4990486745229       -11.2500000000000     
  -12.2461946980917       -11.9971460235688       -11.7480973490459     
  -11.4990486745229       -11.2500000000000       -12.2461946980917     
  -11.9971460235688       -11.7480973490459       -11.4990486745229     
  -11.2500000000000       -12.2461946980917       -11.9971460235688     
  -11.7480973490459       -11.4990486745229       -11.2500000000000     
  -12.2461946980917       -11.9971460235688       -11.7480973490459     
  -11.4990486745229       -11.2500000000000       -12.2461946980917     
  -11.9971460235688       -11.7480973490459       -11.4990486745229     
  -11.2500000000000       -12.2461946980917       -11.9971460235688     
  -11.7480973490459       -11.4990486745229       -11.2500000000000     
  -12.2461946980917       -11.9971460235688       -11.7480973490459     
  -11.4990486745229       -11.2500000000000       -12.2461946980917     
  -11.9971460235688       -11.7480973490459       -11.4990486745229     
  -11.2500000000000       -12.2461946980917       -11.9971460235688     
  -11.7480973490459       -11.4990486745229       -11.2500000000000     
  -12.2461946980917       -11.9971460235688       -11.7480973490459     
  -11.4990486745229       -11.2500000000000       -12.2461946980917     
  -11.9971460235688       -11.7480973490459       -11.4990486745229     
  -11.2500000000000     
  0.000000000000000E+000  0.000000000000000E+000  0.000000000000000E+000
  0.000000000000000E+000  0.000000000000000E+000  0.290581825739480     
  0.290581825739480       0.290581825739480       0.290581825739480     
  0.290581825739480        1.14543974346790        1.14543974346790     
   1.14543974346790        1.14543974346790        1.14543974346790     
   2.51489251828899        2.51489251828899        2.51489251828899     
   2.51489251828899        2.51489251828899        4.31935253268844     
   4.31935253268844        4.31935253268844        4.31935253268844     
   4.31935253268844        6.45395112957464        6.45395112957464     
   6.45395112957464        6.45395112957464        6.45395112957464     
   8.79463319744677        8.79463319744677        8.79463319744677     
   8.79463319744677        8.79463319744677        11.2053668025532     
   11.2053668025532        11.2053668025532        11.2053668025532     
   11.2053668025532        13.5460488704254        13.5460488704254     
   13.5460488704254        13.5460488704254        13.5460488704254     
   15.6806474673116        15.6806474673116        15.6806474673116     
   15.6806474673116        15.6806474673116        17.4851074817110     
   17.4851074817110        17.4851074817110        17.4851074817110     
   17.4851074817110        18.8545602565321        18.8545602565321     
   18.8545602565321        18.8545602565321        18.8545602565321     
   19.7094181742605        19.7094181742605        19.7094181742605     
   19.7094181742605        19.7094181742605        20.0000000000000     
   20.0000000000000        20.0000000000000        20.0000000000000     
   20.0000000000000     
  8.715574274765817E-002  6.536680706074363E-002  4.357787137382908E-002
  2.178893568691454E-002  0.000000000000000E+000  8.715574274765817E-002
  6.536680706074363E-002  4.357787137382908E-002  2.178893568691454E-002
  0.000000000000000E+000  8.715574274765817E-002  6.536680706074363E-002
  4.357787137382908E-002  2.178893568691454E-002  0.000000000000000E+000
  8.715574274765817E-002  6.536680706074363E-002  4.357787137382908E-002
  2.178893568691454E-002  0.000000000000000E+000  8.715574274765817E-002
  6.536680706074363E-002  4.357787137382908E-002  2.178893568691454E-002
  0.000000000000000E+000  8.715574274765817E-002  6.536680706074363E-002
  4.357787137382908E-002  2.178893568691454E-002  0.000000000000000E+000
  8.715574274765817E-002  6.536680706074363E-002  4.357787137382908E-002
  2.178893568691454E-002  0.000000000000000E+000  8.715574274765817E-002
  6.536680706074363E-002  4.357787137382908E-002  2.178893568691454E-002
  0.000000000000000E+000  8.715574274765817E-002  6.536680706074363E-002
  4.357787137382908E-002  2.178893568691454E-002  0.000000000000000E+000
  8.715574274765817E-002  6.536680706074363E-002  4.357787137382908E-002
  2.178893568691454E-002  0.000000000000000E+000  8.715574274765817E-002
  6.536680706074363E-002  4.357787137382908E-002  2.178893568691454E-002
  0.000000000000000E+000  8.715574274765817E-002  6.536680706074363E-002
  4.357787137382908E-002  2.178893568691454E-002  0.000000000000000E+000
  8.715574274765817E-002  6.536680706074363E-002  4.357787137382908E-002
  2.178893568691454E-002  0.000000000000000E+000  8.715574274765817E-002
  6.536680706074363E-002  4.357787137382908E-002  2.178893568691454E-002
  0.000000000000000E+000
  0.753870085856436        1.01514128011995        1.15740666713263     
   1.23311534580667        1.08879773214846        1.53063334770878     
   1.78313426622498        1.91780944177283        1.26781116522034     
   1.80286576319323        2.11904861605692        2.29177197261666     
   1.35328971731884        1.92955648230516        2.27295189620404     
   2.46184825207472        1.39343145574693        1.98819404095548     
   2.34337572155377        2.53906669046180        1.41126646968566     
   2.01403730380449        2.37420003931311        2.57268503332328     
   1.41617904962830        2.02112423028376        2.38262096086137     
   2.58184454238697        1.41083241470192        2.01339445685591     
   2.37342154935113        2.57183444454876        1.39295068016002     
   1.98746489902820        2.34247300674765        2.53806058507730     
   1.35327164259642        1.92948129868829        2.27280588836994     
   2.46163426875269        1.26845351368718        1.80373738492839     
   2.12001652145785        2.29274552982356        1.08982325028752     
   1.53204288224238        1.78473111227162        1.91945884209427     
  0.754725654826351        1.01626425570307        1.15865911350421     
   1.23441229919841     
 Zone I=   31 J=   14 K=1  T="NearWake"
 DATAPACKING=BLOCK
 VARLOCATION=([4]=CELLCENTERED)
  -11.1752853976431       -10.9252853976431       -10.6749737655014     
  -10.4244339155091       -10.1738276083187       -9.92320371076046     
  -9.67260026821353       -9.42197774632885       -9.17144674952912     
  -8.92080381492337       -8.67044074109472       -8.41967109371195     
  -8.16970944742360       -7.91856763596776       -7.66911802041679     
  -7.41795674021861       -7.16470347731365       -6.91653159899443     
  -6.66560669414893       -6.41546100423760       -6.16518318197896     
  -5.91493337167164       -5.66481648046373       -5.41475066024632     
  -5.16481517758946       -4.91498888068878       -4.66531661571564     
  -4.41581106794970       -4.16650987657159       -3.91743942399424     
  -3.66860923125560       -11.1752853976431       -10.9252853976431     
  -10.6755037175381       -10.4253633212352       -10.1750702627072     
  -9.92469608108253       -9.67427961877626       -9.42382953423231     
  -9.17335674379109       -8.92292179444566       -8.67229929512190     
  -8.42217576553614       -8.17097093936668       -7.92159866312159     
  -7.66948427129701       -7.42015844898154       -7.16795875484778     
  -6.91877938661007       -6.66828319284204       -6.41783023353877     
  -6.16750353158579       -5.91708398482143       -5.66674782657469     
  -5.41640206267246       -5.16611433235963       -4.91585564535756     
  -4.66565289779519       -4.41550669217920       -4.16543712275759     
  -3.91546596389204       -3.66564194371046       -11.1752853976431     
  -10.9252853976431       -10.6759413311698       -10.4264522321534     
  -10.1768626047554       -9.92719835753913       -9.67748015414920     
  -9.42771578978564       -9.17792122043318       -8.92809439998176     
  -8.67824669403377       -8.42838702823797       -8.17847661906826     
  -7.92864236499788       -7.67862683961065       -7.42860927925345     
  -7.17922881799405       -6.92913015306339       -6.67925703483399     
  -6.42930105123879       -6.17940231001646       -5.92950464839044     
  -5.67962920914958       -5.42977111219763       -5.17993397559288     
  -4.93011962903080       -4.68032954413352       -4.43056489880459     
  -4.18082519015251       -3.93110798945196       -3.68140696879259     
  -11.1752853976431       -10.9252853976431       -10.6759561361895     
  -10.4264787101997       -10.1769018505834       -9.92725353056177     
  -9.67755546155306       -9.42781492241776       -9.17804840944432     
  -8.92825234777525       -8.67844018280617       -8.42861697656515     
  -8.17875289966938       -7.92894765393715       -7.67899370104631     
  -7.42902321466607       -7.17965538831059       -6.92962330316664     
  -6.67979598201460       -6.42991018236507       -6.18003961799255     
  -5.93017509539526       -5.68031087439764       -5.43045466306910     
  -5.18060047057231       -4.93075144399152       -4.68090424768843     
  -4.43105816986988       -4.18120931150553       -3.93135266777760     
  -3.68147841979084       -11.1752853976431       -10.9252853976431     
  -10.6759585239155       -10.4264751904446       -10.1768881484646     
  -9.92722765457220       -9.67751658710578       -9.42776330838121     
  -9.17798364446853       -8.92817647941516       -8.67834961402500     
  -8.42851954677906       -8.17863121107094       -7.92883246734059     
  -7.67882113519931       -7.42891859497905       -7.17945354087994     
  -6.92944345381004       -6.67957524799400       -6.42968454474581     
  -6.17978478964856       -5.92989923994674       -5.68000330558534     
  -5.43011391631334       -5.18021955970761       -4.93032572984424     
  -4.68042743689857       -4.43052446779013       -4.18061238585672     
  -3.93068613934655       -3.68073536091527       -11.1752853976431     
  -10.9252853976431       -10.6759607210936       -10.4264748608635     
  -10.1768825284362       -9.92721513461057       -9.67749596993758     
  -9.42773433854682       -9.17794494482404       -8.92812971477684     
  -8.67829019898391       -8.42845559324573       -8.17854527019555     
  -7.92875624673766       -7.67869066993615       -7.42885252960952     
  -7.17930357855629       -6.92931556725527       -6.67941764627393     
  -6.42952328978878       -6.17960502673409       -5.92970763271771     
  -5.67979521262555       -5.42989052604297       -5.17997910599995     
  -4.93006805184341       -4.68015172257215       -4.43023044434533     
  -4.18029977054157       -3.93035492861160       -3.68038564169060     
  -11.1752853976431       -10.9252853976431       -10.6759619195187     
  -10.4264752984456       -10.1768810181923       -9.92721095094537     
  -9.67748849103661       -9.42772341996722       -9.17792974210108     
  -8.92811111035076       -8.67826554578423       -8.42842933425689     
  -8.17850776267113       -7.92872487832193       -7.67862982296153     
  -7.42882724507367       -7.17923407956101       -6.92925870542022     
  -6.67934713137932       -6.42945190897951       -6.17952604065241     
  -5.92962436203320       -5.67970594629882       -5.42979616415683     
  -5.17987931785688       -4.92996320652857       -4.68004193762458     
  -4.43011605713001       -4.18018110448967       -3.93023239032044     
  -3.68025963308078       -11.1752853976431       -10.9252853976431     
  -10.6759618404775       -10.4264752348021       -10.1768810146403     
  -9.92721102497232       -9.67748864723269       -9.42772362908424     
  -9.17792999313787       -8.92811129855571       -8.67826568465789     
  -8.42842917321672       -8.17850740255508       -7.92872393159149     
  -7.67862818679595       -7.42882437092345       -7.17923095954240     
  -6.92925500357334       -6.67934288775308       -6.42944705631775     
  -6.17952053373171       -5.92961814000653       -5.67969894618453     
  -5.42978831728124       -5.17987055189247       -4.92995344569353     
  -4.68003110362853       -4.43010406989697       -4.18016788274725     
  -3.93021785090929       -3.68024368287972       -11.1752853976431     
  -10.9252853976431       -10.6759605743387       -10.4264747797082     
  -10.1768826240166       -9.92721545975562       -9.67749654911681     
  -9.42773511826953       -9.17794591281130       -8.92813063643455     
  -8.67829111576465       -8.42845591102676       -8.17854523694034     
  -7.92875490202727       -7.67868776852336       -7.42884658534885     
  -7.17929711594507       -6.92930772117731       -6.67940848435748     
  -6.42951262128596       -6.17959269852991       -5.92969344089181     
  -5.67977892878657       -5.42987188540980       -5.17995780745598     
  -4.93004375367741       -4.68012404001618       -4.43019894660076     
  -4.18026397750744       -3.93031430222981       -3.68033954156684     
  -11.1752853976431       -10.9252853976431       -10.6759584746769     
  -10.4264752337851       -10.1768883854785       -9.92722815216135     
  -9.67751739465533       -9.42776441260697       -9.17798506817908     
  -8.92817804752104       -8.67835139943541       -8.42852102415628     
  -8.17863267237167       -7.92883294529612       -7.67882049881327     
  -7.42891510135204       -7.17944987055317       -6.92943873068520     
  -6.67956956636412       -6.42967779901829       -6.17977690436387     
  -5.92989009742237       -5.67999275749936       -5.43010175688009     
  -5.18020550185308       -4.93030936327780       -4.68040817382172     
  -4.43050146642663       -4.18058444870420       -3.93065156343101     
  -3.68069161370243       -11.1752853976431       -10.9252853976431     
  -10.6759562809948       -10.4264788851510       -10.1769020419369     
  -9.92725375571763       -9.67755575100428       -9.42781531020097     
  -9.17804893299447       -8.92825301490373       -8.67844104366432     
  -8.42861792293521       -8.17875411073115       -7.92894867813530     
  -7.67899469603338       -7.42902325193349       -7.17965528907244     
  -6.92962272662402       -6.67979488697779       -6.42990869106456     
  -6.18003790042880       -5.93017345904798       -5.68030982444629     
  -5.43045498591478       -5.18060336346009       -4.93075867058275     
  -4.68091833799573       -4.43108260439869       -4.18124858614693     
  -3.93141192439962       -3.68156173611018       -11.1752853976431     
  -10.9252853976431       -10.6759416512868       -10.4264524569010     
  -10.1768625562328       -9.92719796746645       -9.67747941013463     
  -9.42771475935462       -9.17791993610749       -8.92809304604383     
  -8.67824526213627       -8.42838581726408       -8.17847566889578     
  -7.92864168622330       -7.67862683023078       -7.42861048792682     
  -7.17922891770203       -6.92912917160508       -6.67925415211665     
  -6.42929588972852       -6.17939422509331       -5.92949292142641     
  -5.67961296308156       -5.42974930809968       -5.17990543726082     
  -4.93008313576286       -4.68028413595414       -4.43051064084878     
  -4.18076536951113       -3.93105748420735       -3.68145675169424     
  -11.1752853976431       -10.9252853976431       -10.6755031169216     
  -10.4253607987581       -10.1750656330458       -9.92468954214214     
  -9.67427148849087       -9.42382025031639       -9.17334660333720     
  -8.92291135127301       -8.67228882248759       -8.42216540515218     
  -8.17096190309036       -7.92158889324550       -7.66947888419179     
  -7.42015825324184       -7.16795875313094       -6.91877794234088     
  -6.66828076310025       -6.41782605614018       -6.16749735325130     
  -5.91707554841466       -5.66673671476374       -5.41638793447366     
  -5.16609673873434       -4.91583418259325       -4.66562712315246     
  -4.41547622795542       -4.16540154375385       -3.91542407088754     
  -3.66558658031223       -11.1752853976431       -10.9252853976431     
  -10.6749742774516       -10.4244352438410       -10.1738301278026     
  -9.92320778799722       -9.67260625512527       -9.42198591498244     
  -9.17145738535002       -8.92081696581480       -8.67045660532579     
  -8.41968942312161       -8.16972958403159       -7.91859047891469     
  -7.66913784510664       -7.41797593910124       -7.16472238332521     
  -6.91655066600882       -6.66562547966654       -6.41547926183130     
  -6.16520028106688       -5.91494850917604       -5.66482831324923     
  -5.41475725537548       -5.16481356555985       -4.91497460790160     
  -4.66528292775490       -4.41574781807245       -4.16640204122543     
  -3.91726603865391       -3.66834549851609     
  0.000000000000000E+000  0.000000000000000E+000  3.736210154635692E-004
  1.457850581406490E-003  3.302291823622134E-003  5.892270266689635E-003
  9.241361994700308E-003  1.321405492247135E-002  1.802993041820326E-002
  2.298950801244237E-002  2.949453812401789E-002  3.446548409394895E-002
  4.347021487533024E-002  4.662172355056644E-002  6.051171698522304E-002
  5.916609854661309E-002  7.647775584947440E-002  8.333404270389688E-002
  9.252038701019955E-002  0.101807634700121       0.110598382486707     
  0.119529427974021       0.128059920275311       0.136399207262185     
  0.144309785489371       0.151812592440217       0.158798489547656     
  0.165218821799852       0.170974051510054       0.175914663803826     
  0.179631153785787       0.290581825739480       0.290581825739480     
  0.290943961425528       0.289532415339928       0.286652328625164     
  0.282380133330201       0.276585294609671       0.269922481804682     
  0.261002893471822       0.253383145321609       0.239761645188909     
  0.235168225773398       0.210803692798079       0.220429276084238     
  0.171588379823659       0.204404010111072       0.149672626183233     
  0.149940798128063       0.129911888873898       0.113129550252810     
  9.838142296632657E-002  8.170297472001189E-002  6.678138730556339E-002
  5.155949065573049E-002  3.735222492564766E-002  2.362076196086937E-002
  1.079649601015498E-002 -1.187544443586992E-003 -1.210324255513748E-002
 -2.171242601834446E-002 -2.914921479335880E-002   1.14543974346790     
   1.14543974346790        1.14556627015285        1.14555027150212     
   1.14550603580074        1.14542764947564        1.14528253952433     
   1.14513904105890        1.14482651299725        1.14473001675731     
   1.14399134059686        1.14445940904251        1.14221932195675     
   1.14542682361143        1.13784498251447        1.14748377687895     
   1.13658324338899        1.14210228828097        1.13875076241116     
   1.13850296596455        1.13743582032425        1.13646932840207     
   1.13539810500632        1.13431138274770        1.13319694953257     
   1.13207569474531        1.13096536571938        1.12989336103426     
   1.12889779997019        1.12802814619375        1.12734224379934     
   2.51489251828899        2.51489251828899        2.51494145910627     
   2.51494366337724        2.51494602091033        2.51494736439664     
   2.51493724674508        2.51493886391397        2.51489530051260     
   2.51493640843746        2.51477152658299        2.51503747631572     
   2.51436614122225        2.51568117444883        2.51297559684900     
   2.51679107855271        2.51292529830478        2.51523622130607     
   2.51423378803385        2.51436664173765        2.51426118783244     
   2.51419171661411        2.51410565531645        2.51402402825920     
   2.51394514146686        2.51387115777750        2.51380389764454     
   2.51374473118836        2.51369513208049        2.51365518569522     
   2.51362136372287        4.31935253268844        4.31935253268844     
   4.31937311234593        4.31937414721952        4.31937591058010     
   4.31937814182456        4.31937697406724        4.31938135597561     
   4.31936987469793        4.31939182366348        4.31933723172279     
   4.31944817377470        4.31920224530828        4.31972376947905     
   4.31867503559658        4.32018176653058        4.31870294351532     
   4.31962191571741        4.31926304794332        4.31933191437454     
   4.31932124625688        4.31932200955283        4.31931952984631     
   4.31931868120270        4.31931960578981        4.31932198417249     
   4.31932607017147        4.31933152859999        4.31933812307086     
   4.31934495816883        4.31934959900988        6.45395112957464     
   6.45395112957464        6.45395924756419        6.45395909661890     
   6.45395928771532        6.45395972730729        6.45395892662371     
   6.45396033899988        6.45395582094134        6.45396418980843     
   6.45394360352589        6.45398627105483        6.45389292178765     
   6.45409360666689        6.45368995176303        6.45426988248611     
   6.45370891629787        6.45406258607091        6.45393203715693     
   6.45396077521649        6.45396176233403        6.45396633710833     
   6.45397011585319        6.45397426636126        6.45397897352928     
   6.45398388474109        6.45398899720049        6.45399402720621     
   6.45399874552612        6.45400267631280        6.45400478847247     
   8.79463319744677        8.79463319744677        8.79463433464345     
   8.79463320066852        8.79463210515681        8.79463102069178     
   8.79462954751415        8.79462858993383        8.79462601521383     
   8.79462674062276        8.79461985437359        8.79462939594178     
   8.79460342484921        8.79465416482187        8.79454695441902     
   8.79469664210374        8.79455150447951        8.79464346217085     
   8.79461039164399        8.79461795404453        8.79461880498423     
   8.79462040763943        8.79462192367012        8.79462350043488     
   8.79462524706462        8.79462703150292        8.79462886128735     
   8.79463065140827        8.79463234515783        8.79463382521527     
   8.79463485706752        11.2053668025532        11.2053668025532     
   11.2053622967636        11.2053601221378        11.2053577039273     
   11.2053550625068        11.2053525707790        11.2053493084245     
   11.2053473947774        11.2053418651849        11.2053437169384     
   11.2053286592982        11.2053492435311        11.2052919547939     
   11.2053947347498        11.2052365858409        11.2053847504704     
   11.2052901641457        11.2053235410301        11.2053148678688     
   11.2053137798552        11.2053116530402        11.2053099590024     
   11.2053082548884        11.2053066214182        11.2053051326520     
   11.2053038561083        11.2053028891542        11.2053023431535     
   11.2053023893700        11.2053033917829        13.5460488704254     
   13.5460488704254        13.5460372972491        13.5460338636469     
   13.5460298453981        13.5460253057353        13.5460216792487     
   13.5460154834438        13.5460148133992        13.5460007889092     
   13.5460153070410        13.5459658324939        13.5460523737333     
   13.5458430940820        13.5462408020785        13.5456488966876     
   13.5462130849770        13.5458546275051        13.5459843980979     
   13.5459526505805        13.5459497917317        13.5459427217038     
   13.5459368008449        13.5459303894590        13.5459236141412     
   13.5459167389922        13.5459099114256        13.5459034619275     
   13.5458977539907        13.5458934104942        13.5458917614237     
   15.6806474673116        15.6806474673116        15.6806233148433     
   15.6806183240483        15.6806123250278        15.6806055097781     
   15.6806016574580        15.6805917709436        15.6805971586305     
   15.6805684338880        15.6806155695375        15.6804960319057     
   15.6807331394679        15.6802000481816        15.6812404990795     
   15.6797161288092        15.6811988759048        15.6802710792833     
   15.6806274782019        15.6805519606554        15.6805576616017     
   15.6805503100404        15.6805463685093        15.6805399144723     
   15.6805313343260        15.6805206139440        15.6805076754018     
   15.6804927949266        15.6804763701221        15.6804595073008     
   15.6804452592915        17.4851074817110        17.4851074817110     
   17.4850548102606        17.4850483607274        17.4850414959287     
   17.4850352805863        17.4850400386480        17.4850325200305     
   17.4850695304268        17.4850210968219        17.4851778240731     
   17.4849024036028        17.4855637188728        17.4842360594188     
   17.4869309382777        17.4830953894620        17.4869665103204     
   17.4846437213626        17.4856441853721        17.4855029090598     
   17.4856032440510        17.4856652825447        17.4857450402623     
   17.4858197187959        17.4858924021302        17.4859606315028     
   17.4860235321551        17.4860801961962        17.4861301227442     
   17.4861738199903        17.4862147711571        18.8545602565321     
   18.8545602565321        18.8544297535975        18.8544413487368     
   18.8544810644163        18.8545546959053        18.8546946959858     
   18.8548326555891        18.8551390731203        18.8552287635168     
   18.8559598312460        18.8554831754268        18.8577133489604     
   18.8544966182835        18.8620633262438        18.8524106703130     
   18.8633156309867        18.8577881020350        18.8611407906745     
   18.8613843670124        18.8624524566901        18.8634197527990     
   18.8644966499667        18.8655938696193        18.8667286870765     
   18.8678860377525        18.8690616916987        18.8702560049340     
   18.8715032711680        18.8730014123340        18.8762299658207     
   19.7094181742605        19.7094181742605        19.7090518730706     
   19.7104614266173        19.7133413297816        19.7176140915350     
   19.7234093252729        19.7300713246253        19.7389887551463     
   19.7466031370380        19.7602181920757        19.7648004899316     
   19.7891512273438        19.7795192340441        19.8283244017331     
   19.7955200732425        19.8502413634229        19.8499739482425     
   19.8700008479721        19.8867781093414        19.9015243714166     
   19.9181963098532        19.9331122803555        19.9483243514128     
   19.9625203867159        19.9762347660920        19.9890358774825     
   20.0009848477956        20.0118488493822        20.0213828331303     
   20.0287261430749        20.0000000000000        20.0000000000000     
   19.9996221912117        19.9985313237142        19.9966793926748     
   19.9940810650998        19.9907226859143        19.9867399863987     
   19.9819130214378        19.9769416850943        19.9704229566917     
   19.9654370896241        19.9564154153899        19.9532427556164     
   19.9393236521046        19.9406495006866        19.9233135949844     
   19.9164330025142        19.9072165649653        19.8978944491840     
   19.8890611004223        19.8800785245097        19.8714846876616     
   19.8630664475751        19.8550557715736        19.8474235485127     
   19.8402654485140        19.8336094617089        19.8275231206960     
   19.8221106265248        19.8177277701206     
 -6.536680706074363E-003 -6.536680706074363E-003  9.012681551815067E-005
  7.372967167407517E-003  1.498262808742841E-002  2.269955784623291E-002
  3.037473978776476E-002  3.786641555739803E-002  4.508951444081651E-002
  5.198936460991843E-002  5.827763388252262E-002  6.476765422478868E-002
  6.856079988112361E-002  7.716965062796577E-002  7.546147790503147E-002
  8.786177290138926E-002  8.511509559370677E-002  8.851093623684837E-002
  8.999883530924867E-002  8.973034767024994E-002  8.947817718308608E-002
  8.800562633744197E-002  8.603517862997462E-002  8.318242639229609E-002
  7.971297219780595E-002  7.553906165368048E-002  7.078814547231631E-002
  6.548184438862588E-002  5.973483801124517E-002  5.370554735796835E-002
  4.785096877293581E-002 -6.536680706074363E-003 -6.536680706074363E-003
 -2.633473047618547E-002 -4.500086406052027E-002 -6.277694851611304E-002
 -7.970838271316910E-002 -9.584499767218531E-002 -0.111027421520010     
 -0.125402441845151      -0.138929244681687      -0.150218797432284     
 -0.164597260598121      -0.167686814739745      -0.189688121294667     
 -0.176683879200127      -0.203768958317594      -0.197091043958478     
 -0.210137076140437      -0.211079615936738      -0.212356044074304     
 -0.214203332895731      -0.213036537932678      -0.211875646990209     
 -0.208964495260286      -0.205582312141043      -0.201159298825019     
 -0.196261666805362      -0.190838361972274      -0.185272747681969     
 -0.179893382397936      -0.175693239118439      -6.536680706074363E-003
 -6.536680706074363E-003 -2.007886585283700E-002 -3.207768549162553E-002
 -4.313759748292424E-002 -5.354389851740386E-002 -6.349454291987307E-002
 -7.304337475464794E-002 -8.235443280419530E-002 -9.129905342568173E-002
 -0.100184661304120      -0.108597141178424      -0.116986835250824     
 -0.125106328648365      -0.132493996724581      -0.132536812649625     
 -0.154775539557235      -0.157046604016861      -0.168447795415268     
 -0.174837200495596      -0.183863024813248      -0.191446551236504     
 -0.199675217941009      -0.207507450996509      -0.215446596867318     
 -0.223207538262628      -0.230874585908174      -0.238310511889097     
 -0.245432379637155      -0.252046215956732      -0.257859389028676     