 Title = "Wing and Wake"
 VARIABLES = "X" "Y" "Z" "GAM"
 Zone I=    5 J=   14 K=1  T="Blade"
 DATAPACKING=BLOCK
 VARLOCATION=([4]=CELLCENTERED)
  -3.24619469809175       -2.99714602356881       -2.74809734904587     
  -2.49904867452294       -2.25000000000000       -3.24619469809175     
  -2.99714602356881       -2.74809734904587       -2.49904867452294     
  -2.25000000000000       -3.24619469809175       -2.99714602356881     
  -2.74809734904587       -2.49904867452294       -2.25000000000000     
  -3.24619469809175       -2.99714602356881       -2.74809734904587     
  -2.49904867452294       -2.25000000000000       -3.24619469809175     
  -2.99714602356881       -2.74809734904587       -2.49904867452294     
  -2.25000000000000       -3.24619469809175       -2.99714602356881     
  -2.74809734904587       -2.49904867452294       -2.25000000000000     
  -3.24619469809175       -2.99714602356881       -2.74809734904587     
  -2.49904867452294       -2.25000000000000       -3.24619469809175     
  -2.99714602356881       -2.74809734904587       -2.49904867452294     
  -2.25000000000000       -3.24619469809175       -2.99714602356881     
  -2.74809734904587       -2.49904867452294       -2.25000000000000     
  -3.24619469809175       -2.99714602356881       -2.74809734904587     
  -2.49904867452294       -2.25000000000000       -3.24619469809175     
  -2.99714602356881       -2.74809734904587       -2.49904867452294     
  -2.25000000000000       -3.24619469809175       -2.99714602356881     
  -2.74809734904587       -2.49904867452294       -2.25000000000000     
  -3.24619469809175       -2.99714602356881       -2.74809734904587     
  -2.49904867452294       -2.25000000000000       -3.24619469809175     
  -2.99714602356881       -2.74809734904587       -2.49904867452294     
  -2.25000000000000     
  0.000000000000000E+000  0.000000000000000E+000  0.000000000000000E+000
  0.000000000000000E+000  0.000000000000000E+000  0.290581825739480     
  0.290581825739480       0.290581825739480       0.290581825739480     
  0.290581825739480        1.14543974346790        1.14543974346790     
   1.14543974346790        1.14543974346790        1.14543974346790     
   2.51489251828899        2.51489251828899        2.51489251828899     
   2.51489251828899        2.51489251828899        4.31935253268844     
   4.31935253268844        4.31935253268844        4.31935253268844     
   4.31935253268844        6.45395112957464        6.45395112957464     
   6.45395112957464        6.45395112957464        6.45395112957464     
   8.79463319744677        8.79463319744677        8.79463319744677     
   8.79463319744677        8.79463319744677        11.2053668025532     
   11.2053668025532        11.2053668025532        11.2053668025532     
   11.2053668025532        13.5460488704254        13.5460488704254     
   13.5460488704254        13.5460488704254        13.5460488704254     
   15.6806474673116        15.6806474673116        15.6806474673116     
   15.6806474673116        15.6806474673116        17.4851074817110     
   17.4851074817110        17.4851074817110        17.4851074817110     
   17.4851074817110        18.8545602565321        18.8545602565321     
   18.8545602565321        18.8545602565321        18.8545602565321     
   19.7094181742605        19.7094181742605        19.7094181742605     
   19.7094181742605        19.7094181742605        20.0000000000000     
   20.0000000000000        20.0000000000000        20.0000000000000     
   20.0000000000000     
  8.715574274765817E-002  6.536680706074363E-002  4.357787137382908E-002
  2.178893568691454E-002  0.000000000000000E+000  8.715574274765817E-002
  6.536680706074363E-002  4.357787137382908E-002  2.178893568691454E-002
  0.000000000000000E+000  8.715574274765817E-002  6.536680706074363E-002
  4.357787137382908E-002  2.178893568691454E-002  0.000000000000000E+000
  8.715574274765817E-002  6.536680706074363E-002  4.357787137382908E-002
  2.178893568691454E-002  0.000000000000000E+000  8.715574274765817E-002
  6.536680706074363E-002  4.357787137382908E-002  2.178893568691454E-002
  0.000000000000000E+000  8.715574274765817E-002  6.536680706074363E-002
  4.357787137382908E-002  2.178893568691454E-002  0.000000000000000E+000
  8.715574274765817E-002  6.536680706074363E-002  4.357787137382908E-002
  2.178893568691454E-002  0.000000000000000E+000  8.715574274765817E-002
  6.536680706074363E-002  4.357787137382908E-002  2.178893568691454E-002
  0.000000000000000E+000  8.715574274765817E-002  6.536680706074363E-002
  4.357787137382908E-002  2.178893568691454E-002  0.000000000000000E+000
  8.715574274765817E-002  6.536680706074363E-002  4.357787137382908E-002
  2.178893568691454E-002  0.000000000000000E+000  8.715574274765817E-002
  6.536680706074363E-002  4.357787137382908E-002  2.178893568691454E-002
  0.000000000000000E+000  8.715574274765817E-002  6.536680706074363E-002
  4.357787137382908E-002  2.178893568691454E-002  0.000000000000000E+000
  8.715574274765817E-002  6.536680706074363E-002  4.357787137382908E-002
  2.178893568691454E-002  0.000000000000000E+000  8.715574274765817E-002
  6.536680706074363E-002  4.357787137382908E-002  2.178893568691454E-002
  0.000000000000000E+000
  0.667864626092757       0.889060740627124        1.00097672759406     
   1.05129973883409       0.950442259265952        1.32157301518021     
   1.51983068118846        1.60954396139755        1.07764941819998     
   1.51350132124388        1.75267607078604        1.86145722279845     
   1.12100076985762        1.57644004087187        1.82673785642232     
   1.93942615290331        1.13428444236885        1.59522959849225     
   1.84833407915910        1.96166712793758        1.13843642142043     
   1.60102508837009        1.85491846841154        1.96837959004969     
   1.13941998600349        1.60239114254213        1.85646405455057     
   1.96995008087233        1.13843642142043        1.60102508837009     
   1.85491846841154        1.96837959004969        1.13428444236885     
   1.59522959849225        1.84833407915910        1.96166712793758     
   1.12100076985762        1.57644004087187        1.82673785642232     
   1.93942615290331        1.07764941819998        1.51350132124388     
   1.75267607078604        1.86145722279845       0.950442259265953     
   1.32157301518021        1.51983068118846        1.60954396139755     
  0.667864626092757       0.889060740627124        1.00097672759405     
   1.05129973883409     
 Zone I=   10 J=   14 K=1  T="NearWake"
 DATAPACKING=BLOCK
 VARLOCATION=([4]=CELLCENTERED)
  -2.17528539764312       -1.92528539764312       -1.67499514798937     
  -1.42479614422192       -1.17480097702175      -0.925035938242700     
 -0.675642948285917      -0.426566933026263      -0.176253986565282     
  7.020782077766040E-002  -2.17528539764312       -1.92528539764312     
  -1.67606723132907       -1.42604688896428       -1.17648454292555     
 -0.926555252862965      -0.676515502781924      -0.424573281894570     
 -0.162173317382911       6.976155936354744E-002  -2.17528539764312     
  -1.92528539764312       -1.67650889317101       -1.42674118017558     
  -1.17738126868656      -0.927360406821125      -0.676896289707131     
 -0.423776778815918      -0.156878213137929       6.462403696604761E-002
  -2.17528539764312       -1.92528539764312       -1.67646513803591     
  -1.42660561077649       -1.17716045347080      -0.926982890934156     
 -0.676327747909862      -0.422856021869546      -0.154902232657823     
  6.346042150162287E-002  -2.17528539764312       -1.92528539764312     
  -1.67644874906034       -1.42655502725593       -1.17708768378964     
 -0.926871913135631      -0.676179648031608      -0.422643476824650     
 -0.154499776393255       6.318620394625608E-002  -2.17528539764312     
  -1.92528539764312       -1.67644446480371       -1.42654013252172     
  -1.17706616134823      -0.926839249897243      -0.676136460856814     
 -0.422583660926271      -0.154394614389376       6.312988925389099E-002
  -2.17528539764312       -1.92528539764312       -1.67644330222408     
  -1.42653583400790       -1.17705981652640      -0.926829576675008     
 -0.676123584629601      -0.422565936573127      -0.154364124441970     
  6.311656285204545E-002  -2.17528539764312       -1.92528539764312     
  -1.67644330222408       -1.42653583400790       -1.17705981652640     
 -0.926829576675008      -0.676123584629601      -0.422565936573127     
 -0.154364124441970       6.311656285204548E-002  -2.17528539764312     
  -1.92528539764312       -1.67644446480371       -1.42654013252172     
  -1.17706616134823      -0.926839249897243      -0.676136460856814     
 -0.422583660926271      -0.154394614389376       6.312988925389097E-002
  -2.17528539764312       -1.92528539764312       -1.67644874906034     
  -1.42655502725593       -1.17708768378964      -0.926871913135631     
 -0.676179648031608      -0.422643476824650      -0.154499776393255     
  6.318620394625606E-002  -2.17528539764312       -1.92528539764312     
  -1.67646513803591       -1.42660561077649       -1.17716045347080     
 -0.926982890934156      -0.676327747909862      -0.422856021869546     
 -0.154902232657823       6.346042150162287E-002  -2.17528539764312     
  -1.92528539764312       -1.67650889317101       -1.42674118017558     
  -1.17738126868656      -0.927360406821125      -0.676896289707131     
 -0.423776778815918      -0.156878213137929       6.462403696604756E-002
  -2.17528539764312       -1.92528539764312       -1.67606723132907     
  -1.42604688896428       -1.17648454292555      -0.926555252862965     
 -0.676515502781924      -0.424573281894570      -0.162173317382912     
  6.976155936354732E-002  -2.17528539764312       -1.92528539764312     
  -1.67499514798937       -1.42479614422192       -1.17480097702175     
 -0.925035938242700      -0.675642948285917      -0.426566933026263     
 -0.176253986565282       7.020782077766048E-002
  0.000000000000000E+000  0.000000000000000E+000  4.536867812180406E-004
  1.378902828343930E-003  2.447718180209017E-003  3.624577247291231E-003
  4.648039194498112E-003  5.537214343913852E-003  3.974043537577367E-003
  5.653537778449610E-003  0.290581825739480       0.290581825739480     
  0.291083750832425       0.288517090986298       0.286996961603945     
  0.284111176002474       0.282147125311118       0.281426303625782     
  0.282265300482252       0.293926015337130        1.14543974346790     
   1.14543974346790        1.14565912040142        1.14550695133764     
   1.14568866458001        1.14569930581548        1.14585909604767     
   1.14610747302962        1.14611650347767        1.14674832144960     
   2.51489251828899        2.51489251828899        2.51496447835600     
   2.51493715230456        2.51499678777945        2.51500952482381     
   2.51504983557140        2.51510049329119        2.51509245868755     
   2.51522189531449        4.31935253268844        4.31935253268844     
   4.31937363403754        4.31936669357222        4.31938213926727     
   4.31938490141172        4.31939394234066        4.31940465461643     
   4.31940042743900        4.31943644417850        6.45395112957464     
   6.45395112957464        6.45395740687804        6.45395525717277     
   6.45395954601749        6.45396012266370        6.45396247076017     
   6.45396530569385        6.45396375583833        6.45397594280071     
   8.79463319744677        8.79463319744677        8.79463463705468     
   8.79463411745983        8.79463507907135        8.79463518542865     
   8.79463570301146        8.79463634393073        8.79463595907296     
   8.79463900665129        11.2053668025532        11.2053668025532     
   11.2053653629453        11.2053658825402        11.2053649209286     
   11.2053648145713        11.2053642969885        11.2053636560693     
   11.2053640409270        11.2053609933487        13.5460488704254     
   13.5460488704254        13.5460425931220        13.5460447428272     
   13.5460404539825        13.5460398773363        13.5460375292398     
   13.5460346943062        13.5460362441617        13.5460240571993     
   15.6806474673116        15.6806474673116        15.6806263659625     
   15.6806333064278        15.6806178607327        15.6806150985883     
   15.6806060576593        15.6805953453836        15.6805995725610     
   15.6805635558215        17.4851074817110        17.4851074817110     
   17.4850355216440        17.4850628476954        17.4850032122206     
   17.4849904751762        17.4849501644286        17.4848995067088     
   17.4849075413124        17.4847781046855        18.8545602565321     
   18.8545602565321        18.8543408795986        18.8544930486624     
   18.8543113354200        18.8543006941845        18.8541409039523     
   18.8538925269704        18.8538834965223        18.8532516785504     
   19.7094181742605        19.7094181742605        19.7089162491676     
   19.7114829090137        19.7130030383961        19.7158888239975     
   19.7178528746889        19.7185736963742        19.7177346995177     
   19.7060739846629        20.0000000000000        20.0000000000000     
   19.9995463132188        19.9986210971717        19.9975522818198     
   19.9963754227527        19.9953519608055        19.9944627856561     
   19.9960259564624        19.9943464622216     
 -6.536680706074363E-003 -6.536680706074363E-003 -2.851394501973884E-003
 -1.184799351022725E-003  9.293672911025877E-005 -3.495027162285832E-004
 -2.920876098624685E-003 -8.473167533635527E-003 -1.745055209396401E-002
  1.631013985074647E-002 -6.536680706074363E-003 -6.536680706074363E-003
 -3.557823529186589E-002 -4.837448636591523E-002 -6.794548362555294E-002
 -8.266081103594855E-002 -9.805565053877736E-002 -0.110093948428370     
 -0.114972826590830      -1.430326392227018E-002 -6.536680706074363E-003
 -6.536680706074363E-003 -2.844932421365596E-002 -3.766896302177265E-002
 -5.249507438460263E-002 -6.420642080558588E-002 -7.735500708451927E-002
 -8.882029881262654E-002 -9.506608674246185E-002  1.607277600514601E-002
 -6.536680706074363E-003 -6.536680706074363E-003 -2.743339674599008E-002
 -3.582899317496067E-002 -4.964782702230360E-002 -6.040203893578711E-002
 -7.254429967761518E-002 -8.289232348368403E-002 -8.784931942642593E-002
  2.661698188448511E-002 -6.536680706074363E-003 -6.536680706074363E-003
 -2.713676874561474E-002 -3.524586597569238E-002 -4.869763176519736E-002
 -5.907192612897254E-002 -7.081009026994735E-002 -8.074631768629589E-002
 -8.530551081548726E-002  2.983768096822425E-002 -6.536680706074363E-003
 -6.536680706074363E-003 -2.703054819483169E-002 -3.504219340990431E-002
 -4.836939922731504E-002 -5.861944955524145E-002 -7.022985808241039E-002
 -8.004243388124188E-002 -8.448646119557117E-002  3.082824760940955E-002
 -6.536680706074363E-003 -6.536680706074363E-003 -2.699504307706112E-002
 -3.497618029285914E-002 -4.826458750006116E-002 -5.847691272467671E-002
 -7.004892137070755E-002 -7.982469944973564E-002 -8.423422313919142E-002
  3.113025739542032E-002 -6.536680706074363E-003 -6.536680706074363E-003
 -2.699504307706119E-002 -3.497618029285918E-002 -4.826458750006116E-002
 -5.847691272467673E-002 -7.004892137070759E-002 -7.982469944973559E-002
 -8.423422313919135E-002  3.113025739542033E-002 -6.536680706074363E-003
 -6.536680706074363E-003 -2.703054819483169E-002 -3.504219340990430E-002
 -4.836939922731505E-002 -5.861944955524150E-002 -7.022985808241036E-002
 -8.004243388124188E-002 -8.448646119557113E-002  3.082824760940957E-002
 -6.536680706074363E-003 -6.536680706074363E-003 -2.713676874561466E-002
 -3.524586597569237E-002 -4.869763176519736E-002 -5.907192612897257E-002
 -7.081009026994739E-002 -8.074631768629593E-002 -8.530551081548725E-002
  2.983768096822427E-002 -6.536680706074363E-003 -6.536680706074363E-003
 -2.743339674599007E-002 -3.582899317496069E-002 -4.964782702230366E-002
 -6.040203893578715E-002 -7.254429967761518E-002 -8.289232348368406E-002
 -8.784931942642586E-002  2.661698188448519E-002 -6.536680706074363E-003
 -6.536680706074363E-003 -2.844932421365589E-002 -3.766896302177264E-002
 -5.249507438460258E-002 -6.420642080558592E-002 -7.735500708451937E-002
 -8.882029881262661E-002 -9.506608674246182E-002  1.607277600514613E-002
 -6.536680706074363E-003 -6.536680706074363E-003 -3.557823529186584E-002
 -4.837448636591531E-002 -6.794548362555317E-002 -8.266081103594879E-002
 -9.805565053877788E-002 -0.110093948428370      -0.114972826590830     
 -1.430326392227000E-002 -6.536680706074363E-003 -6.536680706074363E-003
 -2.851394501973890E-003 -1.184799351022717E-003  9.293672911041143E-005
 -3.495027162284193E-004 -2.920876098624417E-003 -8.473167533635168E-003
 -1.745055209396410E-002  1.631013985074659E-002
   1.05129973883409        1.03020640715806        1.00486259147205     
  0.973858434038998       0.935043765751740       0.884911471366558     
  0.817122145994892       0.717952076931788       0.545687230928579     
   1.60954396139755        1.57258527955507        1.52799981794014     
   1.47322374154820        1.40435192360063        1.31507668024105     
   1.19436106594707        1.02014754055350       0.735561100336828     
   1.86145722279845        1.80960608475144        1.74768437980462     
   1.67270957966126        1.58035263084665        1.46395879974757     
   1.31238267385890        1.10391394579400       0.782326100572016     
   1.93942615290331        1.87972219649234        1.80944735323888     
   1.72569643953580        1.62426711239531        1.49868926620788     
   1.33806052524169        1.12094440580768       0.791278928221502     
   1.96166712793758        1.89908508255534        1.82594861530297     
   1.73939243491094        1.63525863329197        1.50712425988876     
   1.34413341106689        1.12488759619166       0.793323245359819     
   1.96837959004969        1.90485053854391        1.83080192530550     
   1.74337776595346        1.63842940476177        1.50954269403987     
   1.34586936362122        1.12601564997301       0.793911270808085     
   1.96995008087233        1.90619483520523        1.83193054857300     
   1.74430292194289        1.63916492624379        1.51010392089124     
   1.34627288741357        1.12627868704179       0.794049049972261     
   1.96837959004969        1.90485053854391        1.83080192530550     
   1.74337776595346        1.63842940476177        1.50954269403987     
   1.34586936362122        1.12601564997301       0.793911270808084     
   1.96166712793758        1.89908508255534        1.82594861530296     
   1.73939243491094        1.63525863329196        1.50712425988876     
   1.34413341106689        1.12488759619166       0.793323245359819     
   1.93942615290331        1.87972219649234        1.80944735323888     
   1.72569643953580        1.62426711239531        1.49868926620788     
   1.33806052524169        1.12094440580768       0.791278928221502     
   1.86145722279845        1.80960608475144        1.74768437980462     
   1.67270957966126        1.58035263084665        1.46395879974757     
   1.31238267385890        1.10391394579400       0.782326100572015     
   1.60954396139755        1.57258527955507        1.52799981794014     
   1.47322374154820        1.40435192360063        1.31507668024105     
   1.19436106594707        1.02014754055351       0.735561100336828     
   1.05129973883409        1.03020640715806        1.00486259147205     
  0.973858434038999       0.935043765751740       0.884911471366559     
  0.817122145994892       0.717952076931788       0.545687230928579     
 Zone I=    2 J=1   K=1   T="FarWake"
 DATAPACKING=BLOCK
 VARLOCATION=([4]=CELLCENTERED)
  7.020782077766048E-002  7.020782077766048E-002
   19.9943464622216        19.9943464622216     
  1.631013985074659E-002  1.631013985074659E-002
  0.000000000000000E+000
