 Title = "Wing and Wake"
 VARIABLES = "X" "Y" "Z" "GAM"
 Zone I=    5 J=   14 K=1  T="Blade"
 DATAPACKING=BLOCK
 VARLOCATION=([4]=CELLCENTERED)
  -1.49619469809175       -1.24714602356881      -0.998097349045873     
 -0.749048674522936      -0.500000000000000       -1.49619469809175     
  -1.24714602356881      -0.998097349045873      -0.749048674522936     
 -0.500000000000000       -1.49619469809175       -1.24714602356881     
 -0.998097349045873      -0.749048674522936      -0.500000000000000     
  -1.49619469809175       -1.24714602356881      -0.998097349045873     
 -0.749048674522936      -0.500000000000000       -1.49619469809175     
  -1.24714602356881      -0.998097349045873      -0.749048674522936     
 -0.500000000000000       -1.49619469809175       -1.24714602356881     
 -0.998097349045873      -0.749048674522936      -0.500000000000000     
  -1.49619469809175       -1.24714602356881      -0.998097349045873     
 -0.749048674522936      -0.500000000000000       -1.49619469809175     
  -1.24714602356881      -0.998097349045873      -0.749048674522936     
 -0.500000000000000       -1.49619469809175       -1.24714602356881     
 -0.998097349045873      -0.749048674522936      -0.500000000000000     
  -1.49619469809175       -1.24714602356881      -0.998097349045873     
 -0.749048674522936      -0.500000000000000       -1.49619469809175     
  -1.24714602356881      -0.998097349045873      -0.749048674522936     
 -0.500000000000000       -1.49619469809175       -1.24714602356881     
 -0.998097349045873      -0.749048674522936      -0.500000000000000     
  -1.49619469809175       -1.24714602356881      -0.998097349045873     
 -0.749048674522936      -0.500000000000000       -1.49619469809175     
  -1.24714602356881      -0.998097349045873      -0.749048674522936     
 -0.500000000000000     
  0.000000000000000E+000  0.000000000000000E+000  0.000000000000000E+000
  0.000000000000000E+000  0.000000000000000E+000  0.290581825739480     
  0.290581825739480       0.290581825739480       0.290581825739480     
  0.290581825739480        1.14543974346790        1.14543974346790     
   1.14543974346790        1.14543974346790        1.14543974346790     
   2.51489251828899        2.51489251828899        2.51489251828899     
   2.51489251828899        2.51489251828899        4.31935253268844     
   4.31935253268844        4.31935253268844        4.31935253268844     
   4.31935253268844        6.45395112957464        6.45395112957464     
   6.45395112957464        6.45395112957464        6.45395112957464     
   8.79463319744677        8.79463319744677        8.79463319744677     
   8.79463319744677        8.79463319744677        11.2053668025532     
   11.2053668025532        11.2053668025532        11.2053668025532     
   11.2053668025532        13.5460488704254        13.5460488704254     
   13.5460488704254        13.5460488704254        13.5460488704254     
   15.6806474673116        15.6806474673116        15.6806474673116     
   15.6806474673116        15.6806474673116        17.4851074817110     
   17.4851074817110        17.4851074817110        17.4851074817110     
   17.4851074817110        18.8545602565321        18.8545602565321     
   18.8545602565321        18.8545602565321        18.8545602565321     
   19.7094181742605        19.7094181742605        19.7094181742605     
   19.7094181742605        19.7094181742605        20.0000000000000     
   20.0000000000000        20.0000000000000        20.0000000000000     
   20.0000000000000     
  8.715574274765817E-002  6.536680706074363E-002  4.357787137382908E-002
  2.178893568691454E-002  0.000000000000000E+000  8.715574274765817E-002
  6.536680706074363E-002  4.357787137382908E-002  2.178893568691454E-002
  0.000000000000000E+000  8.715574274765817E-002  6.536680706074363E-002
  4.357787137382908E-002  2.178893568691454E-002  0.000000000000000E+000
  8.715574274765817E-002  6.536680706074363E-002  4.357787137382908E-002
  2.178893568691454E-002  0.000000000000000E+000  8.715574274765817E-002
  6.536680706074363E-002  4.357787137382908E-002  2.178893568691454E-002
  0.000000000000000E+000  8.715574274765817E-002  6.536680706074363E-002
  4.357787137382908E-002  2.178893568691454E-002  0.000000000000000E+000
  8.715574274765817E-002  6.536680706074363E-002  4.357787137382908E-002
  2.178893568691454E-002  0.000000000000000E+000  8.715574274765817E-002
  6.536680706074363E-002  4.357787137382908E-002  2.178893568691454E-002
  0.000000000000000E+000  8.715574274765817E-002  6.536680706074363E-002
  4.357787137382908E-002  2.178893568691454E-002  0.000000000000000E+000
  8.715574274765817E-002  6.536680706074363E-002  4.357787137382908E-002
  2.178893568691454E-002  0.000000000000000E+000  8.715574274765817E-002
  6.536680706074363E-002  4.357787137382908E-002  2.178893568691454E-002
  0.000000000000000E+000  8.715574274765817E-002  6.536680706074363E-002
  4.357787137382908E-002  2.178893568691454E-002  0.000000000000000E+000
  8.715574274765817E-002  6.536680706074363E-002  4.357787137382908E-002
  2.178893568691454E-002  0.000000000000000E+000  8.715574274765817E-002
  6.536680706074363E-002  4.357787137382908E-002  2.178893568691454E-002
  0.000000000000000E+000
  0.559747667856160       0.713736248800360       0.755651496715296     
  0.717952076931788       0.764474464649647        1.01394743663363     
   1.08574617239376        1.02014754055350       0.824955407706476     
   1.09974936032838        1.17913292743319        1.10391394579400     
  0.838104080565890        1.11762767279412        1.19819045522952     
   1.12094440580768       0.841225383711697        1.12179622870652     
   1.20259849802762        1.12488759619166       0.842124160497030     
   1.12298915971630        1.20385719240179        1.12601564997301     
  0.842334022576688        1.12326719681955        1.20415040827654     
   1.12627868704179       0.842124160497030        1.12298915971630     
   1.20385719240179        1.12601564997301       0.841225383711697     
   1.12179622870652        1.20259849802762        1.12488759619166     
  0.838104080565890        1.11762767279412        1.19819045522952     
   1.12094440580768       0.824955407706476        1.09974936032838     
   1.17913292743319        1.10391394579400       0.764474464649648     
   1.01394743663363        1.08574617239376        1.02014754055351     
  0.559747667856160       0.713736248800360       0.755651496715296     
  0.717952076931788     
 Zone I=    3 J=   14 K=1  T="NearWake"
 DATAPACKING=BLOCK
 VARLOCATION=([4]=CELLCENTERED)
 -0.425285397643119      -0.175285397643119       7.466825961335770E-002
 -0.425285397643119      -0.175285397643119       7.444688491671270E-002
 -0.425285397643119      -0.175285397643119       7.442437832191003E-002
 -0.425285397643119      -0.175285397643119       7.444558666838946E-002
 -0.425285397643119      -0.175285397643119       7.445328112658860E-002
 -0.425285397643119      -0.175285397643119       7.445571436652076E-002
 -0.425285397643119      -0.175285397643119       7.445646776126735E-002
 -0.425285397643119      -0.175285397643119       7.445646776126735E-002
 -0.425285397643119      -0.175285397643119       7.445571436652076E-002
 -0.425285397643119      -0.175285397643119       7.445328112658860E-002
 -0.425285397643119      -0.175285397643119       7.444558666838946E-002
 -0.425285397643119      -0.175285397643119       7.442437832191003E-002
 -0.425285397643119      -0.175285397643119       7.444688491671270E-002
 -0.425285397643119      -0.175285397643119       7.466825961335770E-002
  0.000000000000000E+000  0.000000000000000E+000  1.970468679807378E-004
  0.290581825739480       0.290581825739480       0.290765023722218     
   1.14543974346790        1.14543974346790        1.14547899236809     
   2.51489251828899        2.51489251828899        2.51489960068335     
   4.31935253268844        4.31935253268844        4.31935407032886     
   6.45395112957464        6.45395112957464        6.45395155206540     
   8.79463319744677        8.79463319744677        8.79463329396737     
   11.2053668025532        11.2053668025532        11.2053667060326     
   13.5460488704254        13.5460488704254        13.5460484479346     
   15.6806474673116        15.6806474673116        15.6806459296711     
   17.4851074817110        17.4851074817110        17.4851003993167     
   18.8545602565321        18.8545602565321        18.8545210076319     
   19.7094181742605        19.7094181742605        19.7092349762778     
   20.0000000000000        20.0000000000000        19.9998029531320     
 -6.536680706074363E-003 -6.536680706074363E-003 -4.903130580461837E-003
 -6.536680706074363E-003 -6.536680706074363E-003 -9.033149607112684E-003
 -6.536680706074363E-003 -6.536680706074363E-003 -5.916617686700963E-003
 -6.536680706074363E-003 -6.536680706074363E-003 -5.113442931960685E-003
 -6.536680706074363E-003 -6.536680706074363E-003 -4.916841212331644E-003
 -6.536680706074363E-003 -6.536680706074363E-003 -4.863101059686109E-003
 -6.536680706074363E-003 -6.536680706074363E-003 -4.847406150019199E-003
 -6.536680706074363E-003 -6.536680706074363E-003 -4.847406150019194E-003
 -6.536680706074363E-003 -6.536680706074363E-003 -4.863101059686107E-003
 -6.536680706074363E-003 -6.536680706074363E-003 -4.916841212331647E-003
 -6.536680706074363E-003 -6.536680706074363E-003 -5.113442931960680E-003
 -6.536680706074363E-003 -6.536680706074363E-003 -5.916617686700945E-003
 -6.536680706074363E-003 -6.536680706074363E-003 -9.033149607112677E-003
 -6.536680706074363E-003 -6.536680706074363E-003 -4.903130580461837E-003
  0.717952076931788       0.545687230928579        1.02014754055350     
  0.735561100336828        1.10391394579400       0.782326100572016     
   1.12094440580768       0.791278928221502        1.12488759619166     
  0.793323245359819        1.12601564997301       0.793911270808085     
   1.12627868704179       0.794049049972261        1.12601564997301     
  0.793911270808084        1.12488759619166       0.793323245359819     
   1.12094440580768       0.791278928221502        1.10391394579400     
  0.782326100572015        1.02014754055351       0.735561100336828     
  0.717952076931788       0.545687230928579     
 Zone I=    2 J=1   K=1   T="FarWake"
 DATAPACKING=BLOCK
 VARLOCATION=([4]=CELLCENTERED)
  7.466825961335770E-002  7.466825961335770E-002
   19.9998029531320        19.9998029531320     
 -4.903130580461837E-003 -4.903130580461837E-003
  0.000000000000000E+000
