 Title = "Wing and Wake"
 VARIABLES = "X" "Y" "Z" "GAM"
 Zone I=    5 J=   14 K=1  T="Blade"
 DATAPACKING=BLOCK
 VARLOCATION=([4]=CELLCENTERED)
  -3.99619469809175       -3.74714602356881       -3.49809734904587     
  -3.24904867452294       -3.00000000000000       -3.99619469809175     
  -3.74714602356881       -3.49809734904587       -3.24904867452294     
  -3.00000000000000       -3.99619469809175       -3.74714602356881     
  -3.49809734904587       -3.24904867452294       -3.00000000000000     
  -3.99619469809175       -3.74714602356881       -3.49809734904587     
  -3.24904867452294       -3.00000000000000       -3.99619469809175     
  -3.74714602356881       -3.49809734904587       -3.24904867452294     
  -3.00000000000000       -3.99619469809175       -3.74714602356881     
  -3.49809734904587       -3.24904867452294       -3.00000000000000     
  -3.99619469809175       -3.74714602356881       -3.49809734904587     
  -3.24904867452294       -3.00000000000000       -3.99619469809175     
  -3.74714602356881       -3.49809734904587       -3.24904867452294     
  -3.00000000000000       -3.99619469809175       -3.74714602356881     
  -3.49809734904587       -3.24904867452294       -3.00000000000000     
  -3.99619469809175       -3.74714602356881       -3.49809734904587     
  -3.24904867452294       -3.00000000000000       -3.99619469809175     
  -3.74714602356881       -3.49809734904587       -3.24904867452294     
  -3.00000000000000       -3.99619469809175       -3.74714602356881     
  -3.49809734904587       -3.24904867452294       -3.00000000000000     
  -3.99619469809175       -3.74714602356881       -3.49809734904587     
  -3.24904867452294       -3.00000000000000       -3.99619469809175     
  -3.74714602356881       -3.49809734904587       -3.24904867452294     
  -3.00000000000000     
  0.000000000000000E+000  0.000000000000000E+000  0.000000000000000E+000
  0.000000000000000E+000  0.000000000000000E+000  0.290581825739480     
  0.290581825739480       0.290581825739480       0.290581825739480     
  0.290581825739480        1.14543974346790        1.14543974346790     
   1.14543974346790        1.14543974346790        1.14543974346790     
   2.51489251828899        2.51489251828899        2.51489251828899     
   2.51489251828899        2.51489251828899        4.31935253268844     
   4.31935253268844        4.31935253268844        4.31935253268844     
   4.31935253268844        6.45395112957464        6.45395112957464     
   6.45395112957464        6.45395112957464        6.45395112957464     
   8.79463319744677        8.79463319744677        8.79463319744677     
   8.79463319744677        8.79463319744677        11.2053668025532     
   11.2053668025532        11.2053668025532        11.2053668025532     
   11.2053668025532        13.5460488704254        13.5460488704254     
   13.5460488704254        13.5460488704254        13.5460488704254     
   15.6806474673116        15.6806474673116        15.6806474673116     
   15.6806474673116        15.6806474673116        17.4851074817110     
   17.4851074817110        17.4851074817110        17.4851074817110     
   17.4851074817110        18.8545602565321        18.8545602565321     
   18.8545602565321        18.8545602565321        18.8545602565321     
   19.7094181742605        19.7094181742605        19.7094181742605     
   19.7094181742605        19.7094181742605        20.0000000000000     
   20.0000000000000        20.0000000000000        20.0000000000000     
   20.0000000000000     
  8.715574274765817E-002  6.536680706074363E-002  4.357787137382908E-002
  2.178893568691454E-002  0.000000000000000E+000  8.715574274765817E-002
  6.536680706074363E-002  4.357787137382908E-002  2.178893568691454E-002
  0.000000000000000E+000  8.715574274765817E-002  6.536680706074363E-002
  4.357787137382908E-002  2.178893568691454E-002  0.000000000000000E+000
  8.715574274765817E-002  6.536680706074363E-002  4.357787137382908E-002
  2.178893568691454E-002  0.000000000000000E+000  8.715574274765817E-002
  6.536680706074363E-002  4.357787137382908E-002  2.178893568691454E-002
  0.000000000000000E+000  8.715574274765817E-002  6.536680706074363E-002
  4.357787137382908E-002  2.178893568691454E-002  0.000000000000000E+000
  8.715574274765817E-002  6.536680706074363E-002  4.357787137382908E-002
  2.178893568691454E-002  0.000000000000000E+000  8.715574274765817E-002
  6.536680706074363E-002  4.357787137382908E-002  2.178893568691454E-002
  0.000000000000000E+000  8.715574274765817E-002  6.536680706074363E-002
  4.357787137382908E-002  2.178893568691454E-002  0.000000000000000E+000
  8.715574274765817E-002  6.536680706074363E-002  4.357787137382908E-002
  2.178893568691454E-002  0.000000000000000E+000  8.715574274765817E-002
  6.536680706074363E-002  4.357787137382908E-002  2.178893568691454E-002
  0.000000000000000E+000  8.715574274765817E-002  6.536680706074363E-002
  4.357787137382908E-002  2.178893568691454E-002  0.000000000000000E+000
  8.715574274765817E-002  6.536680706074363E-002  4.357787137382908E-002
  2.178893568691454E-002  0.000000000000000E+000  8.715574274765817E-002
  6.536680706074363E-002  4.357787137382908E-002  2.178893568691454E-002
  0.000000000000000E+000
  0.687241930629638       0.918575518002607        1.03906826858056     
   1.09747943126000       0.982750114860431        1.37201904835348     
   1.58572330017710        1.68989876312098        1.12329853231781     
   1.58500487209579        1.84618479082074        1.97535191638772     
   1.17579438698038        1.66187522631347        1.93778673047833     
   2.07362347682979        1.19332048089035        1.68692006380197     
   1.96697173366783        2.10428200377187        1.19906626250175     
   1.69501825566490        1.97628988090707        2.11395621316765     
   1.20045031465656        1.69695793348837        1.97851052962683     
   2.11625149747839        1.19906626250175        1.69501825566490     
   1.97628988090707        2.11395621316765        1.19332048089035     
   1.68692006380197        1.96697173366783        2.10428200377187     
   1.17579438698038        1.66187522631347        1.93778673047833     
   2.07362347682979        1.12329853231781        1.58500487209579     
   1.84618479082074        1.97535191638772       0.982750114860431     
   1.37201904835348        1.58572330017710        1.68989876312098     
  0.687241930629638       0.918575518002608        1.03906826858057     
   1.09747943126000     
 Zone I=   13 J=   14 K=1  T="NearWake"
 DATAPACKING=BLOCK
 VARLOCATION=([4]=CELLCENTERED)
  -2.92528539764312       -2.67528539764312       -2.42489846304174     
  -2.17457075251400       -1.92435904340442       -1.67427720434267     
  -1.42443645322842       -1.17488396434082      -0.925738547569616     
 -0.677062158110084      -0.428729293581647      -0.177658266651637     
  6.569205895621032E-002  -2.92528539764312       -2.67528539764312     
  -2.42591047820603       -2.17583131546504       -1.92608781269395     
  -1.67615448730268       -1.42640973268256       -1.17659106881758     
 -0.926701667048455      -0.676030987795784      -0.422117372825932     
 -0.149599992524031       6.507227591138506E-002  -2.92528539764312     
  -2.67528539764312       -2.42644522543266       -2.17675952490249     
  -1.92742223779698       -1.67774290170694       -1.42812881939676     
  -1.17819516828404      -0.927844264315783      -0.676085796003048     
 -0.419839794332341      -0.137933792545394       5.524213522541122E-002
  -2.92528539764312       -2.67528539764312       -2.42641492320622     
  -2.17666693222773       -1.92726604920251       -1.67747517518792     
  -1.42773048144429       -1.17760680620421      -0.927012578614975     
 -0.674902440437213      -0.418074314197921      -0.134129460698660     
  5.278902909102950E-002  -2.92528539764312       -2.67528539764312     
  -2.42639636078534       -2.17661479423082       -1.92718845053910     
  -1.67735966379157       -1.42758378224543       -1.17742196120760     
 -0.926788604074462      -0.674624531990304      -0.417705746090919     
 -0.133393407052747       5.216803080131591E-002  -2.92528539764312     
  -2.67528539764312       -2.42639125024012       -2.17659825541141     
  -1.92716473729342       -1.67732460179037       -1.42754007555957     
  -1.17736772909101      -0.926723916925103      -0.674546004923461     
 -0.417605214173226      -0.133206716460917       5.202778637338981E-002
  -2.92528539764312       -2.67528539764312       -2.42639004464086     
  -2.17659360724816       -1.92715805901319       -1.67731455323798     
  -1.42752740916822       -1.17735185368021      -0.926704805995312     
 -0.674522712574436      -0.417575500583016      -0.133152927000779     
  5.199359048984081E-002  -2.92528539764312       -2.67528539764312     
  -2.42639004464086       -2.17659360724816       -1.92715805901319     
  -1.67731455323798       -1.42752740916822       -1.17735185368021     
 -0.926704805995312      -0.674522712574436      -0.417575500583016     
 -0.133152927000779       5.199359048984083E-002  -2.92528539764312     
  -2.67528539764312       -2.42639125024012       -2.17659825541141     
  -1.92716473729342       -1.67732460179037       -1.42754007555957     
  -1.17736772909101      -0.926723916925103      -0.674546004923461     
 -0.417605214173226      -0.133206716460917       5.202778637338982E-002
  -2.92528539764312       -2.67528539764312       -2.42639636078534     
  -2.17661479423082       -1.92718845053910       -1.67735966379157     
  -1.42758378224543       -1.17742196120760      -0.926788604074462     
 -0.674624531990304      -0.417705746090919      -0.133393407052747     
  5.216803080131589E-002  -2.92528539764312       -2.67528539764312     
  -2.42641492320622       -2.17666693222773       -1.92726604920251     
  -1.67747517518792       -1.42773048144429       -1.17760680620421     
 -0.927012578614975      -0.674902440437213      -0.418074314197921     
 -0.134129460698660       5.278902909102948E-002  -2.92528539764312     
  -2.67528539764312       -2.42644522543266       -2.17675952490249     
  -1.92742223779698       -1.67774290170694       -1.42812881939676     
  -1.17819516828404      -0.927844264315783      -0.676085796003048     
 -0.419839794332341      -0.137933792545394       5.524213522541113E-002
  -2.92528539764312       -2.67528539764312       -2.42591047820603     
  -2.17583131546504       -1.92608781269395       -1.67615448730268     
  -1.42640973268256       -1.17659106881758      -0.926701667048455     
 -0.676030987795784      -0.422117372825932      -0.149599992524031     
  6.507227591138481E-002  -2.92528539764312       -2.67528539764312     
  -2.42489846304174       -2.17457075251400       -1.92435904340442     
  -1.67427720434267       -1.42443645322842       -1.17488396434082     
 -0.925738547569616      -0.677062158110084      -0.428729293581647     
 -0.177658266651638       6.569205895621059E-002
  0.000000000000000E+000  0.000000000000000E+000  4.988728543141382E-004
  1.668534728500871E-003  3.072343548556437E-003  4.855277092367239E-003
  6.715310683206275E-003  8.525198368267626E-003  1.000862022913521E-002
  1.095860031424222E-002  1.169337608845169E-002  7.716806556179420E-003
  1.071676260906180E-002  0.290581825739480       0.290581825739480     
  0.291130425247049       0.288226984317028       0.286273276940223     
  0.282350370121860       0.278643238129358       0.274491032111641     
  0.271018034570410       0.268894025825921       0.270254419383219     
  0.274444733863076       0.296682443394632        1.14543974346790     
   1.14543974346790        1.14566437689842        1.14545977505431     
   1.14561646422619        1.14554246353352        1.14560398877615     
   1.14563903873225        1.14577207970688        1.14599743622208     
   1.14649816081344        1.14657821278671        1.14785536598772     
   2.51489251828899        2.51489251828899        2.51497511930256     
   2.51493482577611        2.51500629610888        2.51501549956711     
   2.51505948039819        2.51509015115986        2.51513260952667     
   2.51518042535569        2.51526867293070        2.51524282596131     
   2.51550924281785        4.31935253268844        4.31935253268844     
   4.31938070812263        4.31937078272395        4.31939287400719     
   4.31939627376659        4.31940805878581        4.31941523684034     
   4.31942436736034        4.31943370864570        4.31945102478279     
   4.31943923540541        4.31951495412124        6.45395112957464     
   6.45395112957464        6.45396030698892        6.45395731453656     
   6.45396391406081        6.45396468868883        6.45396780180640     
   6.45396948807885        6.45397169909752        6.45397396646746     
   6.45397851952621        6.45397451133227        6.45400062698316     
   8.79463319744677        8.79463319744677        8.79463537750554     
   8.79463465973267        8.79463616880848        8.79463630558773     
   8.79463697701621        8.79463731965837        8.79463778946156     
   8.79463828416199        8.79463932686188        8.79463836661134     
   8.79464495148812        11.2053668025532        11.2053668025532     
   11.2053646224945        11.2053653402673        11.2053638311915     
   11.2053636944123        11.2053630229838        11.2053626803416     
   11.2053622105384        11.2053617158380        11.2053606731381     
   11.2053616333887        11.2053550485119        13.5460488704254     
   13.5460488704254        13.5460396930111        13.5460426854634     
   13.5460360859392        13.5460353113112        13.5460321981936     
   13.5460305119212        13.5460283009025        13.5460260335325     
   13.5460214804738        13.5460254886677        13.5459993730168     
   15.6806474673116        15.6806474673116        15.6806192918774     
   15.6806292172761        15.6806071259928        15.6806037262334     
   15.6805919412142        15.6805847631597        15.6805756326397     
   15.6805662913543        15.6805489752172        15.6805607645946     
   15.6804850458788        17.4851074817110        17.4851074817110     
   17.4850248806974        17.4850651742239        17.4849937038911     
   17.4849845004329        17.4849405196018        17.4849098488401     
   17.4848673904733        17.4848195746443        17.4847313270693     
   17.4847571740387        17.4844907571821        18.8545602565321     
   18.8545602565321        18.8543356231016        18.8545402249457     
   18.8543835357738        18.8544575364665        18.8543960112238     
   18.8543609612677        18.8542279202931        18.8540025637779     
   18.8535018391866        18.8534217872133        18.8521446340123     
   19.7094181742605        19.7094181742605        19.7088695747529     
   19.7117730156830        19.7137267230598        19.7176496298781     
   19.7213567618706        19.7255089678884        19.7289819654296     
   19.7311059741741        19.7297455806168        19.7255552661369     
   19.7033175566054        20.0000000000000        20.0000000000000     
   19.9995011271457        19.9983314652715        19.9969276564514     
   19.9951447229076        19.9932846893168        19.9914748016317     
   19.9899913797709        19.9890413996858        19.9883066239115     
   19.9922831934438        19.9892832373909     
 -6.536680706074363E-003 -6.536680706074363E-003 -1.265496633746008E-003
  1.615836358556041E-003  5.073869281330891E-003  7.265593631388102E-003
  8.538876461682197E-003  8.229032342225193E-003  5.973541871517546E-003
  1.078292682853947E-003 -7.379395045339810E-003 -1.973370969036965E-002
  2.682367615257665E-002 -6.536680706074363E-003 -6.536680706074363E-003
 -3.587501977434150E-002 -4.886218541082735E-002 -6.888471073579785E-002
 -8.419836905878789E-002 -0.100826702462259      -0.115613967864786     
 -0.129992611597557      -0.142674025353464      -0.152389281548328     
 -0.150445135555260      -1.512625186873845E-002 -6.536680706074363E-003
 -6.536680706074363E-003 -2.807125816335693E-002 -3.694213457695230E-002
 -5.119829697725384E-002 -6.227744720552784E-002 -7.481148139533274E-002
 -8.671119438524752E-002 -9.916078564450947E-002 -0.111344428164650     
 -0.121934847940230      -0.123544759356402       2.688104857441895E-002
 -6.536680706074363E-003 -6.536680706074363E-003 -2.684016327684187E-002
 -3.473043423885701E-002 -4.775192303494909E-002 -5.768874473439792E-002
 -6.909129820006503E-002 -7.994341402788702E-002 -9.138833315713282E-002
 -0.102543949936940      -0.111911321560081      -0.112047304168133     
  4.226015843774016E-002 -6.536680706074363E-003 -6.536680706074363E-003
 -2.648344133378829E-002 -3.404512908864338E-002 -4.664558296731123E-002
 -5.615548460642922E-002 -6.710675824820012E-002 -7.750387837852603E-002
 -8.848982572010347E-002 -9.918763809387440E-002 -0.108097366808540     
 -0.107809235215529       4.723845084544642E-002 -6.536680706074363E-003
 -6.536680706074363E-003 -2.635712662949175E-002 -3.380377608792162E-002
 -4.625537254487998E-002 -5.561491524086815E-002 -6.640780966421470E-002
 -7.664803052340083E-002 -8.748029409009049E-002 -9.803179719757098E-002
 -0.106803874518815      -0.106392909532844       4.883880534081420E-002
 -6.536680706074363E-003 -6.536680706074363E-003 -2.631417177949095E-002
 -3.372359413228410E-002 -4.612705174931473E-002 -5.543896140273197E-002
 -6.618215213333704E-002 -7.637380947974073E-002 -8.715897898952782E-002
 -9.766602035121483E-002 -0.106396370130975      -0.105947497416191     
  4.933808110684727E-002 -6.536680706074363E-003 -6.536680706074363E-003
 -2.631417177949097E-002 -3.372359413228410E-002 -4.612705174931471E-002
 -5.543896140273200E-002 -6.618215213333711E-002 -7.637380947974073E-002
 -8.715897898952787E-002 -9.766602035121492E-002 -0.106396370130975     
 -0.105947497416191       4.933808110684728E-002 -6.536680706074363E-003
 -6.536680706074363E-003 -2.635712662949179E-002 -3.380377608792168E-002
 -4.625537254487995E-002 -5.561491524086812E-002 -6.640780966421467E-002
 -7.664803052340083E-002 -8.748029409009059E-002 -9.803179719757095E-002
 -0.106803874518815      -0.106392909532844       4.883880534081422E-002
 -6.536680706074363E-003 -6.536680706074363E-003 -2.648344133378835E-002
 -3.404512908864343E-002 -4.664558296731125E-002 -5.615548460642910E-002
 -6.710675824820002E-002 -7.750387837852599E-002 -8.848982572010351E-002
 -9.918763809387447E-002 -0.108097366808540      -0.107809235215529     
  4.723845084544646E-002 -6.536680706074363E-003 -6.536680706074363E-003
 -2.684016327684192E-002 -3.473043423885701E-002 -4.775192303494902E-002
 -5.768874473439783E-002 -6.909129820006514E-002 -7.994341402788709E-002
 -9.138833315713289E-002 -0.102543949936940      -0.111911321560081     
 -0.112047304168133       4.226015843774025E-002 -6.536680706074363E-003
 -6.536680706074363E-003 -2.807125816335692E-002 -3.694213457695230E-002
 -5.119829697725373E-002 -6.227744720552769E-002 -7.481148139533271E-002
 -8.671119438524748E-002 -9.916078564450957E-002 -0.111344428164650     
 -0.121934847940230      -0.123544759356402       2.688104857441914E-002
 -6.536680706074363E-003 -6.536680706074363E-003 -3.587501977434152E-002
 -4.886218541082724E-002 -6.888471073579781E-002 -8.419836905878797E-002
 -0.100826702462259      -0.115613967864787      -0.129992611597557     
 -0.142674025353465      -0.152389281548329      -0.150445135555261     
 -1.512625186873814E-002 -6.536680706074363E-003 -6.536680706074363E-003
 -1.265496633745987E-003  1.615836358556032E-003  5.073869281330832E-003
  7.265593631388125E-003  8.538876461682223E-003  8.229032342225428E-003
  5.973541871517836E-003  1.078292682854388E-003 -7.379395045339411E-003
 -1.973370969036989E-002  2.682367615257675E-002
   1.09747943126000        1.08433596959880        1.06911226722641     
   1.05129973883409        1.03020640715806        1.00486259147205     
  0.973858434038998       0.935043765751740       0.884911471366558     
  0.817122145994892       0.717952076931788       0.545687230928579     
   1.68989876312098        1.66711504942870        1.64063624387196     
   1.60954396139755        1.57258527955507        1.52799981794014     
   1.47322374154820        1.40435192360063        1.31507668024105     
   1.19436106594707        1.02014754055350       0.735561100336828     
   1.97535191638772        1.94294337235398        1.90537647195558     
   1.86145722279845        1.80960608475144        1.74768437980462     
   1.67270957966126        1.58035263084665        1.46395879974757     
   1.31238267385890        1.10391394579400       0.782326100572016     
   2.07362347682979        2.03499061728117        1.99065925364340     
   1.93942615290331        1.87972219649234        1.80944735323888     
   1.72569643953580        1.62426711239531        1.49868926620788     
   1.33806052524169        1.12094440580768       0.791278928221502     
   2.10428200377187        2.06290527298872        2.01576037746364     
   1.96166712793758        1.89908508255534        1.82594861530297     
   1.73939243491094        1.63525863329197        1.50712425988876     
   1.34413341106689        1.12488759619166       0.793323245359819     
   2.11395621316765        2.07158046516018        2.02344563356405     
   1.96837959004969        1.90485053854391        1.83080192530550     
   1.74337776595346        1.63842940476177        1.50954269403987     
   1.34586936362122        1.12601564997301       0.793911270808085     
   2.11625149747839        2.07362811755225        2.02525113883741     
   1.96995008087233        1.90619483520523        1.83193054857300     
   1.74430292194289        1.63916492624379        1.51010392089124     
   1.34627288741357        1.12627868704179       0.794049049972261     
   2.11395621316765        2.07158046516018        2.02344563356405     
   1.96837959004969        1.90485053854391        1.83080192530550     
   1.74337776595346        1.63842940476177        1.50954269403987     
   1.34586936362122        1.12601564997301       0.793911270808084     
   2.10428200377187        2.06290527298872        2.01576037746364     
   1.96166712793758        1.89908508255534        1.82594861530296     
   1.73939243491094        1.63525863329196        1.50712425988876     
   1.34413341106689        1.12488759619166       0.793323245359819     
   2.07362347682979        2.03499061728117        1.99065925364340     
   1.93942615290331        1.87972219649234        1.80944735323888     
   1.72569643953580        1.62426711239531        1.49868926620788     
   1.33806052524169        1.12094440580768       0.791278928221502     
   1.97535191638772        1.94294337235398        1.90537647195558     
   1.86145722279845        1.80960608475144        1.74768437980462     
   1.67270957966126        1.58035263084665        1.46395879974757     
   1.31238267385890        1.10391394579400       0.782326100572015     
   1.68989876312098        1.66711504942870        1.64063624387196     
   1.60954396139755        1.57258527955507        1.52799981794014     
   1.47322374154820        1.40435192360063        1.31507668024105     
   1.19436106594707        1.02014754055351       0.735561100336828     
   1.09747943126000        1.08433596959880        1.06911226722641     
   1.05129973883409        1.03020640715806        1.00486259147205     
  0.973858434038999       0.935043765751740       0.884911471366559     
  0.817122145994892       0.717952076931788       0.545687230928579     
 Zone I=    2 J=1   K=1   T="FarWake"
 DATAPACKING=BLOCK
 VARLOCATION=([4]=CELLCENTERED)
  6.569205895621059E-002  6.569205895621059E-002
   19.9892832373909        19.9892832373909     
  2.682367615257675E-002  2.682367615257675E-002
  0.000000000000000E+000
