 Title = "Wing and Wake"
 VARIABLES = "X" "Y" "Z" "GAM"
 Zone I=    5 J=   14 K=1  T="Blade"
 DATAPACKING=BLOCK
 VARLOCATION=([4]=CELLCENTERED)
  -5.99619469809175       -5.74714602356881       -5.49809734904587     
  -5.24904867452294       -5.00000000000000       -5.99619469809175     
  -5.74714602356881       -5.49809734904587       -5.24904867452294     
  -5.00000000000000       -5.99619469809175       -5.74714602356881     
  -5.49809734904587       -5.24904867452294       -5.00000000000000     
  -5.99619469809175       -5.74714602356881       -5.49809734904587     
  -5.24904867452294       -5.00000000000000       -5.99619469809175     
  -5.74714602356881       -5.49809734904587       -5.24904867452294     
  -5.00000000000000       -5.99619469809175       -5.74714602356881     
  -5.49809734904587       -5.24904867452294       -5.00000000000000     
  -5.99619469809175       -5.74714602356881       -5.49809734904587     
  -5.24904867452294       -5.00000000000000       -5.99619469809175     
  -5.74714602356881       -5.49809734904587       -5.24904867452294     
  -5.00000000000000       -5.99619469809175       -5.74714602356881     
  -5.49809734904587       -5.24904867452294       -5.00000000000000     
  -5.99619469809175       -5.74714602356881       -5.49809734904587     
  -5.24904867452294       -5.00000000000000       -5.99619469809175     
  -5.74714602356881       -5.49809734904587       -5.24904867452294     
  -5.00000000000000       -5.99619469809175       -5.74714602356881     
  -5.49809734904587       -5.24904867452294       -5.00000000000000     
  -5.99619469809175       -5.74714602356881       -5.49809734904587     
  -5.24904867452294       -5.00000000000000       -5.99619469809175     
  -5.74714602356881       -5.49809734904587       -5.24904867452294     
  -5.00000000000000     
  0.000000000000000E+000  0.000000000000000E+000  0.000000000000000E+000
  0.000000000000000E+000  0.000000000000000E+000  0.290581825739480     
  0.290581825739480       0.290581825739480       0.290581825739480     
  0.290581825739480        1.14543974346790        1.14543974346790     
   1.14543974346790        1.14543974346790        1.14543974346790     
   2.51489251828899        2.51489251828899        2.51489251828899     
   2.51489251828899        2.51489251828899        4.31935253268844     
   4.31935253268844        4.31935253268844        4.31935253268844     
   4.31935253268844        6.45395112957464        6.45395112957464     
   6.45395112957464        6.45395112957464        6.45395112957464     
   8.79463319744677        8.79463319744677        8.79463319744677     
   8.79463319744677        8.79463319744677        11.2053668025532     
   11.2053668025532        11.2053668025532        11.2053668025532     
   11.2053668025532        13.5460488704254        13.5460488704254     
   13.5460488704254        13.5460488704254        13.5460488704254     
   15.6806474673116        15.6806474673116        15.6806474673116     
   15.6806474673116        15.6806474673116        17.4851074817110     
   17.4851074817110        17.4851074817110        17.4851074817110     
   17.4851074817110        18.8545602565321        18.8545602565321     
   18.8545602565321        18.8545602565321        18.8545602565321     
   19.7094181742605        19.7094181742605        19.7094181742605     
   19.7094181742605        19.7094181742605        20.0000000000000     
   20.0000000000000        20.0000000000000        20.0000000000000     
   20.0000000000000     
  8.715574274765817E-002  6.536680706074363E-002  4.357787137382908E-002
  2.178893568691454E-002  0.000000000000000E+000  8.715574274765817E-002
  6.536680706074363E-002  4.357787137382908E-002  2.178893568691454E-002
  0.000000000000000E+000  8.715574274765817E-002  6.536680706074363E-002
  4.357787137382908E-002  2.178893568691454E-002  0.000000000000000E+000
  8.715574274765817E-002  6.536680706074363E-002  4.357787137382908E-002
  2.178893568691454E-002  0.000000000000000E+000  8.715574274765817E-002
  6.536680706074363E-002  4.357787137382908E-002  2.178893568691454E-002
  0.000000000000000E+000  8.715574274765817E-002  6.536680706074363E-002
  4.357787137382908E-002  2.178893568691454E-002  0.000000000000000E+000
  8.715574274765817E-002  6.536680706074363E-002  4.357787137382908E-002
  2.178893568691454E-002  0.000000000000000E+000  8.715574274765817E-002
  6.536680706074363E-002  4.357787137382908E-002  2.178893568691454E-002
  0.000000000000000E+000  8.715574274765817E-002  6.536680706074363E-002
  4.357787137382908E-002  2.178893568691454E-002  0.000000000000000E+000
  8.715574274765817E-002  6.536680706074363E-002  4.357787137382908E-002
  2.178893568691454E-002  0.000000000000000E+000  8.715574274765817E-002
  6.536680706074363E-002  4.357787137382908E-002  2.178893568691454E-002
  0.000000000000000E+000  8.715574274765817E-002  6.536680706074363E-002
  4.357787137382908E-002  2.178893568691454E-002  0.000000000000000E+000
  8.715574274765817E-002  6.536680706074363E-002  4.357787137382908E-002
  2.178893568691454E-002  0.000000000000000E+000  8.715574274765817E-002
  6.536680706074363E-002  4.357787137382908E-002  2.178893568691454E-002
  0.000000000000000E+000
  0.715534010068167       0.960686432907665        1.09206541514362     
   1.15992155947654        1.02902362604017        1.44281014942758     
   1.67600503107833        1.79693172156321        1.18824596061240     
   1.68493749966063        1.97418010574614        2.12749333052450     
   1.25582721463284        1.78482066725876        2.09486226921000     
   2.25965820257696        1.28210147223070        1.82290127882337     
   2.14008628877922        2.30844568533682        1.29173394947307     
   1.83668966986677        2.15627077116130        2.32571392162411     
   1.29417479470397        1.84016301795162        2.16032487880067     
   2.33001647429819        1.29173394947307        1.83668966986677     
   2.15627077116130        2.32571392162411        1.28210147223070     
   1.82290127882337        2.14008628877922        2.30844568533682     
   1.25582721463284        1.78482066725876        2.09486226921000     
   2.25965820257696        1.18824596061240        1.68493749966063     
   1.97418010574614        2.12749333052450        1.02902362604017     
   1.44281014942758        1.67600503107833        1.79693172156321     
  0.715534010068168       0.960686432907665        1.09206541514362     
   1.15992155947654     
 Zone I=   21 J=   14 K=1  T="NearWake"
 DATAPACKING=BLOCK
 VARLOCATION=([4]=CELLCENTERED)
  -4.92528539764312       -4.67528539764312       -4.42477288086604     
  -4.17428787196843       -3.92382820126979       -3.67339011846224     
  -3.42303495768760       -3.17275262945750       -2.92259004137929     
  -2.67256660239428       -2.42273165297742       -2.17313519116531     
  -1.92385059649696       -1.67496843747765       -1.42660510830797     
  -1.17889386345492      -0.931950833060793      -0.685722594795715     
 -0.439516900997527      -0.184018005090601       4.623443606902862E-002
  -4.92528539764312       -4.67528539764312       -4.42569943032634     
  -4.17549518211426       -3.92545871840343       -3.67527083774885     
  -3.42515617347584       -3.17502192285214       -2.92495045915433     
  -2.67491977750227       -2.42496930863580       -2.17510072495157     
  -1.92533337552713       -1.67565699214566       -1.42602510496041     
  -1.17626061676753      -0.925836000379971      -0.673085535394554     
 -0.411738630633950      -0.105114031513051       4.488408158782554E-002
  -4.92528539764312       -4.67528539764312       -4.42634738798319     
  -4.17668603704483       -3.92725187954415       -3.67760103047184     
  -3.42800578282712       -3.17833815099025       -2.92868674363792     
  -2.67900956196188       -2.42933188394148       -2.17962509918341     
  -1.92986629022078       -1.67997521116947       -1.42979133143101     
  -1.17893740143727      -0.926497364000649      -0.669920635861556     
 -0.400638624436527      -5.951525056604346E-002  1.624709671892537E-002
  -4.92528539764312       -4.67528539764312       -4.42634431100124     
  -4.17666793600810       -3.92721906232174       -3.67754176748915     
  -3.42791451155489       -3.17819627951469       -2.92847610038168     
  -2.67870010636906       -2.42888777796247       -2.17899733775612     
  -1.92899401922080       -1.67878090310072       -1.42817921572712     
  -1.17678619811934      -0.923641444622323      -0.666079766541481     
 -0.395173488899639      -4.816236428187031E-002  7.953445262202867E-003
  -4.92528539764312       -4.67528539764312       -4.42633050789147     
  -4.17662933171145       -3.92715472143047       -3.67744325312834     
  -3.42778179474450       -3.17802333989823       -2.92826141166423     
  -2.67843919131631       -2.42857839985697       -2.17863644253380     
  -1.92857995450744       -1.67831202028601       -1.42765378353761     
  -1.17619939698241      -0.922979214563279      -0.665302018661213     
 -0.394160294081622      -4.606610420489414E-002  5.630730459366148E-003
  -4.92528539764312       -4.67528539764312       -4.42632417078229     
  -4.17661097627043       -3.92712564164030       -3.67739966971529     
  -3.42772529684647       -3.17795250961126       -2.92817751339106     
  -2.67834231609824       -2.42846978901123       -2.17851694012440     
  -1.92845072431781       -1.67817380801754       -1.42750679531776     
  -1.17604241324227      -0.922808205769666      -0.665106468946954     
 -0.393910812103252      -4.556677451628355E-002  5.045162932046709E-003
  -4.92528539764312       -4.67528539764312       -4.42632227528145     
  -4.17660490862640       -3.92711636113636       -3.67738581890830     
  -3.42770770931031       -3.17793079155152       -2.92815224373839     
  -2.67831359850802       -2.42843807052493       -2.17848247111880     
  -1.92841379540718       -1.67813452483139       -1.42746506627828     
  -1.17599772949811      -0.922759307222610      -0.665050405940705     
 -0.393839695578791      -4.542691691750256E-002  4.895197338891313E-003
  -4.92528539764312       -4.67528539764312       -4.42632227528145     
  -4.17660490862640       -3.92711636113636       -3.67738581890830     
  -3.42770770931031       -3.17793079155152       -2.92815224373839     
  -2.67831359850802       -2.42843807052493       -2.17848247111880     
  -1.92841379540718       -1.67813452483139       -1.42746506627828     
  -1.17599772949811      -0.922759307222610      -0.665050405940705     
 -0.393839695578791      -4.542691691750276E-002  4.895197338891336E-003
  -4.92528539764312       -4.67528539764312       -4.42632417078229     
  -4.17661097627043       -3.92712564164030       -3.67739966971529     
  -3.42772529684647       -3.17795250961126       -2.92817751339106     
  -2.67834231609824       -2.42846978901123       -2.17851694012440     
  -1.92845072431781       -1.67817380801754       -1.42750679531776     
  -1.17604241324227      -0.922808205769666      -0.665106468946954     
 -0.393910812103252      -4.556677451628354E-002  5.045162932046680E-003
  -4.92528539764312       -4.67528539764312       -4.42633050789147     
  -4.17662933171145       -3.92715472143047       -3.67744325312834     
  -3.42778179474450       -3.17802333989823       -2.92826141166423     
  -2.67843919131631       -2.42857839985697       -2.17863644253380     
  -1.92857995450744       -1.67831202028601       -1.42765378353761     
  -1.17619939698241      -0.922979214563279      -0.665302018661213     
 -0.394160294081622      -4.606610420489420E-002  5.630730459366113E-003
  -4.92528539764312       -4.67528539764312       -4.42634431100124     
  -4.17666793600810       -3.92721906232174       -3.67754176748915     
  -3.42791451155489       -3.17819627951469       -2.92847610038168     
  -2.67870010636906       -2.42888777796247       -2.17899733775612     
  -1.92899401922080       -1.67878090310072       -1.42817921572712     
  -1.17678619811934      -0.923641444622323      -0.666079766541480     
 -0.395173488899639      -4.816236428187052E-002  7.953445262202787E-003
  -4.92528539764312       -4.67528539764312       -4.42634738798319     
  -4.17668603704483       -3.92725187954415       -3.67760103047184     
  -3.42800578282712       -3.17833815099025       -2.92868674363792     
  -2.67900956196188       -2.42933188394148       -2.17962509918341     
  -1.92986629022078       -1.67997521116947       -1.42979133143101     
  -1.17893740143727      -0.926497364000649      -0.669920635861556     
 -0.400638624436526      -5.951525056604352E-002  1.624709671892510E-002
  -4.92528539764312       -4.67528539764312       -4.42569943032634     
  -4.17549518211426       -3.92545871840343       -3.67527083774885     
  -3.42515617347584       -3.17502192285214       -2.92495045915433     
  -2.67491977750227       -2.42496930863580       -2.17510072495157     
  -1.92533337552713       -1.67565699214566       -1.42602510496041     
  -1.17626061676753      -0.925836000379971      -0.673085535394553     
 -0.411738630633950      -0.105114031513052       4.488408158782469E-002
  -4.92528539764312       -4.67528539764312       -4.42477288086604     
  -4.17428787196843       -3.92382820126979       -3.67339011846224     
  -3.42303495768760       -3.17275262945750       -2.92259004137929     
  -2.67256660239428       -2.42273165297742       -2.17313519116531     
  -1.92385059649696       -1.67496843747765       -1.42660510830797     
  -1.17889386345492      -0.931950833060793      -0.685722594795715     
 -0.439516900997528      -0.184018005090601       4.623443606902952E-002
  0.000000000000000E+000  0.000000000000000E+000  5.670497287556849E-004
  2.096405701757513E-003  3.938826001415236E-003  6.523629078250100E-003
  9.520153309674456E-003  1.301241885136174E-002  1.682390373224121E-002
  2.088686498897246E-002  2.504375699039905E-002  2.914274669326017E-002
  3.298217013835412E-002  3.632719103529666E-002  3.889185449756272E-002
  4.035493459836040E-002  4.044607789745977E-002  3.913775569342626E-002
  3.867403714367185E-002  2.334761199606359E-002  3.200382553310175E-002
  0.290581825739480       0.290581825739480       0.291205152657302     
  0.287892984191509       0.285464705609524       0.280485070056940     
  0.275245856235546       0.268654043424312       0.261509592690752     
  0.253650283758111       0.245456107925789       0.237090544681876     
  0.228901412207113       0.221257119331916       0.214683998578613     
  0.209914539156231       0.208110299442707       0.211447639659527     
  0.224927033582501       0.247404559686141       0.307649931607753     
   1.14543974346790        1.14543974346790        1.14568041319037     
   1.14541574804790        1.14554804846415        1.14537351506782     
   1.14531268185511        1.14514437410881        1.14499524988984     
   1.14481085808282        1.14463654541125        1.14447290686349     
   1.14435275298221        1.14430474974114        1.14437566655912     
   1.14462180233367        1.14512129947740        1.14602025057216     
   1.14762053965869        1.14844233265979        1.15316817291157     
   2.51489251828899        2.51489251828899        2.51498524648081     
   2.51491569855129        2.51499148421610        2.51497733775401     
   2.51501096677152        2.51502228881349        2.51504966986345     
   2.51507552154453        2.51511085246025        2.51515224494121     
   2.51520323557744        2.51526349022699        2.51533420767777     
   2.51541606147019        2.51551310315670        2.51564394309788     
   2.51585361346131        2.51572560123359        2.51686240155635     
   4.31935253268844        4.31935253268844        4.31939080403135     
   4.31937123438284        4.31940342386335        4.31940538014175     
   4.31942373829683        4.31943500555223        4.31945109669645     
   4.31946590320463        4.31948209979043        4.31949792116300     
   4.31951365012009        4.31952855003336        4.31954248960327     
   4.31955541707352        4.31956823676280        4.31958496558675     
   4.31961480634569        4.31955489342173        4.31988630617890     
   6.45395112957464        6.45395112957464        6.45396621533932     
   6.45396047187959        6.45397260254663        6.45397416924550     
   6.45398098217072        6.45398515156934        6.45399053623236     
   6.45399513125041        6.45399975986954        6.45400387045738     
   6.45400757061161        6.45401068382075        6.45401323667593     
   6.45401528896805        6.45401716948403        6.45402006513627     
   6.45402662490862        6.45400622561985        6.45412143075346     
   8.79463319744677        8.79463319744677        8.79463715783742     
   8.79463584098023        8.79463891490974        8.79463934689545     
   8.79464101012549        8.79464198859668        8.79464321437115     
   8.79464421242672        8.79464518439575        8.79464600846845     
   8.79464671950110        8.79464728697417        8.79464772772176     
   8.79464806526047        8.79464838338635        8.79464896355015     
   8.79465043427322        8.79464557890734        8.79467478194450     
   11.2053668025532        11.2053668025532        11.2053628421626     
   11.2053641590198        11.2053610850903        11.2053606531045     
   11.2053589898745        11.2053580114033        11.2053567856288     
   11.2053557875733        11.2053548156042        11.2053539915315     
   11.2053532804989        11.2053527130258        11.2053522722782     
   11.2053519347395        11.2053516166136        11.2053510364499     
   11.2053495657268        11.2053544210927        11.2053252180555     
   13.5460488704254        13.5460488704254        13.5460337846607     
   13.5460395281204        13.5460273974534        13.5460258307545     
   13.5460190178293        13.5460148484307        13.5460094637676     
   13.5460048687496        13.5460002401305        13.5459961295426     
   13.5459924293884        13.5459893161792        13.5459867633241     
   13.5459847110319        13.5459828305160        13.5459799348637     
   13.5459733750914        13.5459937743802        13.5458785692465     
   15.6806474673116        15.6806474673116        15.6806091959686     
   15.6806287656172        15.6805965761367        15.6805946198582     
   15.6805762617032        15.6805649944478        15.6805489033035     
   15.6805340967954        15.6805179002096        15.6805020788370     
   15.6804863498799        15.6804714499666        15.6804575103967     
   15.6804445829265        15.6804317632372        15.6804150344133     
   15.6803851936543        15.6804451065783        15.6801136938211     
   17.4851074817110        17.4851074817110        17.4850147535192     
   17.4850843014487        17.4850085157839        17.4850226622460     
   17.4849890332285        17.4849777111865        17.4849503301365     
   17.4849244784555        17.4848891475397        17.4848477550588     
   17.4847967644226        17.4847365097730        17.4846657923222     
   17.4845839385298        17.4844868968433        17.4843560569021     
   17.4841463865387        17.4842743987664        17.4831375984437     
   18.8545602565321        18.8545602565321        18.8543195868096     
   18.8545842519521        18.8544519515358        18.8546264849322     
   18.8546873181449        18.8548556258912        18.8550047501102     
   18.8551891419172        18.8553634545887        18.8555270931365     
   18.8556472470178        18.8556952502589        18.8556243334409     
   18.8553781976663        18.8548787005226        18.8539797494278     
   18.8523794603413        18.8515576673402        18.8468318270884     
   19.7094181742605        19.7094181742605        19.7087948473427     
   19.7121070158085        19.7145352943905        19.7195149299431     
   19.7247541437645        19.7313459565757        19.7384904073092     
   19.7463497162419        19.7545438920742        19.7629094553181     
   19.7710985877929        19.7787428806681        19.7853160014214     
   19.7900854608438        19.7918897005573        19.7885523603405     
   19.7750729664175        19.7525954403139        19.6923500683922     
   20.0000000000000        20.0000000000000        19.9994329502712     
   19.9979035942982        19.9960611739986        19.9934763709217     
   19.9904798466903        19.9869875811486        19.9831760962678     
   19.9791131350110        19.9749562430096        19.9708572533067     
   19.9670178298616        19.9636728089647        19.9611081455024     
   19.9596450654016        19.9595539221025        19.9608622443066     
   19.9613259628563        19.9766523880039        19.9679961744669     
 -6.536680706074363E-003 -6.536680706074363E-003  8.768592983325538E-004
  5.260855990724820E-003  1.128472867820959E-002  1.629381540807079E-002
  2.134296535225225E-002  2.567992611565537E-002  2.947196030688995E-002
  3.243877023210580E-002  3.452223043384996E-002  3.554859336533079E-002
  3.538348065273842E-002  3.384416315506818E-002  3.072173443061452E-002
  2.574338837120756E-002  1.855807266226950E-002  8.545966354691667E-003
 -6.812060455275083E-003 -2.602055975142013E-002  5.400925716607643E-002
 -6.536680706074363E-003 -6.536680706074363E-003 -3.614938682984119E-002
 -4.923578086271253E-002 -6.951545916977886E-002 -8.501356504359193E-002
 -0.101949257161122      -0.117086211487332      -0.132116269328142     
 -0.146151590818997      -0.159677917106511      -0.172490959461623     
 -0.184783216746117      -0.196576116418777      -0.208004400420206     
 -0.219105828542284      -0.229763981568660      -0.239046911975386     
 -0.243442102648325      -0.220208333226251      -1.931549649652074E-002
 -6.536680706074363E-003 -6.536680706074363E-003 -2.754690901481884E-002
 -3.595025330585872E-002 -4.945578479419419E-002 -5.964930581365471E-002
 -7.102011641228313E-002 -8.150667794245908E-002 -9.228630385505851E-002
 -0.102889236313909      -0.113662163498202      -0.124540362764799     
 -0.135669038278666      -0.147090297547364      -0.158885617510028     
 -0.171045352900664      -0.183326643380812      -0.194575543792878     
 -0.199784877506132      -0.174619014801909       4.866840659755558E-002
 -6.536680706074363E-003 -6.536680706074363E-003 -2.598617861193887E-002
 -3.314765837392614E-002 -4.499976913283156E-002 -5.359806223468681E-002
 -6.328419707292947E-002 -7.213218109059191E-002 -8.130517753938885E-002
 -9.038566642584941E-002 -9.973562639359025E-002 -0.109319037131734     
 -0.119297253821380      -0.129723135319387      -0.140670049259139     
 -0.152088586331048      -0.163637151694344      -0.173957939734785     
 -0.177574503671141      -0.147783233138349       7.581176135199846E-002
 -6.536680706074363E-003 -6.536680706074363E-003 -2.548005489675528E-002
 -3.220152629228878E-002 -4.347137000008600E-002 -5.148482702001609E-002
 -6.054592541939469E-002 -6.876862332898111E-002 -7.731497889874664E-002
 -8.578204187531248E-002 -9.453599052690420E-002 -0.103546562537109     
 -0.112976997848756      -0.122880404660089      -0.133328034603112     
 -0.144266783711939      -0.155350187773277      -0.165213634101250     
 -0.168353526213605      -0.137581505391202       8.576677982335948E-002
 -6.536680706074363E-003 -6.536680706074363E-003 -2.529671384512700E-002
 -3.185840593109066E-002 -4.291692143258825E-002 -5.071695414872238E-002
 -5.954858936876005E-002 -6.753944697429341E-002 -7.585087017963883E-002
 -8.408490023520318E-002 -9.260941792235242E-002 -0.101396872808726     
 -0.110612504766509      -0.120311616568184      -0.130567634774984     
 -0.141329739181378      -0.152253592993721      -0.161975627935200     
 -0.164986676992819      -0.133970424180571       8.930621764731990E-002
 -6.536680706074363E-003 -6.536680706074363E-003 -2.523357888598789E-002
 -3.174132726195131E-002 -4.272844956191292E-002 -5.045686401584928E-002
 -5.921156214130373E-002 -6.712487126949883E-002 -7.535779546411726E-002
 -8.351411292924624E-002 -9.196231228991365E-002 -0.100675846419436     
 -0.109820712246846      -0.119453023092828      -0.129646949264531     
 -0.140352359716742      -0.151225435331523      -0.160902654255073     
 -0.163872874404129      -0.132784739202269       9.047718763406624E-002
 -6.536680706074363E-003 -6.536680706074363E-003 -2.523357888598781E-002
 -3.174132726195138E-002 -4.272844956191301E-002 -5.045686401584925E-002
 -5.921156214130380E-002 -6.712487126949881E-002 -7.535779546411724E-002
 -8.351411292924638E-002 -9.196231228991375E-002 -0.100675846419436     
 -0.109820712246845      -0.119453023092828      -0.129646949264531     
 -0.140352359716742      -0.151225435331523      -0.160902654255073     
 -0.163872874404129      -0.132784739202269       9.047718763406630E-002
 -6.536680706074363E-003 -6.536680706074363E-003 -2.529671384512701E-002
 -3.185840593109068E-002 -4.291692143258835E-002 -5.071695414872238E-002
 -5.954858936876001E-002 -6.753944697429348E-002 -7.585087017963894E-002
 -8.408490023520314E-002 -9.260941792235237E-002 -0.101396872808726     
 -0.110612504766509      -0.120311616568183      -0.130567634774984     
 -0.141329739181378      -0.152253592993722      -0.161975627935200     
 -0.164986676992819      -0.133970424180571       8.930621764731991E-002
 -6.536680706074363E-003 -6.536680706074363E-003 -2.548005489675530E-002
 -3.220152629228877E-002 -4.347137000008598E-002 -5.148482702001601E-002
 -6.054592541939459E-002 -6.876862332898138E-002 -7.731497889874685E-002
 -8.578204187531234E-002 -9.453599052690416E-002 -0.103546562537109     
 -0.112976997848756      -0.122880404660089      -0.133328034603112     
 -0.144266783711939      -0.155350187773277      -0.165213634101250     
 -0.168353526213605      -0.137581505391202       8.576677982335953E-002
 -6.536680706074363E-003 -6.536680706074363E-003 -2.598617861193890E-002
 -3.314765837392616E-002 -4.499976913283155E-002 -5.359806223468682E-002
 -6.328419707292959E-002 -7.213218109059213E-002 -8.130517753938896E-002
 -9.038566642584933E-002 -9.973562639359035E-002 -0.109319037131734     
 -0.119297253821380      -0.129723135319387      -0.140670049259140     
 -0.152088586331049      -0.163637151694345      -0.173957939734786     
 -0.177574503671141      -0.147783233138349       7.581176135199863E-002
 -6.536680706074363E-003 -6.536680706074363E-003 -2.754690901481885E-002
 -3.595025330585869E-002 -4.945578479419422E-002 -5.964930581365477E-002
 -7.102011641228312E-002 -8.150667794245905E-002 -9.228630385505847E-002
 -0.102889236313909      -0.113662163498202      -0.124540362764798     
 -0.135669038278666      -0.147090297547363      -0.158885617510028     
 -0.171045352900664      -0.183326643380813      -0.194575543792878     
 -0.199784877506132      -0.174619014801909       4.866840659755585E-002
 -6.536680706074363E-003 -6.536680706074363E-003 -3.614938682984128E-002
 -4.923578086271260E-002 -6.951545916977912E-002 -8.501356504359209E-002
 -0.101949257161121      -0.117086211487332      -0.132116269328142     
 -0.146151590818996      -0.159677917106511      -0.172490959461622     
 -0.184783216746116      -0.196576116418777      -0.208004400420206     
 -0.219105828542285      -0.229763981568661      -0.239046911975386     
 -0.243442102648326      -0.220208333226252      -1.931549649652028E-002
 -6.536680706074363E-003 -6.536680706074363E-003  8.768592983326023E-004
  5.260855990724852E-003  1.128472867820963E-002  1.629381540807100E-002
  2.134296535225215E-002  2.567992611565512E-002  2.947196030688984E-002
  3.243877023210561E-002  3.452223043384969E-002  3.554859336533058E-002
  3.538348065273801E-002  3.384416315506795E-002  3.072173443061455E-002
  2.574338837120780E-002  1.855807266226994E-002  8.545966354692710E-003
 -6.812060455275065E-003 -2.602055975142040E-002  5.400925716607679E-002
   1.15992155947654        1.15477079497862        1.14907788096641     
   1.14276104921375        1.13572176412294        1.12784020016942     
   1.11896915097763        1.10892567638957        1.09747943126000     
   1.08433596959880        1.06911226722641        1.05129973883409     
   1.03020640715806        1.00486259147205       0.973858434038998     
  0.935043765751740       0.884911471366558       0.817122145994892     
  0.717952076931788       0.545687230928579        1.79693172156321     
   1.78819327467980        1.77851323084742        1.76774687130842     
   1.75571938109035        1.74221765493717        1.72697924614805     
   1.70967718973379        1.68989876312098        1.66711504942870     
   1.64063624387196        1.60954396139755        1.57258527955507     
   1.52799981794014        1.47322374154820        1.40435192360063     
   1.31507668024105        1.19436106594707        1.02014754055350     
  0.735561100336828        2.12749333052450        2.11514701900939     
   2.10144228339342        2.08617081947623        2.06908215631870     
   2.04987278178874        2.02817178256332        2.00352160552806     
   1.97535191638772        1.94294337235398        1.90537647195558     
   1.86145722279845        1.80960608475144        1.74768437980462     
   1.67270957966126        1.58035263084665        1.46395879974757     
   1.31238267385890        1.10391394579400       0.782326100572016     
   2.25965820257696        2.24430956283638        2.22731385359648     
   2.20843305002443        2.18738471869599        2.16383148377253     
   2.13736731139958        2.10749934788512        2.07362347682979     
   2.03499061728117        1.99065925364340        1.93942615290331     
   1.87972219649234        1.80944735323888        1.72569643953580     
   1.62426711239531        1.49868926620788        1.33806052524169     