 Title = "Wing and Wake"
 VARIABLES = "X" "Y" "Z" "GAM"
 Zone I=    5 J=   14 K=1  T="Blade"
 DATAPACKING=BLOCK
 VARLOCATION=([4]=CELLCENTERED)
  -13.7461946980917       -13.4971460235688       -13.2480973490459     
  -12.9990486745229       -12.7500000000000       -13.7461946980917     
  -13.4971460235688       -13.2480973490459       -12.9990486745229     
  -12.7500000000000       -13.7461946980917       -13.4971460235688     
  -13.2480973490459       -12.9990486745229       -12.7500000000000     
  -13.7461946980917       -13.4971460235688       -13.2480973490459     
  -12.9990486745229       -12.7500000000000       -13.7461946980917     
  -13.4971460235688       -13.2480973490459       -12.9990486745229     
  -12.7500000000000       -13.7461946980917       -13.4971460235688     
  -13.2480973490459       -12.9990486745229       -12.7500000000000     
  -13.7461946980917       -13.4971460235688       -13.2480973490459     
  -12.9990486745229       -12.7500000000000       -13.7461946980917     
  -13.4971460235688       -13.2480973490459       -12.9990486745229     
  -12.7500000000000       -13.7461946980917       -13.4971460235688     
  -13.2480973490459       -12.9990486745229       -12.7500000000000     
  -13.7461946980917       -13.4971460235688       -13.2480973490459     
  -12.9990486745229       -12.7500000000000       -13.7461946980917     
  -13.4971460235688       -13.2480973490459       -12.9990486745229     
  -12.7500000000000       -13.7461946980917       -13.4971460235688     
  -13.2480973490459       -12.9990486745229       -12.7500000000000     
  -13.7461946980917       -13.4971460235688       -13.2480973490459     
  -12.9990486745229       -12.7500000000000       -13.7461946980917     
  -13.4971460235688       -13.2480973490459       -12.9990486745229     
  -12.7500000000000     
  0.000000000000000E+000  0.000000000000000E+000  0.000000000000000E+000
  0.000000000000000E+000  0.000000000000000E+000  0.290581825739480     
  0.290581825739480       0.290581825739480       0.290581825739480     
  0.290581825739480        1.14543974346790        1.14543974346790     
   1.14543974346790        1.14543974346790        1.14543974346790     
   2.51489251828899        2.51489251828899        2.51489251828899     
   2.51489251828899        2.51489251828899        4.31935253268844     
   4.31935253268844        4.31935253268844        4.31935253268844     
   4.31935253268844        6.45395112957464        6.45395112957464     
   6.45395112957464        6.45395112957464        6.45395112957464     
   8.79463319744677        8.79463319744677        8.79463319744677     
   8.79463319744677        8.79463319744677        11.2053668025532     
   11.2053668025532        11.2053668025532        11.2053668025532     
   11.2053668025532        13.5460488704254        13.5460488704254     
   13.5460488704254        13.5460488704254        13.5460488704254     
   15.6806474673116        15.6806474673116        15.6806474673116     
   15.6806474673116        15.6806474673116        17.4851074817110     
   17.4851074817110        17.4851074817110        17.4851074817110     
   17.4851074817110        18.8545602565321        18.8545602565321     
   18.8545602565321        18.8545602565321        18.8545602565321     
   19.7094181742605        19.7094181742605        19.7094181742605     
   19.7094181742605        19.7094181742605        20.0000000000000     
   20.0000000000000        20.0000000000000        20.0000000000000     
   20.0000000000000     
  8.715574274765817E-002  6.536680706074363E-002  4.357787137382908E-002
  2.178893568691454E-002  0.000000000000000E+000  8.715574274765817E-002
  6.536680706074363E-002  4.357787137382908E-002  2.178893568691454E-002
  0.000000000000000E+000  8.715574274765817E-002  6.536680706074363E-002
  4.357787137382908E-002  2.178893568691454E-002  0.000000000000000E+000
  8.715574274765817E-002  6.536680706074363E-002  4.357787137382908E-002
  2.178893568691454E-002  0.000000000000000E+000  8.715574274765817E-002
  6.536680706074363E-002  4.357787137382908E-002  2.178893568691454E-002
  0.000000000000000E+000  8.715574274765817E-002  6.536680706074363E-002
  4.357787137382908E-002  2.178893568691454E-002  0.000000000000000E+000
  8.715574274765817E-002  6.536680706074363E-002  4.357787137382908E-002
  2.178893568691454E-002  0.000000000000000E+000  8.715574274765817E-002
  6.536680706074363E-002  4.357787137382908E-002  2.178893568691454E-002
  0.000000000000000E+000  8.715574274765817E-002  6.536680706074363E-002
  4.357787137382908E-002  2.178893568691454E-002  0.000000000000000E+000
  8.715574274765817E-002  6.536680706074363E-002  4.357787137382908E-002
  2.178893568691454E-002  0.000000000000000E+000  8.715574274765817E-002
  6.536680706074363E-002  4.357787137382908E-002  2.178893568691454E-002
  0.000000000000000E+000  8.715574274765817E-002  6.536680706074363E-002
  4.357787137382908E-002  2.178893568691454E-002  0.000000000000000E+000
  8.715574274765817E-002  6.536680706074363E-002  4.357787137382908E-002
  2.178893568691454E-002  0.000000000000000E+000  8.715574274765817E-002
  6.536680706074363E-002  4.357787137382908E-002  2.178893568691454E-002
  0.000000000000000E+000
  0.755778195358065        1.01791983481208        1.16082974213246     
   1.23706959215630        1.09186941407130        1.53524513316530     
   1.78890301526866        1.92452096783549        1.27209287158711     
   1.80933995450143        2.12718997303319        2.30127121116153     
   1.35873709733390        1.93779929007265        2.28331919314809     
   2.47393724120551        1.39983546438571        1.99787935934748     
   2.35554792086468        2.55324457838642        1.41826270460336     
   2.02461238629243        2.38748188494308        2.58814376718617     
   1.42333463956387        2.03193586577134        2.39619469227554     
   2.59763737569425        1.41775408968397        2.02384819323720     
   2.38654123065603        2.58709496638263        1.39934712838452     
   1.99711766999751        2.35457866775382        2.55213280923541     
   1.35893511378906        1.93801506387281        2.28349331641371     
   2.47404251421997        1.27319601588513        1.81085951254057     
   2.12890978869330        2.30304610097455        1.09345536759994     
   1.53744039887352        1.79141396137413        1.92715335153572     
  0.757067979537046        1.01962359229100        1.16274399685261     
   1.23907415517151     
 Zone I=   31 J=   14 K=1  T="NearWake"
 DATAPACKING=BLOCK
 VARLOCATION=([4]=CELLCENTERED)
  -12.6752853976431       -12.4252853976431       -12.1749693528137     
  -11.9244221448782       -11.6738028049114       -11.4231670364204     
  -11.1725320772154       -10.9219032508166       -10.6712883740250     
  -10.4206798744470       -10.1701052219166       -9.91951375034199     
  -9.66901600449935       -9.41842636840149       -9.16805836447451     
  -8.91744025389187       -8.66733084499318       -8.41650081294630     
  -8.16696392149363       -7.91574401843533       -7.66626675859015     
  -7.41662478948290       -7.16028568332730       -6.91400647193546     
  -6.66267380204534       -6.41270552689968       -6.16267073022168     
  -5.91255371088072       -5.66269346829750       -5.41286466416864     
  -5.16323605857889       -12.6752853976431       -12.4252853976431     
  -12.1754966974116       -11.9253458566730       -11.6750377665198     
  -11.4246475109338       -11.1742068835914       -10.9237329205295     
  -10.6732361283719       -10.4227257563753       -10.1722017882661     
  -9.92168757890075       -9.67113088038307       -9.42069892709970     
  -9.16994943133649       -8.91999315501171       -8.66837419333909     
  -8.41990723574049       -8.16630763387190       -7.91978078469777     
  -7.66452014883586       -7.41818358551202       -7.16304717707605     
  -6.91552827794415       -6.66477959445004       -6.41436052380887     
  -6.16415691732585       -5.91376680284216       -5.66352512727016     
  -5.41327689416799       -5.16317343645350       -12.6752853976431     
  -12.4252853976431       -12.1759377930331       -11.9264449054915     
  -11.6768500582658       -11.4271802937706       -11.1774534579479     
  -10.9276818009057       -10.6778744835328       -10.4280377829759     
  -10.1781773038274       -9.92829658302186       -9.67839920635435     
  -9.42848924795999       -9.17856397185005       -8.92864019995954     
  -8.67868235398593       -8.42877572509298       -8.17873145950074     
  -7.92894702649709       -7.67864283102346       -7.42891232268633     
  -7.17919423593354       -6.92927217297439       -6.67931190789431     
  -6.42939727408778       -6.17948855813152       -5.92961443402774     
  -5.67974858547084       -5.42990788232329       -5.18007780673958     
  -12.6752853976431       -12.4252853976431       -12.1759531684453     
  -11.9264730314016       -11.6768924813659       -11.4272408612103     
  -11.1775369015497       -10.9277928954734       -10.6780177773741     
  -10.4282174666219       -10.1783972376449       -9.92856014154912     
  -9.67870928782554       -9.42884820038060       -9.17897316857236     
  -8.92910186594857       -8.67919500738955       -8.42934536008489     
  -8.17935712281381       -7.92962297628881       -7.67939133938029     
  -7.42975308747469       -7.18001505391726       -6.93013812700835     
  -6.68020912330731       -6.43035199834080       -6.18043865567826     
  -5.93056872820487       -5.68067645064529       -5.43080060047596     
  -5.18091556617116       -12.6752853976431       -12.4252853976431     
  -12.1759559009327       -11.9264703674495       -11.6768802381636     
  -11.4272171188477       -11.1775010578739       -10.9277450993870     
  -10.6779585481977       -10.4281475207196       -10.1783172091596     
  -9.92847083018589       -9.67861083897393       -9.42874176543964     
  -9.17885715920113       -8.92897978054379       -8.67905871806375     
  -8.42920919976580       -8.17918773464418       -7.92947785056802     
  -7.67915119263637       -7.42966440194277       -7.17975035463859     
  -6.92991702655190       -6.67992862564881       -6.43007180838723     
  -6.18012219004912       -5.93023180662224       -5.68030577672516     
  -5.43039816988450       -5.18047498908609       -12.6752853976431     
  -12.4252853976431       -12.1759583748228       -11.9264707053135     
  -11.6768757632231       -11.4272062559443       -11.1774828944766     
  -10.9277191489333       -10.6779245594063       -10.4281054555258     
  -10.1782669873632       -9.92841267147621       -9.67854439164797     
  -9.42866777144291       -9.17877400020258       -8.92889022079019     
  -8.67895655064231       -8.42910519325259       -8.17905861742083     
  -7.92936705634027       -7.67896295764016       -7.42960411954812     
  -7.17955226958731       -6.92976073007213       -6.67973306316334     
  -6.42987900053273       -6.17990924242600       -5.93000998966566     
  -5.68006835154446       -5.43014772350366       -5.18020918840598     
  -12.6752853976431       -12.4252853976431       -12.1759597385473     
  -11.9264715455832       -11.6768749598588       -11.4272031165586     
  -11.1774769811617       -10.9277101906478       -10.6779123723197     
  -10.4280899530581       -10.1782480473303       -9.92839033951143     
  -9.67851840563784       -9.42863846678486       -9.17874048582559     
  -8.92885386971926       -8.67891424264403       -8.42906221889431     
  -8.17900355263511       -7.92932154136210       -7.67887683778776     
  -7.42958630574791       -7.17946341171554       -6.92969443704944     
  -6.67964901162351       -6.42979737536417       -6.17981950825172     
  -5.92991745594736       -5.67997026019598       -5.43004547533114     
  -5.18010209226436       -12.6752853976431       -12.4252853976431     
  -12.1759596558954       -11.9264714896893       -11.6768750048157     
  -11.4272033188712       -11.1774773868179       -10.9277108371119     
  -10.6779132909583       -10.4280911656454       -10.1782495726764     
  -9.92839217652640       -9.67852056317635       -9.42864089935773     
  -9.17874320824331       -8.92885673988252       -8.67891733202202     
  -8.42906519308906       -8.17900660429955       -7.92932417649519     
  -7.67887874891891       -7.42958693471775       -7.17946425730092     
  -6.92969488195741       -6.67964912058075       -6.42979704145387     
  -6.17981866732340       -5.92991601370440       -5.67996811537682     
  -5.43004250763131       -5.18009815189349       -12.6752853976431     
  -12.4252853976431       -12.1759581905334       -11.9264705705114     
  -11.6768758508320       -11.4272067070211       -11.1774838318237     
  -10.9277206807072       -10.6779267840917       -10.4281084539540     
  -10.1782708372857       -9.92841740909498       -9.67855007886943     
  -9.42867434838677       -9.17878154746306       -8.92889845674289     
  -8.67896568810956       -8.42911449666491       -8.17906857504454     
  -7.92937653903412       -7.67897118365431       -7.42960945423874     
  -7.17955887720683       -6.92976702799455       -6.67973921580021     
  -6.42988475124736       -6.17991441880660       -5.93001431182634     
  -5.68007148159815       -5.43014921666002       -5.18020843191255     
  -12.6752853976431       -12.4252853976431       -12.1759557343120     
  -11.9264701506383       -11.6768801009510       -11.4272171896845     
  -11.1775014661934       -10.9277459753691       -10.6779600250613     
  -10.4281497285895       -10.1783202855352       -9.92847489127386     
  -9.67861603140924       -9.42874815126265       -9.17886492531217     
  -8.92898883120399       -8.67906938149288       -8.42922102065033     
  -8.17920132337473       -7.92949241050217       -7.67916604824026     
  -7.42967755568978       -7.17976729264034       -6.92993636072662     
  -6.67995095018347       -6.43009740060291       -6.18015146212801     
  -5.93026502308833       -5.68034309345367       -5.43043945030721     
  -5.18051954185871       -12.6752853976431       -12.4252853976431     
  -12.1759531095005       -11.9264726920814       -11.6768917904287     
  -11.4272398033471       -11.1775354950169       -10.9277911829879     
  -10.6780158195802       -10.4282153409537       -10.1783950308483     
  -9.92855795603202       -9.67870722507287       -9.42884638392023     
  -9.17897170604475       -8.92910090048843       -8.67919465772003     
  -8.42934578030251       -8.17935850774513       -7.92962544759362     
  -7.67939451583410       -7.42975624982376       -7.18002113081969     
  -6.93014761404217       -6.68022308249553       -6.43037250034121     
  -6.18046866521704       -5.93061214080774       -5.68073859339293     
  -5.43088798557651       -5.18103520997104       -12.6752853976431     
  -12.4252853976431       -12.1759378227683       -11.9264443528008     
  -11.6768485856263       -11.4271776896400       -11.1774495947049     
  -10.9276766079367       -10.6778679230366       -10.4280298493572     
  -10.1781679877207       -9.92828590705439       -9.67838712797974     
  -9.42847580961723       -9.17854901629270       -8.92862380155418     
  -8.67866415849323       -8.42875580412118       -8.17870939078169     
  -7.92892244367890       -7.67861524560344       -7.42888200896973     
  -7.17915681956265       -6.92922752675719       -6.67925705799358     
  -6.42933055673255       -6.17940833586020       -5.92951989860875     
  -5.67964264537255       -5.42980561573515       -5.18007600586148     
  -12.6752853976431       -12.4252853976431       -12.1754951695232     
  -11.9253407649789       -11.6750285958925       -11.4246342749374     
  -11.1741897862666       -10.9237122543349       -10.6732122208450     
  -10.4226989787496       -10.1721724486646       -9.92165610223570     
  -9.67109742090085       -9.42066390063594       -9.16991310591544     
  -8.91995476159653       -8.66833642264231       -8.41986389145458     
  -8.16627089700089       -7.91972919658803       -7.66448751790090     
  -7.41813690084616       -7.16301321286753       -6.91548166411718     
  -6.66473202995000       -6.41430996881906       -6.16410266502985     
  -5.91371357315419       -5.66347438379660       -5.41323462420026     
  -5.16313629281710       -12.6752853976431       -12.4252853976431     
  -12.1749694499026       -11.9244225406438       -11.6738038442696     
  -11.4231690929101       -11.1725355121916       -10.9219083971442     
  -10.6712955349098       -10.4206892977594       -10.1701171306013     
  -9.91952824402040       -9.66903320706678       -9.41844612543675     
  -9.16808059115566       -8.91746454574652       -8.66735612376769     
  -8.41652785653316       -8.16698670329753       -7.91576932412454     
  -7.66627602915530       -7.41663009119266       -7.16028146745905     
  -6.91399392813269       -6.66264834591354       -6.41266223597376     
  -6.16260124467485       -5.91244735651587       -5.66253349624497     
  -5.41262963256362       -5.16290177374431     
  0.000000000000000E+000  0.000000000000000E+000  3.784877875083915E-004
  1.477984895396657E-003  3.346398614661691E-003  5.982760291749172E-003
  9.372103600007536E-003  1.348298051039872E-002  1.828393124465803E-002
  2.371067885722800E-002  2.976297068264580E-002  3.625647702202341E-002
  4.341830282786872E-002  5.057962612901540E-002  5.881400637834647E-002
  6.614172777705223E-002  7.497771617775796E-002  8.350500943321106E-002
  9.035923316302094E-002  0.101043798117949       0.108942586143263     
  0.114800714063845       0.127205856057794       0.137042285184537     
  0.145159406619637       0.153770752709079       0.161434701830472     
  0.168930199342444       0.175627297187563       0.181645038622945     
  0.186408261429340       0.290581825739480       0.290581825739480     
  0.290948872169577       0.289528827633892       0.286637980539977     
  0.282289085924676       0.276539745494283       0.269475693317614     
  0.261132772320825       0.251719323679985       0.241006524644471     
  0.229889528599429       0.216709966068853       0.205188148334170     
  0.188801694728441       0.179009995376101       0.157150133199043     
  0.154901006792431       0.118056839106530       0.138961884512918     
  7.085351741676467E-002  0.117192946089588       5.736421326558920E-002
  5.651554828097748E-002  3.924721637307738E-002  2.273228814277285E-002
  1.015277265302767E-002 -4.009551950743654E-003 -1.560524172894025E-002
 -2.668153277149248E-002 -3.524623384909321E-002   1.14543974346790     
   1.14543974346790        1.14556893331680        1.14555425580035     
   1.14551324569872        1.14543007722481        1.14529926522093     
   1.14511935778408        1.14488468689998        1.14460114327038     
   1.14424966034865        1.14386644542589        1.14336966312124     
   1.14292686872207        1.14219005800066        1.14186548604508     
   1.14053402194470        1.14101357347803        1.13776584831984     
   1.14190363387665        1.13114562585077        1.14484583778862     
   1.12911682836613        1.13698833612726        1.13216230152047     
   1.13196987849508        1.13053934940988        1.12941552550035     
   1.12821959445191        1.12717009379438        1.12626011934462     
   2.51489251828899        2.51489251828899        2.51494332891391     
   2.51494675807328        2.51495119720678        2.51495216517242     
   2.51494838370969        2.51493970730352        2.51492466785129     
   2.51490550225605        2.51487640580412        2.51484947841552     
   2.51479820594356        2.51477906400281        2.51467253305365     
   2.51473023877438        2.51442677751143        2.51485605082582     
   2.51376186318253        2.51581042489468        2.51159448940251     
   2.51747155610212        2.51159894862615        2.51509537302914     
   2.51359421518170        2.51384185764325        2.51369746549170     
   2.51363629608571        2.51354310771713        2.51346578074854     
   2.51338775796159        4.31935253268844        4.31935253268844     
   4.31937441063787        4.31937630373033        4.31937930502388     
   4.31938186062022        4.31938359221156        4.31938453537702     
   4.31938424424673        4.31938363785403        4.31938060733941     
   4.31937971894331        4.31937108378557        4.31937588989836     
   4.31934926804754        4.31938624023247        4.31928754752649     
   4.31947106796321        4.31906830347757        4.31989216521837     
   4.31823432838876        4.32058496044295        4.31830950511124     
   4.31970870151298        4.31916067476179        4.31927283145719     
   4.31924944437527        4.31925164730564        4.31924352821181     
   4.31923864992316        4.31923220979782        6.45395112957464     
   6.45395112957464        6.45396007898908        6.45396050049454     
   6.45396141874720        6.45396222800694        6.45396278857176     
   6.45396312606795        6.45396309175782        6.45396305706775     
   6.45396223830882        6.45396237950655        6.45395973472456     
   6.45396234244466        6.45395321119496        6.45396840407660     
   6.45393219246796        6.45400375315171        6.45385124282786     
   6.45416971527302        6.45352886124011        6.45443801774665     
   6.45356944898514        6.45410836291085        6.45390675640098     
   6.45395113332314        6.45394737958489        6.45395200380493     
   6.45395324077723        6.45395525430466        6.45395654158706     
   8.79463319744677        8.79463319744677        8.79463482408176     
   8.79463413852174        8.79463355559942        8.79463290765699     
   8.79463215087794        8.79463128626593        8.79463027110430     
   8.79462919899714        8.79462786319001        8.79462671375932     
   8.79462477674819        8.79462413188854        8.79462037581553     
   8.79462285776112        8.79461193139352        8.79462893395031     
   8.79458760131721        8.79466889938435        8.79449980369216     
   8.79473470455972        8.79451016407882        8.79464986611041     
   8.79459872749571        8.79461002914407        8.79460973311139     
   8.79461124738834        8.79461212390798        8.79461315087695     
   8.79461410923411        11.2053668025532        11.2053668025532     
   11.2053625526960        11.2053608149500        11.2053588634044     
   11.2053568492556        11.2053547924791        11.2053526675598     
   11.2053504945513        11.2053481556450        11.2053458416557     
   11.2053430712860        11.2053408252641        11.2053369520884     
   11.2053359530083        11.2053282295255        11.2053339023087     
   11.2053106356891        11.2053467798535        11.2052570733935     
   11.2054241425771        11.2051744646925        11.2054072914982     
   11.2052618904896        11.2053143889359        11.2053008974148     
   11.2053010345165        11.2052985624447        11.2052974642510     
   11.2052962505744        11.2052956765161        13.5460488704254     
   13.5460488704254        13.5460373450552        13.5460343371973     
   13.5460307429006        13.5460271285447        13.5460235981880     
   13.5460200912777        13.5460167231699        13.5460130873283     
   13.5460099369889        13.5460054816366        13.5460034556894     
   13.5459957178344        13.5459993536091        13.5459779559179     
   13.5460078436198        13.5459284409812        13.5460744421443     
   13.5457446094700        13.5463828542461        13.5454517530139     
   13.5463316798277        13.5457830266410        13.5459853690294     
   13.5459359112618        13.5459375731958        13.5459292486875     
   13.5459252413767        13.5459201830470        13.5459164876286     
   15.6806474673116        15.6806474673116        15.6806230265793     
   15.6806182867519        15.6806124009188        15.6806068506286     
   15.6806019657185        15.6805976658608        15.6805943523865     
   15.6805910589959        15.6805898464367        15.6805860873458     
   15.6805896488821        15.6805791911907        15.6805996902909     
   15.6805556024984        15.6806470194908        15.6804539131670     
   15.6808490292376        15.6800099535943        15.6816655343628     
   15.6792802491998        15.6815760611446        15.6801593745368     
   15.6807094617140        15.6805874763109        15.6806068583998     
   15.6805965595004        15.6805980034606        15.6805945776637     
   15.6805929697482        17.4851074817110        17.4851074817110     
   17.4850539423191        17.4850473800546        17.4850398536944     
   17.4850357455813        17.4850362866995        17.4850415812627     
   17.4850530579473        17.4850684396006        17.4850934887885     
   17.4851160375617        17.4851625857133        17.4851764916842     
   17.4852774872043        17.4852133041346        17.4855104074619     
   17.4850724361402        17.4861602330911        17.4840982226850     
   17.4883135914388        17.4823979130471        17.4883079089072     
   17.4847922540420        17.4863105077822        17.4860617054684     
   17.4862221880037        17.4862970268185        17.4864167124547     
   17.4865276343674        17.4866533786103        18.8545602565321     
   18.8545602565321        18.8544279579327        18.8544392684588     
   18.8544771974874        18.8545573898265        18.8546853303334     
   18.8548624873472        18.8550943191182        18.8553751067472     
   18.8557238434803        18.8561041841095        18.8565980219436     
   18.8570376005469        18.8577712266450        18.8580921342323     
   18.8594201720929        18.8589371135200        18.8621800783627     
   18.8580445444661        18.8687932690847        18.8550811199124     
   18.8708552000188        18.8629928770795        18.8678703492789     
   18.8681121551555        18.8696453436623        18.8709274099927     
   18.8724378876077        18.8742132954539        18.8779268160360     
   19.7094181742605        19.7094181742605        19.7090475755925     
   19.7104681241464        19.7133633442433        19.7177193380535     
   19.7234774138939        19.7305508148175        19.7389028285039     
   19.7483241742203        19.7590433109297        19.7701637273064     
   19.7833447448904        19.7948638857072        19.8112442689473     
   19.8210307295604        19.8428685616034        19.8451289020569     
   19.8819036211958        19.8610807071226        19.9290246043269     
   19.8828339070734        19.9425458805523        19.9434533884056     
   19.9607017473525        19.9771937799157        19.9897734860681     
   20.0038922224959        20.0154461896428        20.0264387963525     
   20.0349077214110        20.0000000000000        20.0000000000000     
   19.9996179275759        19.9985112835682        19.9966344983724     
   19.9939884501713        19.9905881989289        19.9864653977377     
   19.9816516410209        19.9762113466989        19.9701446714689     
   19.9636359194488        19.9564575373111        19.9492780080417     
   19.9410238605485        19.9336705292863        19.9248126793160     
   19.9162378081105        19.9093684847431        19.8986001313207     
   19.8906729218622        19.8847204383930        19.8722529933504     
   19.8623218991191        19.8540905733820        19.8453309072030     
   19.8374732598879        19.8297137861266        19.8226472840009     
   19.8161073157422        19.8106062471167     
 -6.536680706074363E-003 -6.536680706074363E-003  1.724556544756197E-004
  7.555451955762849E-003  1.528179955248151E-002  2.313847931191985E-002
  3.096931348167216E-002  3.865125652010273E-002  4.608399227577523E-002
  5.317933475434739E-002  5.986122554965280E-002  6.607925352332589E-002
  7.170976828593420E-002  7.693688555488215E-002  8.109874523971078E-002
  8.569984352792961E-002  8.723965295745610E-002  9.320778895596396E-002
  8.827033344889081E-002  0.101848692139004       8.391117295783854E-002
  0.106669866880641       9.040060622322708E-002  9.232175483988397E-002
  8.990183238739244E-002  8.501465347486380E-002  8.112886735337342E-002
  7.579276260601139E-002  7.042746604334277E-002  6.443219540719781E-002
  5.870604662058720E-002 -6.536680706074363E-003 -6.536680706074363E-003
 -2.634868796585954E-002 -4.503357448413683E-002 -6.282651954317474E-002
 -7.979212205555315E-002 -9.593012172657610E-002 -0.111206325931773     
 -0.125582369116439      -0.138986226620527      -0.151385513856306     
 -0.162722870767639      -0.172766068909172      -0.182374087443935     
 -0.188414261444474      -0.199427542137321      -0.195174787603386     
 -0.218183950626560      -0.187028557485746      -0.242905281568351     
 -0.166006497254370      -0.243396483156272      -0.186892812433628     
 -0.211958685967537      -0.200462274965383      -0.193509652738542     
 -0.189815164243608      -0.181067626658327      -0.174340057839800     
 -0.165869564355101      -0.159082149190797      -6.536680706074363E-003
 -6.536680706074363E-003 -2.006431759450897E-002 -3.204685560180195E-002
 -4.308396268974752E-002 -5.347584498252559E-002 -6.339551768470769E-002
 -7.295004765351462E-002 -8.221298661819013E-002 -9.123019706203715E-002
 -0.100044050945959      -0.108667063318163      -0.117139198676801     
 -0.125440445218447      -0.133611097084522      -0.141661758878771     
 -0.149377267754578      -0.157546116764112      -0.163623494297096     
 -0.173511270947191      -0.175803879912739      -0.177519146149619     
 -0.196816091050352      -0.200591677261956      -0.210587953778523     
 -0.216477189026157      -0.224644802157207      -0.231172839161918     
 -0.238013780705342      -0.244003042443366      -0.249416640784585     