 Title = "Wing and Wake"
 VARIABLES = "X" "Y" "Z" "GAM"
 Zone I=    5 J=   14 K=1  T="Blade"
 DATAPACKING=BLOCK
 VARLOCATION=([4]=CELLCENTERED)
  -10.2461946980917       -9.99714602356881       -9.74809734904587     
  -9.49904867452294       -9.25000000000000       -10.2461946980917     
  -9.99714602356881       -9.74809734904587       -9.49904867452294     
  -9.25000000000000       -10.2461946980917       -9.99714602356881     
  -9.74809734904587       -9.49904867452294       -9.25000000000000     
  -10.2461946980917       -9.99714602356881       -9.74809734904587     
  -9.49904867452294       -9.25000000000000       -10.2461946980917     
  -9.99714602356881       -9.74809734904587       -9.49904867452294     
  -9.25000000000000       -10.2461946980917       -9.99714602356881     
  -9.74809734904587       -9.49904867452294       -9.25000000000000     
  -10.2461946980917       -9.99714602356881       -9.74809734904587     
  -9.49904867452294       -9.25000000000000       -10.2461946980917     
  -9.99714602356881       -9.74809734904587       -9.49904867452294     
  -9.25000000000000       -10.2461946980917       -9.99714602356881     
  -9.74809734904587       -9.49904867452294       -9.25000000000000     
  -10.2461946980917       -9.99714602356881       -9.74809734904587     
  -9.49904867452294       -9.25000000000000       -10.2461946980917     
  -9.99714602356881       -9.74809734904587       -9.49904867452294     
  -9.25000000000000       -10.2461946980917       -9.99714602356881     
  -9.74809734904587       -9.49904867452294       -9.25000000000000     
  -10.2461946980917       -9.99714602356881       -9.74809734904587     
  -9.49904867452294       -9.25000000000000       -10.2461946980917     
  -9.99714602356881       -9.74809734904587       -9.49904867452294     
  -9.25000000000000     
  0.000000000000000E+000  0.000000000000000E+000  0.000000000000000E+000
  0.000000000000000E+000  0.000000000000000E+000  0.290581825739480     
  0.290581825739480       0.290581825739480       0.290581825739480     
  0.290581825739480        1.14543974346790        1.14543974346790     
   1.14543974346790        1.14543974346790        1.14543974346790     
   2.51489251828899        2.51489251828899        2.51489251828899     
   2.51489251828899        2.51489251828899        4.31935253268844     
   4.31935253268844        4.31935253268844        4.31935253268844     
   4.31935253268844        6.45395112957464        6.45395112957464     
   6.45395112957464        6.45395112957464        6.45395112957464     
   8.79463319744677        8.79463319744677        8.79463319744677     
   8.79463319744677        8.79463319744677        11.2053668025532     
   11.2053668025532        11.2053668025532        11.2053668025532     
   11.2053668025532        13.5460488704254        13.5460488704254     
   13.5460488704254        13.5460488704254        13.5460488704254     
   15.6806474673116        15.6806474673116        15.6806474673116     
   15.6806474673116        15.6806474673116        17.4851074817110     
   17.4851074817110        17.4851074817110        17.4851074817110     
   17.4851074817110        18.8545602565321        18.8545602565321     
   18.8545602565321        18.8545602565321        18.8545602565321     
   19.7094181742605        19.7094181742605        19.7094181742605     
   19.7094181742605        19.7094181742605        20.0000000000000     
   20.0000000000000        20.0000000000000        20.0000000000000     
   20.0000000000000     
  8.715574274765817E-002  6.536680706074363E-002  4.357787137382908E-002
  2.178893568691454E-002  0.000000000000000E+000  8.715574274765817E-002
  6.536680706074363E-002  4.357787137382908E-002  2.178893568691454E-002
  0.000000000000000E+000  8.715574274765817E-002  6.536680706074363E-002
  4.357787137382908E-002  2.178893568691454E-002  0.000000000000000E+000
  8.715574274765817E-002  6.536680706074363E-002  4.357787137382908E-002
  2.178893568691454E-002  0.000000000000000E+000  8.715574274765817E-002
  6.536680706074363E-002  4.357787137382908E-002  2.178893568691454E-002
  0.000000000000000E+000  8.715574274765817E-002  6.536680706074363E-002
  4.357787137382908E-002  2.178893568691454E-002  0.000000000000000E+000
  8.715574274765817E-002  6.536680706074363E-002  4.357787137382908E-002
  2.178893568691454E-002  0.000000000000000E+000  8.715574274765817E-002
  6.536680706074363E-002  4.357787137382908E-002  2.178893568691454E-002
  0.000000000000000E+000  8.715574274765817E-002  6.536680706074363E-002
  4.357787137382908E-002  2.178893568691454E-002  0.000000000000000E+000
  8.715574274765817E-002  6.536680706074363E-002  4.357787137382908E-002
  2.178893568691454E-002  0.000000000000000E+000  8.715574274765817E-002
  6.536680706074363E-002  4.357787137382908E-002  2.178893568691454E-002
  0.000000000000000E+000  8.715574274765817E-002  6.536680706074363E-002
  4.357787137382908E-002  2.178893568691454E-002  0.000000000000000E+000
  8.715574274765817E-002  6.536680706074363E-002  4.357787137382908E-002
  2.178893568691454E-002  0.000000000000000E+000  8.715574274765817E-002
  6.536680706074363E-002  4.357787137382908E-002  2.178893568691454E-002
  0.000000000000000E+000
  0.748132808928813        1.00681085226261        1.14714769418788     
   1.22122512260067        1.07963318110004        1.51688917364430     
   1.76592563422040        1.89770176356765        1.25526498742032     
   1.78390976654114        2.09519267025527        2.26384410155771     
   1.33767020651929        1.90594486264579        2.24324539207685     
   2.42712039530044        1.37534827958496        1.96087078182636     
   2.30902567376751        2.49895709263015        1.39166286951300     
   1.98442908669658        2.33699667715649        2.52927156669544     
   1.39616542477614        1.99090084426168        2.34464886929949     
   2.53753711563251        1.39146446043323        1.98414437213695     
   2.33666615744640        2.52893317068082        1.37509318615829     
   1.96049925835215        2.30858787756260        2.49850199117361     
   1.33756202675181        1.90577513363134        2.24303133935600     
   2.42688323981759        1.25540502641618        1.78408853311550     
   2.09537511527493        2.26400502543461        1.07994136591823     
   1.51730223468212        1.76637617809151        1.89813690979288     
  0.748408077366935        1.00716461680488        1.14753133195012     
   1.22160313000720     
 Zone I=   31 J=   14 K=1  T="NearWake"
 DATAPACKING=BLOCK
 VARLOCATION=([4]=CELLCENTERED)
  -9.17528539764312       -8.92528539764312       -8.67499365587728     
  -8.42442834243038       -8.17398104725431       -7.92314693200161     
  -7.67300812129755       -7.42183198009506       -7.17049236686502     
  -6.92069202038647       -6.67002099922342       -6.41960585369542     
  -6.16913564296660       -5.91872052091697       -5.66835734745392     
  -5.41804723534632       -5.16781124876329       -4.91765540081368     
  -4.66760110404449       -4.41766531662628       -4.16787420779346     
  -3.91825638734280       -3.66884868261635       -3.41969531353154     
  -3.17085129511767       -2.92238407305787       -2.67437630584964     
  -2.42692687011552       -2.18014729433223       -1.93414061633285     
  -1.68887582547399       -9.17528539764312       -8.92528539764312     
  -8.67552909810922       -8.42538122670426       -8.17521097533755     
  -7.92472305836504       -7.67454798829707       -7.42358175697066     
  -7.17343407515686       -6.92297528559100       -6.67268375586224     
  -6.42220103306860       -6.17182209380366       -5.92139957490614     
  -5.67101974001253       -5.42064222206108       -5.17029854486822     
  -4.91997917989518       -4.66969875640191       -4.41946005068068     
  -4.16927379542719       -3.91914866446549       -3.66909728129126     
  -3.41913373140744       -3.16927564937402       -2.91954373007699     
  -2.66996224899458       -2.42055744762645       -2.17135322705508     
  -1.92234333973807       -1.67344913103537       -9.17528539764312     
  -8.92528539764312       -8.67595466096111       -8.42645579907671     
  -8.17692510201043       -7.92718462413039       -7.67765421007096     
  -7.42748274270797       -7.17853435762941       -6.92834639922371     
  -6.67865723612057       -6.42873227235334       -6.17891466683500     
  -5.92904508395756       -5.67920340740687       -5.42935369773228     
  -5.17951883757207       -4.92969221482791       -4.67988303728319     
  -4.43009234734974       -4.18032565958278       -3.93058575829585     
  -3.68087612171814       -3.43119800543283       -3.18155031763871     
  -2.93192646244276       -2.68231025737590       -2.43266726305613     
  -2.18292838770035       -1.93295295492058       -1.68249427810301     
  -9.17528539764312       -8.92528539764312       -8.67596871871650     
  -8.42647923833464       -8.17696177321348       -7.92722641793128     
  -7.67771815059678       -7.42753976478537       -7.17861875848469     
  -6.92846651566948       -6.67880849603802       -6.42892508521149     
  -6.17913667145288       -5.92929766055701       -5.67947979700773     
  -5.42964943759302       -5.17982556378191       -4.92999961490854     
  -4.68017716353707       -4.43035534834883       -4.18053487162022     
  -3.93071272628260       -3.68088543822719       -3.43104579643552     
  -3.18118247554291       -2.93127647591488       -2.68129676070939     
  -2.43119123828903       -2.18086982948005       -1.93016522749348     
  -1.67884413371737       -9.17528539764312       -8.92528539764312     
  -8.67597014018558       -8.42647382537144       -8.17694247471100     
  -7.92719577840449       -7.67766128473753       -7.42747713789126     
  -7.17852572211094       -6.92836444643057       -6.67868230337571     
  -6.42878427743930       -6.17897429077377       -5.92911455829480     
  -5.67927164217598       -5.42941336146485       -5.17955696957058     
  -4.92969355580650       -4.67982773222486       -4.42995585410779     
  -4.18007781557367       -3.93018984433757       -3.68028785958040     
  -3.43036422076202       -3.18040751960308       -2.93039909636121     
  -2.68030881138245       -2.43008605457318       -2.17964264580030     
  -1.92881272892293       -1.67737714767594       -9.17528539764312     
  -8.92528539764312       -8.67597128074253       -8.42647174944262     
  -8.17693114534883       -7.92718111333950       -7.67762346723682     
  -7.42744415047149       -7.17846282279774       -6.92829860913719     
  -6.67859828955793       -6.42868884841641       -6.17886322105061     
  -5.92898893611170       -5.67912993893762       -5.42925514803839     
  -5.17938131252939       -4.92949972267184       -4.67961499587653     
  -4.42972360691987       -4.17982563242901       -3.92991752535689     
  -3.67999551826854       -3.43005232724749       -3.18007695930756     
  -2.93005117974130       -2.67994524862152       -2.42970884117170     
  -2.17925381276712       -1.92841379604947       -1.67697194815761     
  -9.17528539764312       -8.92528539764312       -8.67597175461552     
  -8.42647094999379       -8.17692592465236       -7.92717527699241     
  -7.67760528463194       -7.42743010740531       -7.17843283999808     
  -6.92826862320210       -6.67856008105359       -6.42864587651728     
  -6.17881365195979       -5.92893348342432       -5.67906824188405     
  -5.42918737374724       -5.17930749321259       -4.92942001937963     
  -4.67952962252854       -4.42963285180874       -4.17972986839571     
  -3.92981719909519       -3.67989115589786       -3.42994451682673     
  -3.17996633729003       -2.92993839943772       -2.67983094035488     
  -2.42959355107352       -2.17913791413948       -1.92829733270248     
  -1.67685539914728       -9.17528539764312       -8.92528539764312     
  -8.67597145374814       -8.42647035528982       -8.17692495375531     
  -7.92717383837075       -7.67760322304718       -7.42742716238649     
  -7.17842958059965       -6.92826495916086       -6.67855601105042     
  -6.42864136949896       -6.17880868026317       -5.92892801581074     
  -5.67906224656241       -5.42918081832801       -5.17930034541311     
  -4.92941224757063       -4.67952119637413       -4.42962374296398     
  -4.17972005127634       -3.92980665170318       -3.67987986070176     
  -3.42993246166552       -3.17995351628246       -2.92992481385424     
  -2.67981659941311       -2.42957847259795       -2.17912212500530     
  -1.92828086886872       -1.67683830416262       -9.17528539764312     
  -8.92528539764312       -8.67597060513146       -8.42647039352541     
  -8.17692889373107       -7.92717770602294       -7.67761850270888     
  -7.42743693232520       -7.17845470798832       -6.92828934092860     
  -6.67858782866522       -6.42867707875437       -6.17885002601716     
  -5.92897418363491       -5.67911348663052       -5.42923684313318     
  -5.17936099262024       -4.92947721681035       -4.67959012592944     
  -4.42969618957805       -4.17979548189716       -3.92988445687597     
  -3.67995935262413       -3.43001289631562       -3.18003411272074     
  -2.93000479259299       -2.67989523005671       -2.42965514347132     
  -2.17919644023784       -1.92835281213636       -1.67690747338918     
  -9.17528539764312       -8.92528539764312       -8.67596964979789     
  -8.42647278731836       -8.17694067185877       -7.92719287026912     
  -7.67765687452027       -7.42747041822181       -7.17851787247714     
  -6.92835513331686       -6.67867140743192       -6.42877159483267     
  -6.17895958888316       -5.92909756786303       -5.67925205107319     
  -5.42939081150180       -5.17953104784081       -4.92966378757180     
  -4.67979357116957       -4.42991667225777       -4.18003289202213     
  -3.93013835365811       -3.68022886065522       -3.43029664751359     
  -3.18033017614856       -2.93031066031596       -2.68020785084181     
  -2.42997106581519       -2.17951211925435       -1.92866524586376     
  -1.67721146710508       -9.17528539764312       -8.92528539764312     
  -8.67596890811394       -8.42647949412387       -8.17696205525859     
  -7.92722645221484       -7.67771789034391       -7.42753879728745     
  -7.17861709647107       -6.92846394606358       -6.67880488448215     
  -6.42892027588593       -6.17913045592196       -5.92928980111026     
  -5.67947000027999       -5.42963735402803       -5.17981076695716     
  -4.92998158600429       -4.68015526470163       -4.43032879106366     
  -4.18050267254186       -3.93067364834538       -3.68083790876802     
  -3.43098779113643       -3.18111134826917       -2.93118869893114     
  -2.68118750913684       -2.43105369484092       -2.18069398584153     
  -1.92993581203008       -1.67853690123031       -9.17528539764312     
  -8.92528539764312       -8.67595559436827       -8.42645747641634     
  -8.17692771122844       -7.92718800551732       -7.67765879497123     
  -7.42748879037861       -7.17854044408694       -6.92835255113715     
  -6.67866336060415       -6.42873837316022       -6.17892069227149     
  -5.92905100332367       -5.67920916708324       -5.42935924133351     
  -5.17952408933765       -4.92969708269575       -4.67988740284992     
  -4.43009606114025       -4.18032853045162       -3.93058754331401     
  -3.68087651348897       -3.43119662152349       -3.18154669751437     
  -2.93192008978034       -2.68230065234614       -2.43265428254556     
  -2.18291328440091       -1.93294342112294       -1.68254931276518     
  -9.17528539764312       -8.92528539764312       -8.67553024019904     
  -8.42538304774068       -8.17521406898845       -7.92472723437110     
  -7.67455471190832       -7.42359227263886       -7.17344490488958     
  -6.92298686472331       -6.67269596849602       -6.42221401402537     
  -6.17183592100592       -5.92141440168454       -5.67103573541497     
  -5.42065961214450       -5.17031760594260       -4.92000026558298     
  -4.66972231491180       -4.41948665671645       -4.16930418931209     
  -3.91918380750586       -3.66913843477353       -3.41918256872085     
  -3.16933441760315       -2.91961549063043       -2.67005125110587     
  -2.42066974570812       -2.17149782105271       -1.92253444321844     
  -1.67371079389092       -9.17528539764312       -8.92528539764312     
  -8.67499527173868       -8.42443196017907       -8.17398711253948     
  -7.92315567916083       -7.67301918805861       -7.42184505858365     
  -7.17050637697050       -6.92070692803163       -6.67003694548015     
  -6.41962297661843       -6.16915410968045       -5.91874052299968     
  -5.66837911558873       -5.41807104417253       -5.16783743061908     
  -4.91768435941176       -4.66763333428742       -4.41770142955123     
  -4.16791496419975       -3.91830274145645       -3.66890184010072     
  -3.41975680937975       -3.17092310062808       -2.92246874897032     
  -2.67447724205586       -2.42704873319015       -2.18029701167674     
  -1.93432986797777       -1.68912745623189     
  0.000000000000000E+000  0.000000000000000E+000  3.501609535290125E-004
  1.363753450009863E-003  3.368198484813486E-003  5.071606386668890E-003
  1.010204797050464E-002  1.040855867264276E-002  1.968795890508080E-002
  2.405591287432663E-002  3.038238799964814E-002  3.705125372152025E-002
  4.405343813203821E-002  5.151611884089995E-002  5.918830028811793E-002
  6.711945612393273E-002  7.514793974327527E-002  8.323459761671496E-002
  9.126905429048918E-002  9.917661397063643E-002  0.106860883010386     
  0.114234022372452       0.121201544646427       0.127669119415199     
  0.133537376729192       0.138700753136982       0.143042054492823     
  0.146424193669017       0.148681067071322       0.149533620262910     
  0.148568810928487       0.290581825739480       0.290581825739480     
  0.290922613013634       0.289821114487571       0.285652612195693     
  0.285515504301623       0.271270214675098       0.279406437956566     
  0.255319208137712       0.252218843309863       0.239331076070739     
  0.227445973251978       0.215318853983640       0.201636456535990     
  0.188018472155942       0.173619005416124       0.159140489947858     
  0.144405809651552       0.129723290559094       0.115139580100329     
  0.100842363406211       8.694413760241299E-002  7.359211160946470E-002
  6.091231416143744E-002  4.904029730087036E-002  3.811316742773237E-002
  2.828751184016328E-002  1.975983556889139E-002  1.282489512793105E-002
  8.056802412304520E-003  6.945141291699129E-003   1.14543974346790     
   1.14543974346790        1.14555531176801        1.14560720026472     
   1.14527217211403        1.14608127999546        1.14388752856709     
   1.14707542037216        1.14336661104287        1.14517230060342     
   1.14407039707162        1.14377607644767        1.14333402592268     
   1.14279150056548        1.14222666554034        1.14158770340689     
   1.14091199063080        1.14018213226656        1.13941382288125     
   1.13860704910402        1.13777334664331        1.13692169976787     
   1.13606696584642        1.13522663899494        1.13442429863554     
   1.13369021311398        1.13306441175849        1.13259981420871     
   1.13236548442196        1.13245302398790        1.13295588218158     
   2.51489251828899        2.51489251828899        2.51493516053993     
   2.51496039622579        2.51485768715690        2.51517903302459     
   2.51441765617835        2.51562917169640        2.51436755350779     
   2.51511357427781        2.51481826324574        2.51481695817778     
   2.51479425612449        2.51474541846849        2.51470600190214     
   2.51465536702728        2.51460797262905        2.51455762679907     
   2.51450964845471        2.51446371755101        2.51442296985611     
   2.51438926489246        2.51436564898642        2.51435505302598     
   2.51436084052165        2.51438625419260        2.51443418733779     
   2.51450658241287        2.51460355019081        2.51472260605801     
   2.51484597085216        4.31935253268844        4.31935253268844     
   4.31936946276773        4.31937898383882        4.31933952397666     
   4.31946591784437        4.31917108082877        4.31964285411963     
   4.31916767564106        4.31946473170812        4.31936474701814     
   4.31937564796925        4.31938411833980        4.31938369776701     
   4.31938947786265        4.31939290261863        4.31939948649161     
   4.31940663213028        4.31941599673639        4.31942704605412     
   4.31944033793747        4.31945580921861        4.31947359237630     
   4.31949354660513        4.31951542088292        4.31953867463269     
   4.31956243341074        4.31958536418548        4.31960552812211     
   4.31962010814830        4.31962126317088        6.45395112957464     
   6.45395112957464        6.45395724126269        6.45396005674957     
   6.45394405585872        6.45399197499570        6.45387804847248     
   6.45405782559269        6.45387976749114        6.45399472948716     
   6.45396004120544        6.45396660547479        6.45397328073452     
   6.45397664113921        6.45398262477210        6.45398783314121     
   6.45399425362899        6.45400080191603        6.45400794576437     
   6.45401534318073        6.45402302666507        6.45403080305195     
   6.45403854268654        6.45404602799944        6.45405301838599     
   6.45405920377255        6.45406420320891        6.45406753573374     
   6.45406857870236        6.45406645915765        6.45405868555782     
   8.79463319744677        8.79463319744677        8.79463332578876     
   8.79463252433766        8.79462664915790        8.79463761759724     
   8.79460607248265        8.79465160086204        8.79460571019844     
   8.79463583593805        8.79462728193458        8.79462928280370     
   8.79463144899169        8.79463273436153        8.79463472342716     
   8.79463650595499        8.79463858986095        8.79464068193798     
   8.79464288960335        8.79464511373369        8.79464735135303     
   8.79464954476946        8.79465165480246        8.79465362395069     
   8.79465539305654        8.79465689061808        8.79465803288375     
   8.79465871688075        8.79465880988065        8.79465812168464     
   8.79465607930623        11.2053668025532        11.2053668025532     
   11.2053618701182        11.2053578767367        11.2053584321668     
   11.2053423113287        11.2053682950878        11.2053179962997     
   11.2053640808713        11.2053334700609        11.2053419350691     
   11.2053397058438        11.2053374584374        11.2053361012795     
   11.2053341330173        11.2053324327247        11.2053305212975     
   11.2053286899969        11.2053268457892        11.2053250939002     
   11.2053234477436        11.2053219730396        11.2053207178582     
   11.2053197475147        11.2053191286632        11.2053189393866     
   11.2053192693094        11.2053202266445        11.2053219496697     
   11.2053246378979        11.2053288985809        13.5460488704254     
   13.5460488704254        13.5460372811144        13.5460288198266     
   13.5460383837738        13.5459840777904        13.5460909240950     
   13.5459047936097        13.5460825395281        13.5459663441388     
   13.5460002594812        13.5459926746170        13.5459851185261     
   13.5459808260762        13.5459739790737        13.5459679335055     
   13.5459607500116        13.5459535172090        13.5459458000297     
   13.5459379635469        13.5459300093622        13.5459221649747     
   13.5459146003272        13.5459075758276        13.5459013785188     
   13.5458963667722        13.5458929710547        13.5458917218568     
   13.5458932917531        13.5458986100784        13.5459102788623     
   15.6806474673116        15.6806474673116        15.6806241034596     
   15.6806076937175        15.6806390218697        15.6805043396733     
   15.6807896186221        15.6803088779721        15.6807826809101     
   15.6804828752834        15.6805806024436        15.6805668948763     
   15.6805556281117        15.6805529382504        15.6805438989341     
   15.6805369632922        15.6805266672775        15.6805155815316     
   15.6805020767465        15.6804867012736        15.6804689423437     
   15.6804489228302        15.6804266049656        15.6804022617121     
   15.6803763288131        15.6803495944055        15.6803232576042     
   15.6802990657730        15.6802794784564        15.6802679749842     
   15.6802733985341        17.4851074817110        17.4851074817110     
   17.4850577339739        17.4850247324940        17.4851180343114     
   17.4847870972347        17.4855367424583        17.4843143906493     
   17.4855734854299        17.4848232877093        17.4851148564691     
   17.4851114842109        17.4851292877288        17.4851724946961     
   17.4852057148630        17.4852493442476        17.4852888884395     
   17.4853303525580        17.4853682816118        17.4854027852069     
   17.4854305076937        17.4854493148265        17.4854558589821     
   17.4854468725428        17.4854186399943        17.4853675792826     
   17.4852905410801        17.4851855305591        17.4850528079294     
   17.4848960132162        17.4847354887341        18.8545602565321     
   18.8545602565321        18.8544373978491        18.8543775724102     
   18.8547027996493        18.8538843631961        18.8560649364829     
   18.8528667479654        18.8565722670118        18.8547621679598     
   18.8558599911737        18.8561491702102        18.8565858142823     
   18.8571220853393        18.8576799924784        18.8583110626434     
   18.8589778607416        18.8596975436253        18.8604542322199     
   18.8612476635815        18.8620660164970        18.8628999679437     
   18.8637343278289        18.8645513362894        18.8653274395543     
   18.8660332442051        18.8666320540132        18.8670817495491     
   18.8673498204334        18.8674966005600        18.8685147007226     
   19.7094181742605        19.7094181742605        19.7090702023846     
   19.7101644664047        19.7143236603955        19.7144522307687     
   19.7286821663310        19.7205387869741        19.7446225574508     
   19.7477191615313        19.7606035586826        19.7724842394530     
   19.7846068358213        19.7982839411278        19.8118961072171     
   19.8262889019426        19.8407598829149        19.8554859001477     
   19.8701584827565        19.8847306723890        19.8990144632881     
   19.9128968664001        19.9262300871828        19.9388873401018     
   19.9507321363523        19.9616261925032        19.9714115208774     
   19.9798898848834        19.9867651286086        19.9914633720363     
   19.9925052239075        20.0000000000000        20.0000000000000     
   19.9996427363038        19.9986209577586        19.9966062601556     
   19.9948933307426        19.9898482542185        19.9895325474052     
   19.9802474771057        19.9758747364649        19.9695422620393     
   19.9628667635973        19.9558569223804        19.9483855111460     
   19.9407032369396        19.9327603826518        19.9247182171365     
   19.9166154520892        19.9085618647697        19.9006313752248     
   19.8929193267182        19.8855121321887        19.8785022917692     
   19.8719813148802        19.8660444691727        19.8607912290084     
   19.8563296161516        19.8527827337220        19.8502965222884     
   19.8491237867950        19.8496528222831     
 -6.536680706074363E-003 -6.536680706074363E-003 -1.147628139508044E-004
  6.720774841575849E-003  1.427801131391840E-002  2.099681520372012E-002
  2.935315481433509E-002  3.513565091040437E-002  4.523913774491040E-002
  4.967444737302026E-002  5.628195176649374E-002  6.095087612897283E-002
  6.569820703228053E-002  6.941504531864610E-002  7.260708152118664E-002
  7.495621947328539E-002  7.658511413078722E-002  7.739823579467965E-002
  7.743105053888964E-002  7.666121772091487E-002  7.511035253765376E-002
  7.279040502957553E-002  6.973225428456879E-002  6.597092552706234E-002
  6.155385737543135E-002  5.653813219957216E-002  5.099453047144002E-002
  4.501410320554500E-002  3.871472669739145E-002  3.224836001039361E-002
  2.604595258320675E-002 -6.536680706074363E-003 -6.536680706074363E-003
 -2.643681417204906E-002 -4.449855152943474E-002 -6.309457744486933E-002
 -7.826306306549013E-002 -9.673342126506684E-002 -0.104239293480805     
 -0.133644010862178      -0.140726489497824      -0.156482082741619     
 -0.166457342006233      -0.177887485270598      -0.186914200021253     
 -0.195532989234630      -0.202632845533305      -0.208845962827641     
 -0.213846339015150      -0.217881476776618      -0.220908212243708     
 -0.223080748174169      -0.224483838154104      -0.225283211416273     
 -0.225646528350666      -0.225791533173403      -0.225967471385454     
 -0.226475730518888      -0.227674418553376      -0.230007555602381     
 -0.234051470117329      -0.240536445002433      -6.536680706074363E-003
 -6.536680706074363E-003 -2.021686315430386E-002 -3.187433154528622E-002
 -4.372150348977484E-002 -5.255406094991055E-002 -6.514174033391049E-002
 -6.619642978090624E-002 -9.077690498326972E-002 -9.255606725168693E-002
 -0.105429937356499      -0.112585501534716      -0.122502609055918     
 -0.130944701351131      -0.140053348856290      -0.148779858164775     
 -0.157670606014982      -0.166473764439514      -0.175336855147216     
 -0.184207184449822      -0.193131736115638      -0.202106404439187     
 -0.211150418349016      -0.220267076139835      -0.229459885912515     
 -0.238718187843800      -0.248013090736374      -0.257278843027082     
 -0.266382100191942      -0.275045816311472      -0.282410584689895     