 Title = "Wing and Wake"
 VARIABLES = "X" "Y" "Z" "GAM"
 Zone I=    5 J=   14 K=1  T="Blade"
 DATAPACKING=BLOCK
 VARLOCATION=([4]=CELLCENTERED)
  -4.24619469809175       -3.99714602356881       -3.74809734904587     
  -3.49904867452294       -3.25000000000000       -4.24619469809175     
  -3.99714602356881       -3.74809734904587       -3.49904867452294     
  -3.25000000000000       -4.24619469809175       -3.99714602356881     
  -3.74809734904587       -3.49904867452294       -3.25000000000000     
  -4.24619469809175       -3.99714602356881       -3.74809734904587     
  -3.49904867452294       -3.25000000000000       -4.24619469809175     
  -3.99714602356881       -3.74809734904587       -3.49904867452294     
  -3.25000000000000       -4.24619469809175       -3.99714602356881     
  -3.74809734904587       -3.49904867452294       -3.25000000000000     
  -4.24619469809175       -3.99714602356881       -3.74809734904587     
  -3.49904867452294       -3.25000000000000       -4.24619469809175     
  -3.99714602356881       -3.74809734904587       -3.49904867452294     
  -3.25000000000000       -4.24619469809175       -3.99714602356881     
  -3.74809734904587       -3.49904867452294       -3.25000000000000     
  -4.24619469809175       -3.99714602356881       -3.74809734904587     
  -3.49904867452294       -3.25000000000000       -4.24619469809175     
  -3.99714602356881       -3.74809734904587       -3.49904867452294     
  -3.25000000000000       -4.24619469809175       -3.99714602356881     
  -3.74809734904587       -3.49904867452294       -3.25000000000000     
  -4.24619469809175       -3.99714602356881       -3.74809734904587     
  -3.49904867452294       -3.25000000000000       -4.24619469809175     
  -3.99714602356881       -3.74809734904587       -3.49904867452294     
  -3.25000000000000     
  0.000000000000000E+000  0.000000000000000E+000  0.000000000000000E+000
  0.000000000000000E+000  0.000000000000000E+000  0.290581825739480     
  0.290581825739480       0.290581825739480       0.290581825739480     
  0.290581825739480        1.14543974346790        1.14543974346790     
   1.14543974346790        1.14543974346790        1.14543974346790     
   2.51489251828899        2.51489251828899        2.51489251828899     
   2.51489251828899        2.51489251828899        4.31935253268844     
   4.31935253268844        4.31935253268844        4.31935253268844     
   4.31935253268844        6.45395112957464        6.45395112957464     
   6.45395112957464        6.45395112957464        6.45395112957464     
   8.79463319744677        8.79463319744677        8.79463319744677     
   8.79463319744677        8.79463319744677        11.2053668025532     
   11.2053668025532        11.2053668025532        11.2053668025532     
   11.2053668025532        13.5460488704254        13.5460488704254     
   13.5460488704254        13.5460488704254        13.5460488704254     
   15.6806474673116        15.6806474673116        15.6806474673116     
   15.6806474673116        15.6806474673116        17.4851074817110     
   17.4851074817110        17.4851074817110        17.4851074817110     
   17.4851074817110        18.8545602565321        18.8545602565321     
   18.8545602565321        18.8545602565321        18.8545602565321     
   19.7094181742605        19.7094181742605        19.7094181742605     
   19.7094181742605        19.7094181742605        20.0000000000000     
   20.0000000000000        20.0000000000000        20.0000000000000     
   20.0000000000000     
  8.715574274765817E-002  6.536680706074363E-002  4.357787137382908E-002
  2.178893568691454E-002  0.000000000000000E+000  8.715574274765817E-002
  6.536680706074363E-002  4.357787137382908E-002  2.178893568691454E-002
  0.000000000000000E+000  8.715574274765817E-002  6.536680706074363E-002
  4.357787137382908E-002  2.178893568691454E-002  0.000000000000000E+000
  8.715574274765817E-002  6.536680706074363E-002  4.357787137382908E-002
  2.178893568691454E-002  0.000000000000000E+000  8.715574274765817E-002
  6.536680706074363E-002  4.357787137382908E-002  2.178893568691454E-002
  0.000000000000000E+000  8.715574274765817E-002  6.536680706074363E-002
  4.357787137382908E-002  2.178893568691454E-002  0.000000000000000E+000
  8.715574274765817E-002  6.536680706074363E-002  4.357787137382908E-002
  2.178893568691454E-002  0.000000000000000E+000  8.715574274765817E-002
  6.536680706074363E-002  4.357787137382908E-002  2.178893568691454E-002
  0.000000000000000E+000  8.715574274765817E-002  6.536680706074363E-002
  4.357787137382908E-002  2.178893568691454E-002  0.000000000000000E+000
  8.715574274765817E-002  6.536680706074363E-002  4.357787137382908E-002
  2.178893568691454E-002  0.000000000000000E+000  8.715574274765817E-002
  6.536680706074363E-002  4.357787137382908E-002  2.178893568691454E-002
  0.000000000000000E+000  8.715574274765817E-002  6.536680706074363E-002
  4.357787137382908E-002  2.178893568691454E-002  0.000000000000000E+000
  8.715574274765817E-002  6.536680706074363E-002  4.357787137382908E-002
  2.178893568691454E-002  0.000000000000000E+000  8.715574274765817E-002
  6.536680706074363E-002  4.357787137382908E-002  2.178893568691454E-002
  0.000000000000000E+000
  0.692237703338672       0.926097626752916        1.04865198859969     
   1.10892567638957       0.991006143467838        1.38477774323249     
   1.60218453875544        1.70967718973379        1.13495314566158     
   1.60309951900503        1.86960185815463        2.00352160552806     
   1.18999270720294        1.68385204675303        1.96610750175478     
   2.10749934788512        1.20882738900048        1.71083720671585     
   1.99766394107165        2.14081425119516        1.21509947819962     
   1.71970042302046        2.00789710609194        2.15148918053293     
   1.21661964589182        1.72183616634640        2.01035005803652     
   2.15403599325893        1.21509947819962        1.71970042302046     
   2.00789710609194        2.15148918053293        1.20882738900048     
   1.71083720671586        1.99766394107165        2.14081425119516     
   1.18999270720294        1.68385204675303        1.96610750175478     
   2.10749934788513        1.13495314566158        1.60309951900503     
   1.86960185815463        2.00352160552807       0.991006143467839     
   1.38477774323249        1.60218453875544        1.70967718973379     
  0.692237703338673       0.926097626752916        1.04865198859969     
   1.10892567638957     
 Zone I=   14 J=   14 K=1  T="NearWake"
 DATAPACKING=BLOCK
 VARLOCATION=([4]=CELLCENTERED)
  -3.17528539764312       -2.92528539764312       -2.67487477876307     
  -2.42451631071244       -2.17425437720212       -1.92409857690320     
  -1.67414834277886       -1.42443962039592       -1.17508169380291     
 -0.926162138482264      -0.677760173207599      -0.429681968368513     
 -0.178259298852930       6.384465575458262E-002  -3.17528539764312     
  -2.92528539764312       -2.67587119723389       -2.42577164159417     
  -2.17597443316979       -1.92600150882233       -1.67620408484074     
  -1.42638146887277       -1.17662439822923      -0.926650011516999     
 -0.675799701563292      -0.421069352265866      -0.144782283591071     
  6.315812468851380E-002  -3.17528539764312       -2.92528539764312     
  -2.67642774306619       -2.42675229479313       -2.17740341283905     
  -1.92775001764737       -1.67817946170258       -1.42839752923651     
  -1.17843488267788      -0.927838935681220      -0.675653564477504     
 -0.418103666911212      -0.130263306369415       5.144164902708956E-002
  -3.17528539764312       -2.92528539764312       -2.67640205083341     
  -2.42667294073522       -2.17726842830118       -1.92751768858929     
  -1.67783147895249       -1.42788062410894       -1.17770326620009     
 -0.926814933970267      -0.674223012795736      -0.415993878179607     
 -0.125701470769421       4.844230056122495E-002  -3.17528539764312     
  -2.92528539764312       -2.67638336191790       -2.42662128109177     
  -2.17719019971963       -1.92740094871568       -1.67768228428468     
  -1.42769301439095       -1.17747884714215      -0.926546493543498     
 -0.673896704921312      -0.415564728572243      -0.124827807933737     
  4.767043724912293E-002  -3.17528539764312       -2.92528539764312     
  -2.67637791249871       -2.42660415082651       -2.17716542138274     
  -1.92736441772748       -1.67763687370072       -1.42763716622269     
  -1.17741344279922      -0.926469829167846      -0.673805694593578     
 -0.415449212967891      -0.124608366701591       4.749236404531613E-002
  -3.17528539764312       -2.92528539764312       -2.67637663460316     
  -2.42659932010622       -2.17715847808592       -1.92735400793060     
  -1.67762384248696       -1.42762099162915       -1.17739431556868     
 -0.926447227857227      -0.673778744161803      -0.415415135306566     
 -0.124545317552754       4.744865046176595E-002  -3.17528539764312     
  -2.92528539764312       -2.67637663460316       -2.42659932010622     
  -2.17715847808592       -1.92735400793060       -1.67762384248696     
  -1.42762099162915       -1.17739431556868      -0.926447227857227     
 -0.673778744161803      -0.415415135306566      -0.124545317552754     
  4.744865046176597E-002  -3.17528539764312       -2.92528539764312     
  -2.67637791249871       -2.42660415082651       -2.17716542138274     
  -1.92736441772748       -1.67763687370072       -1.42763716622269     
  -1.17741344279922      -0.926469829167846      -0.673805694593578     
 -0.415449212967891      -0.124608366701591       4.749236404531613E-002
  -3.17528539764312       -2.92528539764312       -2.67638336191790     
  -2.42662128109177       -2.17719019971963       -1.92740094871568     
  -1.67768228428468       -1.42769301439095       -1.17747884714215     
 -0.926546493543498      -0.673896704921312      -0.415564728572243     
 -0.124827807933737       4.767043724912289E-002  -3.17528539764312     
  -2.92528539764312       -2.67640205083341       -2.42667294073522     
  -2.17726842830118       -1.92751768858929       -1.67783147895249     
  -1.42788062410894       -1.17770326620009      -0.926814933970267     
 -0.674223012795736      -0.415993878179607      -0.125701470769421     
  4.844230056122491E-002  -3.17528539764312       -2.92528539764312     
  -2.67642774306619       -2.42675229479313       -2.17740341283905     
  -1.92775001764737       -1.67817946170258       -1.42839752923651     
  -1.17843488267788      -0.927838935681220      -0.675653564477504     
 -0.418103666911212      -0.130263306369415       5.144164902708944E-002
  -3.17528539764312       -2.92528539764312       -2.67587119723389     
  -2.42577164159417       -2.17597443316979       -1.92600150882233     
  -1.67620408484074       -1.42638146887277       -1.17662439822923     
 -0.926650011516999      -0.675799701563292      -0.421069352265866     
 -0.144782283591071       6.315812468851349E-002  -3.17528539764312     
  -2.92528539764312       -2.67487477876307       -2.42451631071244     
  -2.17425437720212       -1.92409857690320       -1.67414834277886     
  -1.42443962039592       -1.17508169380291      -0.926162138482264     
 -0.677760173207599      -0.429681968368513      -0.178259298852930     
  6.384465575458295E-002
  0.000000000000000E+000  0.000000000000000E+000  5.110929543189381E-004
  1.744779685828920E-003  3.232861116508612E-003  5.170024887622669E-003
  7.253440469406240E-003  9.395622370227879E-003  1.132745336048004E-002
  1.281041084301890E-002  1.362206146603598E-002  1.424219979853188E-002
  9.233001487486930E-003  1.276174585992569E-002  0.290581825739480     
  0.290581825739480       0.291143329750176       0.288161109210317     
  0.286112458027381       0.281973388636701       0.277937551799630     
  0.273231080105999       0.268854193433231       0.265154950262115     
  0.263368683454746       0.265701243063737       0.271473709620207     
  0.297772073140836        1.14543974346790        1.14543974346790     
   1.14566619133425        1.14544912624981        1.14559945727814     
   1.14550384046369        1.14553887377269        1.14553217814333     
   1.14560812815875        1.14575091901016        1.14603513887525     
   1.14662905658636        1.14676403793155        1.14831491251174     
   2.51489251828899        2.51489251828899        2.51497731576401     
   2.51493267317744        2.51500618013722        2.51501325702399     
   2.51505810916828        2.51508874793919        2.51513115191690     
   2.51517464128026        2.51523112192008        2.51533096438213     
   2.51529990778164        2.51562729755035        4.31935253268844     
   4.31935253268844        4.31938264183444        4.31937163382034     
   4.31939570034527        4.31939937127635        4.31941253179312     
   4.31942054392666        4.31943033584494        4.31943911518342     
   4.31944970661962        4.31946858485992        4.31945394721139     
   4.31954752160024        6.45395112957464        6.45395112957464     
   6.45396123247391        6.45395795240405        6.45396536169600     
   6.45396628794851        6.45396987111885        6.45397179289789     
   6.45397414702511        6.45397617319124        6.45397870908632     
   6.45398362031943        6.45397864535775        6.45401106597084     
   8.79463319744677        8.79463319744677        8.79463562901666     
   8.79463484677087        8.79463655892707        8.79463673080711     
   8.79463750799886        8.79463789551946        8.79463838511619     
   8.79463880826257        8.79463936281904        8.79464049008147     
   8.79463930227003        8.79464749440910        11.2053668025532     
   11.2053668025532        11.2053643709833        11.2053651532291     
   11.2053634410729        11.2053632691929        11.2053624920011     
   11.2053621044805        11.2053616148838        11.2053611917374     
   11.2053606371810        11.2053595099185        11.2053606977300     
   11.2053525055909        13.5460488704254        13.5460488704254     
   13.5460387675261        13.5460420475959        13.5460346383040     
   13.5460337120515        13.5460301288812        13.5460282071021     
   13.5460258529749        13.5460238268088        13.5460212909137     
   13.5460163796806        13.5460213546423        13.5459889340292     
   15.6806474673116        15.6806474673116        15.6806173581656     
   15.6806283661797        15.6806042996547        15.6806006287237     
   15.6805874682069        15.6805794560733        15.6805696641551     
   15.6805608848166        15.6805502933804        15.6805314151401     
   15.6805460527886        15.6804524783998        17.4851074817110     
   17.4851074817110        17.4850226842360        17.4850673268226     
   17.4849938198628        17.4849867429760        17.4849418908317     
   17.4849112520608        17.4848688480831        17.4848253587197     
   17.4847688780799        17.4846690356179        17.4847000922184     
   17.4843727024497        18.8545602565321        18.8545602565321     
   18.8543338086657        18.8545508737502        18.8544005427219     
   18.8544961595363        18.8544611262273        18.8544678218567     
   18.8543918718412        18.8542490809898        18.8539648611247     
   18.8533709434136        18.8532359620685        18.8516850874882     
   19.7094181742605        19.7094181742605        19.7088566702498     
   19.7118388907897        19.7138875419726        19.7180266113633     
   19.7220624482004        19.7267689198940        19.7311458065668     
   19.7348450497379        19.7366313165453        19.7342987569363     
   19.7285262903798        19.7022279268592        20.0000000000000     
   20.0000000000000        19.9994889070457        19.9982552203142     
   19.9967671388835        19.9948299751124        19.9927465595306     
   19.9906043776298        19.9886725466395        19.9871895891570     
   19.9863779385340        19.9857578002015        19.9907669985125     
   19.9872382541401     
 -6.536680706074363E-003 -6.536680706074363E-003 -8.726149154370116E-004
  2.295930230439137E-003  6.255465518499205E-003  9.022045830128170E-003
  1.109451213511218E-002  1.181588721231054E-002  1.097141204887709E-002
  8.040258526192272E-003  2.373221020999480E-003 -7.019900414024725E-003
 -2.045645926300372E-002  3.034893718141472E-002 -6.536680706074363E-003
 -6.536680706074363E-003 -3.593637630335691E-002 -4.895446924825907E-002
 -6.904981851126586E-002 -8.443623694831900E-002 -0.101191150466886     
 -0.116168994082247      -0.130929198777520      -0.144464891388529     
 -0.156690379600343      -0.165473064855663      -0.161160184584011     
 -1.541659509186218E-002 -6.536680706074363E-003 -6.536680706074363E-003
 -2.797623846862724E-002 -3.676029762931170E-002 -5.087431603190289E-002
 -6.178305379433954E-002 -7.409240057280478E-002 -8.573101849501473E-002
 -9.793042906034352E-002 -0.110145863772898      -0.122334243810329     
 -0.132408747158977      -0.132136230369672       3.031929842776243E-002
 -6.536680706074363E-003 -6.536680706074363E-003 -2.668615297153863E-002
 -3.444374101604449E-002 -4.725096784277372E-002 -5.694378709323024E-002
 -6.803983603685759E-002 -7.856141671700682E-002 -8.972010778756043E-002
 -0.100951964137382      -0.112120072850717      -0.120939389220150     
 -0.119085908560982       4.731035838185066E-002 -6.536680706074363E-003
 -6.536680706074363E-003 -2.630850290873347E-002 -3.372245673840388E-002
 -4.608817239112389E-002 -5.533556952073976E-002 -6.596178091787144E-002
 -7.601210282125177E-002 -8.669714803117611E-002 -9.745835073611481E-002
 -0.108159793324438      -0.116512991721464      -0.114223276892338     
  5.290596463168599E-002 -6.536680706074363E-003 -6.536680706074363E-003
 -2.617515253670328E-002 -3.346830019285583E-002 -4.567725032289138E-002
 -5.476612408956718E-002 -6.522459975902152E-002 -7.510781674472242E-002
 -8.562774372868065E-002 -9.623028504130261E-002 -0.106782120114481     
 -0.114995611776268      -0.112580463115844       5.472954630100231E-002
 -6.536680706074363E-003 -6.536680706074363E-003 -2.612969376070321E-002
 -3.338343365756520E-002 -4.554122348686861E-002 -5.457928988902510E-002
 -6.498442946733968E-002 -7.481518204407631E-002 -8.528379121242294E-002
 -9.583752028963051E-002 -0.106343632186147      -0.114514497754359     
 -0.112060322038113       5.530279202838131E-002 -6.536680706074363E-003
 -6.536680706074363E-003 -2.612969376070324E-002 -3.338343365756522E-002
 -4.554122348686856E-002 -5.457928988902506E-002 -6.498442946733972E-002
 -7.481518204407639E-002 -8.528379121242297E-002 -9.583752028963057E-002
 -0.106343632186147      -0.114514497754359      -0.112060322038113     
  5.530279202838134E-002 -6.536680706074363E-003 -6.536680706074363E-003
 -2.617515253670331E-002 -3.346830019285584E-002 -4.567725032289139E-002
 -5.476612408956716E-002 -6.522459975902148E-002 -7.510781674472236E-002
 -8.562774372868065E-002 -9.623028504130271E-002 -0.106782120114481     
 -0.114995611776268      -0.112580463115844       5.472954630100234E-002
 -6.536680706074363E-003 -6.536680706074363E-003 -2.630850290873344E-002
 -3.372245673840388E-002 -4.608817239112398E-002 -5.533556952073978E-002
 -6.596178091787130E-002 -7.601210282125166E-002 -8.669714803117608E-002
 -9.745835073611486E-002 -0.108159793324438      -0.116512991721464     
 -0.114223276892338       5.290596463168602E-002 -6.536680706074363E-003
 -6.536680706074363E-003 -2.668615297153859E-002 -3.444374101604453E-002
 -4.725096784277370E-002 -5.694378709323018E-002 -6.803983603685751E-002
 -7.856141671700693E-002 -8.972010778756050E-002 -0.100951964137382     
 -0.112120072850717      -0.120939389220150      -0.119085908560982     
  4.731035838185076E-002 -6.536680706074363E-003 -6.536680706074363E-003
 -2.797623846862723E-002 -3.676029762931173E-002 -5.087431603190286E-002
 -6.178305379433940E-002 -7.409240057280461E-002 -8.573101849501467E-002
 -9.793042906034348E-002 -0.110145863772898      -0.122334243810329     
 -0.132408747158977      -0.132136230369672       3.031929842776264E-002
 -6.536680706074363E-003 -6.536680706074363E-003 -3.593637630335695E-002
 -4.895446924825899E-002 -6.904981851126557E-002 -8.443623694831881E-002
 -0.101191150466886      -0.116168994082247      -0.130929198777520     
 -0.144464891388529      -0.156690379600344      -0.165473064855664     
 -0.161160184584011      -1.541659509186185E-002 -6.536680706074363E-003
 -6.536680706074363E-003 -8.726149154369995E-004  2.295930230439140E-003
  6.255465518499140E-003  9.022045830128021E-003  1.109451213511216E-002
  1.181588721231052E-002  1.097141204887732E-002  8.040258526192605E-003
  2.373221021000021E-003 -7.019900414024347E-003 -2.045645926300391E-002
  3.034893718141483E-002
   1.10892567638957        1.09747943126000        1.08433596959880     
   1.06911226722641        1.05129973883409        1.03020640715806     
   1.00486259147205       0.973858434038998       0.935043765751740     
  0.884911471366558       0.817122145994892       0.717952076931788     
  0.545687230928579        1.70967718973379        1.68989876312098     
   1.66711504942870        1.64063624387196        1.60954396139755     
   1.57258527955507        1.52799981794014        1.47322374154820     
   1.40435192360063        1.31507668024105        1.19436106594707     
   1.02014754055350       0.735561100336828        2.00352160552806     
   1.97535191638772        1.94294337235398        1.90537647195558     
   1.86145722279845        1.80960608475144        1.74768437980462     
   1.67270957966126        1.58035263084665        1.46395879974757     
   1.31238267385890        1.10391394579400       0.782326100572016     
   2.10749934788512        2.07362347682979        2.03499061728117     
   1.99065925364340        1.93942615290331        1.87972219649234     
   1.80944735323888        1.72569643953580        1.62426711239531     
   1.49868926620788        1.33806052524169        1.12094440580768     
  0.791278928221502        2.14081425119516        2.10428200377187     
   2.06290527298872        2.01576037746364        1.96166712793758     
   1.89908508255534        1.82594861530297        1.73939243491094     
   1.63525863329197        1.50712425988876        1.34413341106689     
   1.12488759619166       0.793323245359819        2.15148918053293     
   2.11395621316765        2.07158046516018        2.02344563356405     
   1.96837959004969        1.90485053854391        1.83080192530550     
   1.74337776595346        1.63842940476177        1.50954269403987     
   1.34586936362122        1.12601564997301       0.793911270808085     
   2.15403599325893        2.11625149747839        2.07362811755225     
   2.02525113883741        1.96995008087233        1.90619483520523     
   1.83193054857300        1.74430292194289        1.63916492624379     
   1.51010392089124        1.34627288741357        1.12627868704179     
  0.794049049972261        2.15148918053293        2.11395621316765     
   2.07158046516018        2.02344563356405        1.96837959004969     
   1.90485053854391        1.83080192530550        1.74337776595346     
   1.63842940476177        1.50954269403987        1.34586936362122     
   1.12601564997301       0.793911270808084        2.14081425119516     
   2.10428200377187        2.06290527298872        2.01576037746364     
   1.96166712793758        1.89908508255534        1.82594861530296     
   1.73939243491094        1.63525863329196        1.50712425988876     
   1.34413341106689        1.12488759619166       0.793323245359819     
   2.10749934788513        2.07362347682979        2.03499061728117     
   1.99065925364340        1.93942615290331        1.87972219649234     
   1.80944735323888        1.72569643953580        1.62426711239531     
   1.49868926620788        1.33806052524169        1.12094440580768     
  0.791278928221502        2.00352160552807        1.97535191638772     
   1.94294337235398        1.90537647195558        1.86145722279845     
   1.80960608475144        1.74768437980462        1.67270957966126     
   1.58035263084665        1.46395879974757        1.31238267385890     
   1.10391394579400       0.782326100572015        1.70967718973379     
   1.68989876312098        1.66711504942870        1.64063624387196     
   1.60954396139755        1.57258527955507        1.52799981794014     
   1.47322374154820        1.40435192360063        1.31507668024105     
   1.19436106594707        1.02014754055351       0.735561100336828     
   1.10892567638957        1.09747943126000        1.08433596959880     
   1.06911226722641        1.05129973883409        1.03020640715806     
   1.00486259147205       0.973858434038999       0.935043765751740     
  0.884911471366559       0.817122145994892       0.717952076931788     
  0.545687230928579     
 Zone I=    2 J=1   K=1   T="FarWake"
 DATAPACKING=BLOCK
 VARLOCATION=([4]=CELLCENTERED)
  6.384465575458295E-002  6.384465575458295E-002
   19.9872382541401        19.9872382541401     
  3.034893718141483E-002  3.034893718141483E-002
  0.000000000000000E+000
