 Title = "Wing and Wake"
 VARIABLES = "X" "Y" "Z" "GAM"
 Zone I=    5 J=   14 K=1  T="Blade"
 DATAPACKING=BLOCK
 VARLOCATION=([4]=CELLCENTERED)
  -2.99619469809175       -2.74714602356881       -2.49809734904587     
  -2.24904867452294       -2.00000000000000       -2.99619469809175     
  -2.74714602356881       -2.49809734904587       -2.24904867452294     
  -2.00000000000000       -2.99619469809175       -2.74714602356881     
  -2.49809734904587       -2.24904867452294       -2.00000000000000     
  -2.99619469809175       -2.74714602356881       -2.49809734904587     
  -2.24904867452294       -2.00000000000000       -2.99619469809175     
  -2.74714602356881       -2.49809734904587       -2.24904867452294     
  -2.00000000000000       -2.99619469809175       -2.74714602356881     
  -2.49809734904587       -2.24904867452294       -2.00000000000000     
  -2.99619469809175       -2.74714602356881       -2.49809734904587     
  -2.24904867452294       -2.00000000000000       -2.99619469809175     
  -2.74714602356881       -2.49809734904587       -2.24904867452294     
  -2.00000000000000       -2.99619469809175       -2.74714602356881     
  -2.49809734904587       -2.24904867452294       -2.00000000000000     
  -2.99619469809175       -2.74714602356881       -2.49809734904587     
  -2.24904867452294       -2.00000000000000       -2.99619469809175     
  -2.74714602356881       -2.49809734904587       -2.24904867452294     
  -2.00000000000000       -2.99619469809175       -2.74714602356881     
  -2.49809734904587       -2.24904867452294       -2.00000000000000     
  -2.99619469809175       -2.74714602356881       -2.49809734904587     
  -2.24904867452294       -2.00000000000000       -2.99619469809175     
  -2.74714602356881       -2.49809734904587       -2.24904867452294     
  -2.00000000000000     
  0.000000000000000E+000  0.000000000000000E+000  0.000000000000000E+000
  0.000000000000000E+000  0.000000000000000E+000  0.290581825739480     
  0.290581825739480       0.290581825739480       0.290581825739480     
  0.290581825739480        1.14543974346790        1.14543974346790     
   1.14543974346790        1.14543974346790        1.14543974346790     
   2.51489251828899        2.51489251828899        2.51489251828899     
   2.51489251828899        2.51489251828899        4.31935253268844     
   4.31935253268844        4.31935253268844        4.31935253268844     
   4.31935253268844        6.45395112957464        6.45395112957464     
   6.45395112957464        6.45395112957464        6.45395112957464     
   8.79463319744677        8.79463319744677        8.79463319744677     
   8.79463319744677        8.79463319744677        11.2053668025532     
   11.2053668025532        11.2053668025532        11.2053668025532     
   11.2053668025532        13.5460488704254        13.5460488704254     
   13.5460488704254        13.5460488704254        13.5460488704254     
   15.6806474673116        15.6806474673116        15.6806474673116     
   15.6806474673116        15.6806474673116        17.4851074817110     
   17.4851074817110        17.4851074817110        17.4851074817110     
   17.4851074817110        18.8545602565321        18.8545602565321     
   18.8545602565321        18.8545602565321        18.8545602565321     
   19.7094181742605        19.7094181742605        19.7094181742605     
   19.7094181742605        19.7094181742605        20.0000000000000     
   20.0000000000000        20.0000000000000        20.0000000000000     
   20.0000000000000     
  8.715574274765817E-002  6.536680706074363E-002  4.357787137382908E-002
  2.178893568691454E-002  0.000000000000000E+000  8.715574274765817E-002
  6.536680706074363E-002  4.357787137382908E-002  2.178893568691454E-002
  0.000000000000000E+000  8.715574274765817E-002  6.536680706074363E-002
  4.357787137382908E-002  2.178893568691454E-002  0.000000000000000E+000
  8.715574274765817E-002  6.536680706074363E-002  4.357787137382908E-002
  2.178893568691454E-002  0.000000000000000E+000  8.715574274765817E-002
  6.536680706074363E-002  4.357787137382908E-002  2.178893568691454E-002
  0.000000000000000E+000  8.715574274765817E-002  6.536680706074363E-002
  4.357787137382908E-002  2.178893568691454E-002  0.000000000000000E+000
  8.715574274765817E-002  6.536680706074363E-002  4.357787137382908E-002
  2.178893568691454E-002  0.000000000000000E+000  8.715574274765817E-002
  6.536680706074363E-002  4.357787137382908E-002  2.178893568691454E-002
  0.000000000000000E+000  8.715574274765817E-002  6.536680706074363E-002
  4.357787137382908E-002  2.178893568691454E-002  0.000000000000000E+000
  8.715574274765817E-002  6.536680706074363E-002  4.357787137382908E-002
  2.178893568691454E-002  0.000000000000000E+000  8.715574274765817E-002
  6.536680706074363E-002  4.357787137382908E-002  2.178893568691454E-002
  0.000000000000000E+000  8.715574274765817E-002  6.536680706074363E-002
  4.357787137382908E-002  2.178893568691454E-002  0.000000000000000E+000
  8.715574274765817E-002  6.536680706074363E-002  4.357787137382908E-002
  2.178893568691454E-002  0.000000000000000E+000  8.715574274765817E-002
  6.536680706074363E-002  4.357787137382908E-002  2.178893568691454E-002
  0.000000000000000E+000
  0.659407000346137       0.876009910176955       0.983881562961461     
   1.03020640715806       0.936214089490221        1.29909523496531     
   1.49004894138584        1.57258527955507        1.05758943338826     
   1.48177291430252        1.71069803107077        1.80960608475144     
   1.09734064201258        1.53924574213405        1.77791685271992     
   1.87972219649234        1.10913094658486        1.55584912289665     
   1.79688568356479        1.89908508255534        1.11275921695492     
   1.56089336708427        1.80258603406398        1.90485053854391     
   1.11361471944413        1.56207718827614        1.80391884052276     
   1.90619483520523        1.11275921695492        1.56089336708427     
   1.80258603406398        1.90485053854391        1.10913094658486     
   1.55584912289665        1.79688568356479        1.89908508255534     
   1.09734064201258        1.53924574213405        1.77791685271992     
   1.87972219649234        1.05758943338826        1.48177291430252     
   1.71069803107077        1.80960608475144       0.936214089490221     
   1.29909523496531        1.49004894138584        1.57258527955507     
  0.659407000346137       0.876009910176954       0.983881562961461     
   1.03020640715806     
 Zone I=    9 J=   14 K=1  T="NearWake"
 DATAPACKING=BLOCK
 VARLOCATION=([4]=CELLCENTERED)
  -1.92528539764312       -1.67528539764312       -1.42503935629764     
  -1.17489957917300      -0.925005795183356      -0.675374575287526     
 -0.426094139945697      -0.175913901197495       7.136493317179834E-002
  -1.92528539764312       -1.67528539764312       -1.42613590693232     
  -1.17612177190418      -0.926592437018289      -0.676436920150745     
 -0.425251815000521      -0.165549720863431       7.095686326884483E-002
  -1.92528539764312       -1.67528539764312       -1.42653288001388     
  -1.17669797499385      -0.927260699741726      -0.676806085568931     
 -0.424797364535569      -0.161714991694874       6.705124895164162E-002
  -1.92528539764312       -1.67528539764312       -1.42648598445659     
  -1.17654891962781      -0.927019442069534      -0.676383559011092     
 -0.424108444032355      -0.160201134440414       6.620618627276273E-002
  -1.92528539764312       -1.67528539764312       -1.42647058518203     
  -1.17649919084533      -0.926946997049035      -0.676269300107668     
 -0.423942714941444      -0.159884859540021       6.601466661820840E-002
  -1.92528539764312       -1.67528539764312       -1.42646636006200     
  -1.17648458155604      -0.926925414194283      -0.676235914880354     
 -0.423895610738845      -0.159801544937943       6.597725977359530E-002
  -1.92528539764312       -1.67528539764312       -1.42646513200292     
  -1.17648030528679      -0.926918965357741      -0.676225981719092     
 -0.423881623305567      -0.159777359631751       6.596860459938836E-002
  -1.92528539764312       -1.67528539764312       -1.42646513200292     
  -1.17648030528679      -0.926918965357741      -0.676225981719092     
 -0.423881623305567      -0.159777359631751       6.596860459938839E-002
  -1.92528539764312       -1.67528539764312       -1.42646636006200     
  -1.17648458155604      -0.926925414194283      -0.676235914880354     
 -0.423895610738845      -0.159801544937943       6.597725977359530E-002
  -1.92528539764312       -1.67528539764312       -1.42647058518203     
  -1.17649919084533      -0.926946997049035      -0.676269300107668     
 -0.423942714941444      -0.159884859540021       6.601466661820836E-002
  -1.92528539764312       -1.67528539764312       -1.42648598445659     
  -1.17654891962781      -0.927019442069534      -0.676383559011092     
 -0.424108444032355      -0.160201134440414       6.620618627276273E-002
  -1.92528539764312       -1.67528539764312       -1.42653288001388     
  -1.17669797499385      -0.927260699741726      -0.676806085568931     
 -0.424797364535569      -0.161714991694874       6.705124895164156E-002
  -1.92528539764312       -1.67528539764312       -1.42613590693232     
  -1.17612177190418      -0.926592437018289      -0.676436920150745     
 -0.425251815000521      -0.165549720863431       7.095686326884473E-002
  -1.92528539764312       -1.67528539764312       -1.42503935629764     
  -1.17489957917300      -0.925005795183356      -0.675374575287526     
 -0.426094139945697      -0.175913901197495       7.136493317179841E-002
  0.000000000000000E+000  0.000000000000000E+000  4.360530022174828E-004
  1.260203473578177E-003  2.190130824102180E-003  3.128740388418835E-003
  3.998336719754681E-003  2.995929265728186E-003  4.335881608896974E-003
  0.290581825739480       0.290581825739480       0.291065592998196     
  0.288667519464001       0.287387135300788       0.285093251871535     
  0.284367186396701       0.284364086755170       0.293200848246082     
   1.14543974346790        1.14543974346790        1.14565672062340     
   1.14552701910725        1.14571681689857        1.14576211342193     
   1.14600018913293        1.14598099494618        1.14646319321503     
   2.51489251828899        2.51489251828899        2.51495907206501     
   2.51493578987106        2.51498997023114        2.51500494908854     
   2.51505608524052        2.51504812398441        2.51514717833528     
   4.31935253268844        4.31935253268844        4.31937095198825     
   4.31936497671455        4.31937833278583        4.31938148402212     
   4.31939272005966        4.31938921916487        4.31941644046656     
   6.45395112957464        6.45395112957464        6.45395645740221     
   6.45395460272337        6.45395825800919        6.45395897871432     
   6.45396198784912        6.45396071470262        6.45396981833506     
   8.79463319744677        8.79463319744677        8.79463440823005     
   8.79463396021144        8.79463477875107        8.79463492497478     
   8.79463560453106        8.79463528635188        8.79463755207209     
   11.2053668025532        11.2053668025532        11.2053655917699     
   11.2053660397886        11.2053652212489        11.2053650750252     
   11.2053643954689        11.2053647136481        11.2053624479279     
   13.5460488704254        13.5460488704254        13.5460435425978     
   13.5460453972766        13.5460417419908        13.5460410212857     
   13.5460380121509        13.5460392852974        13.5460301816649     
   15.6806474673116        15.6806474673116        15.6806290480118     
   15.6806350232855        15.6806216672142        15.6806185159779     
   15.6806072799403        15.6806107808351        15.6805835595334     
   17.4851074817110        17.4851074817110        17.4850409279350     
   17.4850642101289        17.4850100297689        17.4849950509115     
   17.4849439147595        17.4849518760156        17.4848528216647     
   18.8545602565321        18.8545602565321        18.8543432793766     
   18.8544729808927        18.8542831831014        18.8542378865781     
   18.8539998108671        18.8540190050538        18.8535368067850     
   19.7094181742605        19.7094181742605        19.7089344070018     
   19.7113324805360        19.7126128646992        19.7149067481285     
   19.7156328136033        19.7156359132448        19.7067991517539     
   20.0000000000000        20.0000000000000        19.9995639469978     
   19.9987397965264        19.9978098691759        19.9968712596116     
   19.9960016632802        19.9970040707343        19.9956641183911     
 -6.536680706074363E-003 -6.536680706074363E-003 -3.576017436057802E-003
 -2.494774178479413E-003 -2.303472232014744E-003 -4.135567971019242E-003
 -8.783919598241824E-003 -1.655462270472478E-002  1.287807850903225E-002
 -6.536680706074363E-003 -6.536680706074363E-003 -3.541551436643101E-002
 -4.808261056790564E-002 -6.733238868296222E-002 -8.149307690659682E-002
 -9.543979936126062E-002 -0.101826211421817      -1.398775920521306E-002
 -6.536680706074363E-003 -6.536680706074363E-003 -2.861716092397510E-002
 -3.798776098497651E-002 -5.304035815285500E-002 -6.487918109191965E-002
 -7.750625263485027E-002 -8.453328213821565E-002  1.240917414435187E-002
 -6.536680706074363E-003 -6.536680706074363E-003 -2.768292898225543E-002
 -3.628050699388813E-002 -5.038496591926260E-002 -6.127809827845055E-002
 -7.283387709419299E-002 -7.862227229319843E-002  2.137436382222915E-002
 -6.536680706074363E-003 -6.536680706074363E-003 -2.740372856256110E-002
 -3.572706839769738E-002 -4.947954693671112E-002 -6.000678083673430E-002
 -7.117381447644980E-002 -7.657832713317451E-002  2.405269807639536E-002
 -6.536680706074363E-003 -6.536680706074363E-003 -2.730387030105025E-002
 -3.553584630601517E-002 -4.917233420712613E-002 -5.958483567549062E-002
 -7.063501945256140E-002 -7.592905900007969E-002  2.486352393906265E-002
 -6.536680706074363E-003 -6.536680706074363E-003 -2.727084366760118E-002
 -3.547461922248300E-002 -4.907552618345579E-002 -5.945370082734338E-002
 -7.046919727312069E-002 -7.573046472898666E-002  2.510886851591116E-002
 -6.536680706074363E-003 -6.536680706074363E-003 -2.727084366760122E-002
 -3.547461922248298E-002 -4.907552618345582E-002 -5.945370082734341E-002
 -7.046919727312066E-002 -7.573046472898659E-002  2.510886851591117E-002
 -6.536680706074363E-003 -6.536680706074363E-003 -2.730387030105027E-002
 -3.553584630601517E-002 -4.917233420712616E-002 -5.958483567549060E-002
 -7.063501945256140E-002 -7.592905900007965E-002  2.486352393906266E-002
 -6.536680706074363E-003 -6.536680706074363E-003 -2.740372856256106E-002
 -3.572706839769736E-002 -4.947954693671114E-002 -6.000678083673434E-002
 -7.117381447644981E-002 -7.657832713317450E-002  2.405269807639538E-002
 -6.536680706074363E-003 -6.536680706074363E-003 -2.768292898225547E-002
 -3.628050699388818E-002 -5.038496591926264E-002 -6.127809827845056E-002
 -7.283387709419302E-002 -7.862227229319836E-002  2.137436382222921E-002
 -6.536680706074363E-003 -6.536680706074363E-003 -2.861716092397509E-002
 -3.798776098497648E-002 -5.304035815285502E-002 -6.487918109191973E-002
 -7.750625263485032E-002 -8.453328213821562E-002  1.240917414435199E-002
 -6.536680706074363E-003 -6.536680706074363E-003 -3.541551436643112E-002
 -4.808261056790575E-002 -6.733238868296240E-002 -8.149307690659724E-002
 -9.543979936126123E-002 -0.101826211421817      -1.398775920521288E-002
 -6.536680706074363E-003 -6.536680706074363E-003 -3.576017436057795E-003
 -2.494774178479324E-003 -2.303472232014621E-003 -4.135567971019010E-003
 -8.783919598241510E-003 -1.655462270472485E-002  1.287807850903235E-002
   1.03020640715806        1.00486259147205       0.973858434038998     
  0.935043765751740       0.884911471366558       0.817122145994892     
  0.717952076931788       0.545687230928579        1.57258527955507     
   1.52799981794014        1.47322374154820        1.40435192360063     
   1.31507668024105        1.19436106594707        1.02014754055350     
  0.735561100336828        1.80960608475144        1.74768437980462     
   1.67270957966126        1.58035263084665        1.46395879974757     
   1.31238267385890        1.10391394579400       0.782326100572016     
   1.87972219649234        1.80944735323888        1.72569643953580     
   1.62426711239531        1.49868926620788        1.33806052524169     
   1.12094440580768       0.791278928221502        1.89908508255534     
   1.82594861530297        1.73939243491094        1.63525863329197     
   1.50712425988876        1.34413341106689        1.12488759619166     
  0.793323245359819        1.90485053854391        1.83080192530550     
   1.74337776595346        1.63842940476177        1.50954269403987     
   1.34586936362122        1.12601564997301       0.793911270808085     
   1.90619483520523        1.83193054857300        1.74430292194289     
   1.63916492624379        1.51010392089124        1.34627288741357     
   1.12627868704179       0.794049049972261        1.90485053854391     
   1.83080192530550        1.74337776595346        1.63842940476177     
   1.50954269403987        1.34586936362122        1.12601564997301     
  0.793911270808084        1.89908508255534        1.82594861530296     
   1.73939243491094        1.63525863329196        1.50712425988876     
   1.34413341106689        1.12488759619166       0.793323245359819     
   1.87972219649234        1.80944735323888        1.72569643953580     
   1.62426711239531        1.49868926620788        1.33806052524169     
   1.12094440580768       0.791278928221502        1.80960608475144     
   1.74768437980462        1.67270957966126        1.58035263084665     
   1.46395879974757        1.31238267385890        1.10391394579400     
  0.782326100572015        1.57258527955507        1.52799981794014     
   1.47322374154820        1.40435192360063        1.31507668024105     
   1.19436106594707        1.02014754055351       0.735561100336828     
   1.03020640715806        1.00486259147205       0.973858434038999     
  0.935043765751740       0.884911471366559       0.817122145994892     
  0.717952076931788       0.545687230928579     
 Zone I=    2 J=1   K=1   T="FarWake"
 DATAPACKING=BLOCK
 VARLOCATION=([4]=CELLCENTERED)
  7.136493317179841E-002  7.136493317179841E-002
   19.9956641183911        19.9956641183911     
  1.287807850903235E-002  1.287807850903235E-002
  0.000000000000000E+000
