 Title = "Wing and Wake"
 VARIABLES = "X" "Y" "Z" "GAM"
 Zone I=    5 J=   14 K=1  T="Blade"
 DATAPACKING=BLOCK
 VARLOCATION=([4]=CELLCENTERED)
  -14.7461946980917       -14.4971460235688       -14.2480973490459     
  -13.9990486745229       -13.7500000000000       -14.7461946980917     
  -14.4971460235688       -14.2480973490459       -13.9990486745229     
  -13.7500000000000       -14.7461946980917       -14.4971460235688     
  -14.2480973490459       -13.9990486745229       -13.7500000000000     
  -14.7461946980917       -14.4971460235688       -14.2480973490459     
  -13.9990486745229       -13.7500000000000       -14.7461946980917     
  -14.4971460235688       -14.2480973490459       -13.9990486745229     
  -13.7500000000000       -14.7461946980917       -14.4971460235688     
  -14.2480973490459       -13.9990486745229       -13.7500000000000     
  -14.7461946980917       -14.4971460235688       -14.2480973490459     
  -13.9990486745229       -13.7500000000000       -14.7461946980917     
  -14.4971460235688       -14.2480973490459       -13.9990486745229     
  -13.7500000000000       -14.7461946980917       -14.4971460235688     
  -14.2480973490459       -13.9990486745229       -13.7500000000000     
  -14.7461946980917       -14.4971460235688       -14.2480973490459     
  -13.9990486745229       -13.7500000000000       -14.7461946980917     
  -14.4971460235688       -14.2480973490459       -13.9990486745229     
  -13.7500000000000       -14.7461946980917       -14.4971460235688     
  -14.2480973490459       -13.9990486745229       -13.7500000000000     
  -14.7461946980917       -14.4971460235688       -14.2480973490459     
  -13.9990486745229       -13.7500000000000       -14.7461946980917     
  -14.4971460235688       -14.2480973490459       -13.9990486745229     
  -13.7500000000000     
  0.000000000000000E+000  0.000000000000000E+000  0.000000000000000E+000
  0.000000000000000E+000  0.000000000000000E+000  0.290581825739480     
  0.290581825739480       0.290581825739480       0.290581825739480     
  0.290581825739480        1.14543974346790        1.14543974346790     
   1.14543974346790        1.14543974346790        1.14543974346790     
   2.51489251828899        2.51489251828899        2.51489251828899     
   2.51489251828899        2.51489251828899        4.31935253268844     
   4.31935253268844        4.31935253268844        4.31935253268844     
   4.31935253268844        6.45395112957464        6.45395112957464     
   6.45395112957464        6.45395112957464        6.45395112957464     
   8.79463319744677        8.79463319744677        8.79463319744677     
   8.79463319744677        8.79463319744677        11.2053668025532     
   11.2053668025532        11.2053668025532        11.2053668025532     
   11.2053668025532        13.5460488704254        13.5460488704254     
   13.5460488704254        13.5460488704254        13.5460488704254     
   15.6806474673116        15.6806474673116        15.6806474673116     
   15.6806474673116        15.6806474673116        17.4851074817110     
   17.4851074817110        17.4851074817110        17.4851074817110     
   17.4851074817110        18.8545602565321        18.8545602565321     
   18.8545602565321        18.8545602565321        18.8545602565321     
   19.7094181742605        19.7094181742605        19.7094181742605     
   19.7094181742605        19.7094181742605        20.0000000000000     
   20.0000000000000        20.0000000000000        20.0000000000000     
   20.0000000000000     
  8.715574274765817E-002  6.536680706074363E-002  4.357787137382908E-002
  2.178893568691454E-002  0.000000000000000E+000  8.715574274765817E-002
  6.536680706074363E-002  4.357787137382908E-002  2.178893568691454E-002
  0.000000000000000E+000  8.715574274765817E-002  6.536680706074363E-002
  4.357787137382908E-002  2.178893568691454E-002  0.000000000000000E+000
  8.715574274765817E-002  6.536680706074363E-002  4.357787137382908E-002
  2.178893568691454E-002  0.000000000000000E+000  8.715574274765817E-002
  6.536680706074363E-002  4.357787137382908E-002  2.178893568691454E-002
  0.000000000000000E+000  8.715574274765817E-002  6.536680706074363E-002
  4.357787137382908E-002  2.178893568691454E-002  0.000000000000000E+000
  8.715574274765817E-002  6.536680706074363E-002  4.357787137382908E-002
  2.178893568691454E-002  0.000000000000000E+000  8.715574274765817E-002
  6.536680706074363E-002  4.357787137382908E-002  2.178893568691454E-002
  0.000000000000000E+000  8.715574274765817E-002  6.536680706074363E-002
  4.357787137382908E-002  2.178893568691454E-002  0.000000000000000E+000
  8.715574274765817E-002  6.536680706074363E-002  4.357787137382908E-002
  2.178893568691454E-002  0.000000000000000E+000  8.715574274765817E-002
  6.536680706074363E-002  4.357787137382908E-002  2.178893568691454E-002
  0.000000000000000E+000  8.715574274765817E-002  6.536680706074363E-002
  4.357787137382908E-002  2.178893568691454E-002  0.000000000000000E+000
  8.715574274765817E-002  6.536680706074363E-002  4.357787137382908E-002
  2.178893568691454E-002  0.000000000000000E+000  8.715574274765817E-002
  6.536680706074363E-002  4.357787137382908E-002  2.178893568691454E-002
  0.000000000000000E+000
  0.756507993458570        1.01898586004257        1.16214571086831     
   1.23859103463426        1.09305135895307        1.53702288738646     
   1.79112924241805        1.92711141259828        1.27375912999277     
   1.81186194574485        2.13036288241151        2.30497221993246     
   1.36088584090538        1.94105300809185        2.28741264511388     
   2.47870872400199        1.40239038030353        2.00174532679262     
   2.36040703839712        2.55890147201102        1.42107401904907     
   2.02886290000076        2.39281958111625        2.59435161098851     
   1.42622205962457        2.03629820075851        2.40166874683645     
   2.60399913869623        1.42055901701727        2.02808198887160     
   2.39184928253620        2.59325867874335        1.40195877036002     
   2.00105411478625        2.35950705475009        2.55784794307307     
   1.36127426796791        1.94153297123881        2.28788819419512     
   2.47912839683931        1.27518341040355        1.81383618610513     
   2.13261451793101        2.30731914506714        1.09500083351277     
   1.53972956253998        1.79423734366077        1.93038866452224     
  0.758073599851035        1.02105992882361        1.16448323394923     
   1.24104949446634     
 Zone I=   31 J=   14 K=1  T="NearWake"
 DATAPACKING=BLOCK
 VARLOCATION=([4]=CELLCENTERED)
  -13.6752853976431       -13.4252853976431       -13.1749676089192     
  -12.9244173067031       -12.6737934714003       -12.4231517202289     
  -12.1725084233489       -11.9218697420519       -11.6712391542526     
  -11.4206175796761       -11.1700095858463       -10.9194097584015     
  -10.6688371926590       -10.4182577747965       -10.1677486597093     
  -9.91717961259070       -9.66677571346490       -9.41621721132308     
  -9.16596758215402       -8.91535896556898       -8.66549159173740     
  -8.41448400836655       -8.16535807180726       -7.91406255202553     
  -7.66416949862306       -7.41679726627204       -7.15729634079228     
  -6.91276551385611       -6.66099637212196       -6.41113805925950     
  -6.16137068544403       -13.6752853976431       -13.4252853976431     
  -13.1754939260777       -12.9253388603209       -12.6750252252023     
  -12.4246281325649       -12.1741791173312       -11.9236950594085     
  -11.6731863461894       -11.4226604637669       -11.1721221818472     
  -10.9215778957137       -10.6710261368648       -10.4204847009680     
  -10.1699190576965       -9.91943285393415       -9.66876353484356     
  -9.41858628390519       -9.16732802210158       -8.91836949971966     
  -8.66512791311207       -8.41904768724275       -8.16246144664612     
  -7.91904767878287       -7.66094918855436       -7.41736519039306     
  -7.15957446725066       -6.91352385255669       -6.66256661152712     
  -6.41218769078339       -6.16220884199314       -13.6752853976431     
  -13.4252853976431       -13.1759363197478       -12.9264418000540     
  -12.6768448738961       -12.4271725134575       -12.1774424077866     
  -11.9276668310788       -11.6778546308444       -11.4280123026338     
  -11.1781449077187       -10.9282563597747       -10.6783501014733     
  -10.4284289487822       -10.1784954485117       -9.92855249980490     
  -9.67860062380595       -9.42864603651149       -9.17868072997506     
  -8.92872666387400       -8.67874106749791       -8.42881422463632     
  -8.17874509317349       -7.92896737396160       -7.67854053222923     
  -7.42901466076297       -7.17909740422213       -6.92931477827124     
  -6.67931449080083       -6.42943898784732       -6.17952838297772     
  -13.6752853976431       -13.4252853976431       -13.1759519158165     
  -12.9264705767939       -12.6768885823332       -12.4272352711921     
  -12.1775292774517       -11.9277830101357       -11.6780051584397     
  -11.4282019797135       -11.1783782587514       -10.9285375529653     
  -10.6786828456211       -10.4288163672484       -10.1789399197918     
  -9.92905567431906       -9.67916286388797       -9.42926798204294     
  -9.17935872153343       -8.92946536010026       -8.67952424853671     
  -8.42966895761387       -8.17962837598076       -7.92993483622279     
  -7.67954378024761       -7.43015254094021       -7.18016104295286     
  -6.93038847480358       -6.68039369409951       -6.43055277965101     
  -6.18060723295214       -13.6752853976431       -13.4252853976431     
  -13.1759548175992       -12.9264683396839       -12.6768770750410     
  -12.4272126374674       -12.1774949896546       -11.9277372975595     
  -11.6779486418451       -11.4281354451394       -11.1783025071945     
  -10.9284533346697       -10.6785907607259       -10.4287169471689     
  -10.1788333631575       -9.92894238295548       -9.67904225808880     
  -9.42914102898771       -9.17922248366121       -8.92932448397881     
  -8.67936648888336       -8.42951562501909       -8.17943022888635     
  -7.92977786520901       -7.67925548372639       -7.43008755061564     
  -7.17985565539685       -6.93014360042615       -6.68007835571454     
  -6.43024465077279       -6.18026287540019       -13.6752853976431     
  -13.4252853976431       -13.1759574080109       -12.9264689549133     
  -12.6768730608935       -12.4272024450733       -12.1774777441496     
  -11.9277125488452       -11.6779162080689       -11.4280953165745     
  -11.1782547654126       -10.9283981309654       -10.6785282249581     
  -10.4286472798877       -10.1787565758408       -9.92885876106726     
  -9.67895139630909       -9.42904366569874       -9.17911688208008     
  -8.92921336074856       -8.67924342545810       -8.42939163916274     
  -8.17928012103358       -7.92965091053103       -7.67903438019660     
  -7.43004483755071       -7.17963387533965       -6.92997726266002     
  -6.67986661946428       -6.43004039342837       -6.18003802237274     
  -13.6752853976431       -13.4252853976431       -13.1759588214402     
  -12.9264699135672       -12.6768724612584       -12.4271996126065     
  -12.1774722685362       -11.9277041866605       -11.6779048248548     
  -11.4280808521971       -11.1782372017991       -10.9283774890635     
  -10.6785045190564       -10.4286205710335       -10.1787268342968     
  -9.92882610606070       -9.67891561118547       -9.42900508471253     
  -9.17907470193200       -8.92916874662810       -8.67919362274211     
  -8.42934122181717       -8.17921825017939       -7.92959967715516     
  -7.67893529457779       -7.43003948811944       -7.17953715465606     
  -6.92990967126564       -6.67977849428857       -6.42995684084346     
  -6.17994601751399       -13.6752853976431       -13.4252853976431     
  -13.1759587140138       -12.9264698004988       -12.6768724226822     
  -12.4271997111582       -12.1774725610271       -11.9277047242929     
  -11.6779056561531       -11.4280820225583       -11.1782387543670     
  -10.9283794628351       -10.6785069507762       -10.4286234885184     
  -10.1787302659233       -9.92883005717896       -9.67892010340483     
  -9.42901007494806       -9.17908022169239       -8.92917464569646     
  -8.67919999402067       -8.42934770686819       -8.17922505025360     
  -7.92960629413684       -7.67894110485481       -7.43004400530146     
  -7.17954237348160       -6.92991471532320       -6.67978342451835     
  -6.42996149807025       -6.17995028321532       -13.6752853976431     
  -13.4252853976431       -13.1759571503120       -12.9264686446201     
  -12.6768728775271       -12.4272025372731       -12.1774782544090     
  -11.9277136123506       -11.6779179593737       -11.4280978884768     
  -11.1782582911845       -10.9284027404256       -10.6785340489107     
  -10.4286544355451       -10.1787651880291       -9.92886890932111     
  -9.67896320282846       -9.42905711183193       -9.17913212212808     
  -8.92923013928240       -8.67926203544598       -8.42941135307097     
  -8.17930143913786       -7.92967281193615       -7.67905515388886     
  -7.43006288898147       -7.17965510108481       -6.92999934317295     
  -6.67988970240145       -6.43006406312784       -6.18006190722730     
  -13.6752853976431       -13.4252853976431       -13.1759545414638     
  -12.9264678464645       -12.6768764774546       -12.4272120508469     
  -12.1774945437114       -11.9277371303307       -11.6779489043467     
  -11.4281363000578       -11.1783041312908       -10.9284559171910     
  -10.6785945078718       -10.4287220740199       -10.1788401106037     
  -9.92895098282179       -9.67905299929919       -9.42915412665411     
  -9.17923831318023       -8.92934315200720       -8.67938854175635     
  -8.42954090674829       -8.17945944384494       -7.92981085578577     
  -7.67929028129743       -7.43012209062951       -7.17989889590875     
  -6.93019340126659       -6.68013551015562       -6.43030938628537     
  -6.18033534499138       -13.6752853976431       -13.4252853976431     
  -13.1759517364737       -12.9264699145935       -12.6768873105221     
  -12.4272333285008       -12.1775266446534       -11.9277796970761     
  -11.6780011991657       -11.4281974286415       -11.1783731881078     
  -10.9285320527412       -10.6786770202873       -10.4288103413230     
  -10.1789338289265       -9.92904968606171       -9.67915714927151     
  -9.42926277994491       -9.17935424985820       -8.92946200159098     
  -8.67952227642949       -8.42966910271074       -8.17963085028140     
  -7.92994142747069       -7.67955264373466       -7.43016473781422     
  -7.18018344757908       -6.93042429187835       -6.68044675160534     
  -6.43062904815535       -6.18071371800935       -13.6752853976431     
  -13.4252853976431       -13.1759362145076       -12.9264408678180     
  -12.6768426737492       -12.4271687497852       -12.1774368722669     
  -11.9276593765613       -11.6778451506090       -11.4280007134490     
  -11.1781311397933       -10.9282403477769       -10.6783317620869     
  -10.4284081918054       -10.1784721235341       -9.92852645173304     
  -9.67857155469632       -9.42861368545358       -9.17864454464374     
  -8.92868621150702       -8.67869544923098       -8.42876271723974     
  -8.17868641357063       -7.92890061166762       -7.67846271315070     
  -7.42892688118778       -7.17899207247951       -6.92919501446972     
  -6.67917987792327       -6.42930467904771       -6.17949558140345     
  -13.6752853976431       -13.4252853976431       -13.1754918789423     
  -12.9253323044598       -12.6750134354610       -12.4246110144733     
  -12.1741567927298       -11.9236677602299       -11.6731543602441     
  -11.4226241120806       -11.1720817929583       -10.9215338184680     
  -10.6709786694362       -10.4204341923788       -10.1698656959937     
  -9.91937688532706       -9.66870524794528       -9.41852488454777     
  -9.16726618499661       -8.91830057642594       -8.66506560804914     
  -8.41896385448452       -8.16240944193292       -7.91893637365328     
  -7.66092316747377       -7.41725348928558       -7.15953363518089     
  -6.91344762718422       -6.66250714240258       -6.41215047228747     
  -6.16218088972875       -13.6752853976431       -13.4252853976431     
  -13.1749675086805       -12.9244172528791       -12.6737937810144     
  -12.4231527697969       -12.1725105766514       -11.9218733439364     
  -11.6712445193370       -11.4206249869475       -11.1700192771988     
  -10.9194219178182       -10.6688519660433       -10.4182751845150     
  -10.1677687283164       -9.91720210969815       -9.66680039796806     
  -9.41624356810748       -9.16599457200983       -8.91538613729845     
  -8.66551586780037       -8.41450531624641       -8.16536901453939     
  -7.91406505086600       -7.66414347045960       -7.41674985343509     
  -7.15722229855187       -6.91264834219241       -6.66082619511846     
  -6.41089199543034       -6.16102456583032     
  0.000000000000000E+000  0.000000000000000E+000  3.804693978692676E-004
  1.485913208633793E-003  3.364401636894893E-003  6.016385066683765E-003
  9.427656911459232E-003  1.357023957474520E-002  1.840825379038101E-002
  2.389780908646455E-002  2.999579767508000E-002  3.663821126021771E-002
  4.379993134275689E-002  5.134227502762459E-002  5.936540746704714E-002
  6.745982150148416E-002  7.617532417544010E-002  8.444044209811735E-002
  9.349256455056479E-002  0.102274995833666       0.109127921748166     
  0.122901985667272       0.121428632983238       0.143460185192504     
  0.137804719098353       0.155092479127261       0.157951117442445     
  0.170153348868398       0.176186996876331       0.182672261595407     
  0.187788311591952       0.290581825739480       0.290581825739480     
  0.290950919444116       0.289528381191150       0.286629604877612     
  0.282264645300739       0.276493421435505       0.269386554931704     
  0.261017536711763       0.251479919599628       0.240831630217491     
  0.229253935637380       0.216633315319384       0.203597358163600     
  0.189129482677778       0.175651783867660       0.159093564816491     
  0.146417647105511       0.127699125763345       0.117022761443278     
  9.472451708589942E-002  9.127517538920087E-002  5.576239592004592E-002
  7.450153399274849E-002  1.242602823294457E-002  5.074838763431713E-002
  4.968819003000540E-003 -2.033135437354961E-003 -1.297750803451920E-002
 -2.660199046555183E-002 -3.506421360086203E-002   1.14543974346790     
   1.14543974346790        1.14557010755695        1.14555623363317     
   1.14551601179168        1.14543329839920        1.14530303284729     
   1.14512229495205        1.14488841745420        1.14459987242680     
   1.14425342850501        1.14384998872520        1.14338191092431     
   1.14286020659558        1.14225806099254        1.14162729747761     
   1.14086306983104        1.14017243193168        1.13915678532264     
   1.13858198319390        1.13700457909285        1.13712576886532     
   1.13386286748111        1.13774394634188        1.12586438624610     
   1.14156900303661        1.12326770088962        1.13249213641650     
   1.12704889107311        1.12715685969464        1.12591583444107     
   2.51489251828899        2.51489251828899        2.51494415014189     
   2.51494814485752        2.51495319908466        2.51495471875682     
   2.51495160511788        2.51494327273966        2.51492927656984     
   2.51490952185951        2.51488341124074        2.51485166119342     
   2.51481232502517        2.51476933362648        2.51471431861992     
   2.51466498641741        2.51458472285302        2.51455022613459     
   2.51440371183159        2.51447179005366        2.51408474701229     
   2.51461873621984        2.51326892819755        2.51578540712732     
   2.51057976542186        2.51785427953719        2.51065642491272     
   2.51494590119048        2.51314496260323        2.51348154627683     
   2.51332671470335        4.31935253268844        4.31935253268844     
   4.31937499742653        4.31937727826112        4.31938071485674     
   4.31938369759181        4.31938592661837        4.31938726887646     
   4.31938767133520        4.31938718316293        4.31938564621118     
   4.31938336575259        4.31937963840294        4.31937592398325     
   4.31936910365030        4.31936575766667        4.31935214666001     
   4.31935709229070        4.31932082314027        4.31936788303391     
   4.31924062922180        4.31947294436882        4.31896493541104     
   4.31999505457162        4.31791171448735        4.32085356628331     
   4.31802970798161        4.31975485378003        4.31908379591567     
   4.31922343428043        4.31919030254050        6.45395112957464     
   6.45395112957464        6.45396048321163        6.45396119027428     
   6.45396243159181        6.45396356655711        6.45396448791804     
   6.45396515167774        6.45396555838850        6.45396574400820     
   6.45396566323063        6.45396544202264        6.45396482122885     
   6.45396435601324        6.45396286789585        6.45396283741430     
   6.45395905512623        6.45396242760402        6.45395028777785     
   6.45396995614575        6.45392324619697        6.45401413277044     
   6.45382099249670        6.45422022970276        6.45341136060585     
   6.45455290172993        6.45346993363149        6.45413530692546     
   6.45388666912602        6.45394059745958        6.45393277911778     
   8.79463319744677        8.79463319744677        8.79463507958639     
   8.79463462503477        8.79463430815709        8.79463394132948     
   8.79463349282120        8.79463294153806        8.79463228374889     
   8.79463152343135        8.79463064484372        8.79462967642295     
   8.79462854740555        8.79462739723482        8.79462591786213     
   8.79462474591777        8.79462253253063        8.79462209169313     
   8.79461755982396        8.79462118971734        8.79460752796216     
   8.79462950793319        8.79457758749202        8.79467977475672     
   8.79446690770855        8.79476165079929        8.79448194786797     
   8.79465415255406        8.79459115774814        8.79460470033985     
   8.79460349587088        11.2053668025532        11.2053668025532     
   11.2053626884613        11.2053611500712        11.2053594439573     
   11.2053577123618        11.2053559758815        11.2053542230176     
   11.2053524365613        11.2053505869885        11.2053486690006     
   11.2053466309537        11.2053445256747        11.2053421879705     
   11.2053399181737        11.2053370372007        11.2053349241300     
   11.2053306516651        11.2053302601894        11.2053210978757     
   11.2053293849239        11.2053005966650        11.2053476048970     
   11.2052353732589        11.2054488895942        11.2051328576712     
   11.2054264151226        11.2052457284758        11.2053113985811     
   11.2052949178256        11.2052964804881        13.5460488704254     
   13.5460488704254        13.5460373601479        13.5460344968366     
   13.5460311129361        13.5460277754445        13.5460245755588     
   13.5460215169484        13.5460185742585        13.5460156808443     
   13.5460128549730        13.5460099394715        13.5460071654805     
   13.5460039393591        13.5460014181175        13.5459970569910     
   13.5459960846847        13.5459874278553        13.5459939616428     
   13.5459677877765        13.5460081268725        13.5459086698574     
   13.5460958209721        13.5456826961845        13.5464930232063     
   13.5453184661793        13.5464222938286        13.5457424716833     
   13.5459941045874        13.5459336213826        13.5459400428637     
   15.6806474673116        15.6806474673116        15.6806228667853     
   15.6806181405856        15.6806123519980        15.6806069970106     
   15.6806023581074        15.6805985215902        15.6805955161480     
   15.6805932612774        15.6805918881776        15.6805910589181     
   15.6805914441097        15.6805915355789        15.6805944223578     
   15.6805934403294        15.6806023635763        15.6805921170847     
   15.6806227825538        15.6805688894734        15.6806897065435     
   15.6804475026172        15.6809498958613        15.6799010723650     
   15.6819908939339        15.6789915898315        15.6818589010601     
   15.6801066532370        15.6807871484593        15.6806353504468     
   15.6806677991208        17.4851074817110        17.4851074817110     
   17.4850534983663        17.4850467115860        17.4850390633359     
   17.4850349995222        17.4850356096781        17.4850414464506     
   17.4850529465778        17.4850701857018        17.4850937495745     
   17.4851229072596        17.4851596002387        17.4851998803169     
   17.4852521339941        17.4852985954311        17.4853760020554     
   17.4854074221313        17.4855512256344        17.4854797762129     
   17.4858649557047        17.4853265208104        17.4866779681861     
   17.4841512177804        17.4893782930309        17.4820321933318     
   17.4893343772499        17.4850216843537        17.4868886609217     
   17.4865788560029        17.4868094747581        18.8545602565321     
   18.8545602565321        18.8544270646370        18.8544378603386     
   18.8544754540264        18.8545558186669        18.8546840545034     
   18.8548630216029        18.8550954327520        18.8553827331835     
   18.8557281802538        18.8561309286858        18.8565984919628     
   18.8571200814611        18.8577225502021        18.8583540188312     
   18.8591196140033        18.8598123270058        18.8608311535699     
   18.8614112163152        18.8629941448915        18.8628882181863     
   18.8661548211609        18.8623202536616        18.8742066090506     
   18.8585263173689        18.8769967933457        18.8679182338154     
   18.8737307617900        18.8743461281409        18.8785426362409     
   19.7094181742605        19.7094181742605        19.7090456567267     
   19.7104699311713        19.7133756148850        19.7177514479974     
   19.7235363426890        19.7306585901783        19.7390437212300     
   19.7485972019039        19.7592603318164        19.7708509945767     
   19.7834824098961        19.7965258409972        19.8109985881875     
   19.8244769624632        19.8410309812636        19.8537056196670     
   19.8723997628059        19.8830964204157        19.9053071842513     
   19.9088804102414        19.9441098191542        19.9257805382180     
   19.9872224426465        19.9495243537892        19.9947930257815     
   20.0020209641887        20.0128519421444        20.0263489193064     
   20.0347762580961        20.0000000000000        20.0000000000000     
   19.9996160711536        19.9985027653439        19.9966148672793     
   19.9939517313643        19.9905277043960        19.9863709930490     
   19.9815177157884        19.9760119422736        19.9698968660570     
   19.9632365111360        19.9560559008629        19.9484935076533     
   19.9404486138461        19.9323299598617        19.9235874572797     
   19.9152888102254        19.9062028632218        19.8973662363537     
   19.8904740483088        19.8765974965973        19.8780397916062     
   19.8558144435348        19.8614371993243        19.8438655138123     
   19.8408410760518        19.8283659181418        19.8219311162219     
   19.8149079596374        19.8090168792691     
 -6.536680706074363E-003 -6.536680706074363E-003  2.043009336897160E-004
  7.625786860505496E-003  1.539762431949801E-002  2.330712328448240E-002
  3.119827016743391E-002  3.894839483601376E-002  4.645656720022343E-002
  5.363692882982241E-002  6.041510442399159E-002  6.672738068083735E-002
  7.251184747677036E-002  7.773825489550702E-002  8.230345778452684E-002
  8.634581988157151E-002  8.943065845988736E-002  9.242703231301516E-002
  9.364713346309674E-002  9.598029049353442E-002  9.514503452406786E-002
  9.729881658476652E-002  9.112060849764550E-002  0.102370071138742     
  7.721676438130157E-002  0.104019059962631       8.249911075817090E-002
  8.165992765761138E-002  7.803971206206117E-002  7.051538954757287E-002
  6.556641625476435E-002 -6.536680706074363E-003 -6.536680706074363E-003
 -2.635411912598479E-002 -4.504514456623644E-002 -6.284472479461460E-002
 -7.981728605036406E-002 -9.596106947076288E-002 -0.111244278190349     
 -0.125619791925183      -0.139031500774203      -0.151423789797011     
 -0.162739707479423      -0.172909927881392      -0.181959696609844     
 -0.189587147871865      -0.196571469832195      -0.200645842417665     
 -0.207462395444718      -0.204110350472915      -0.217849792227278     
 -0.194577078050234      -0.236357316360278      -0.161384334156171     
 -0.267445921341719      -0.114842985669615      -0.252366826934174     
 -0.152569116350599      -0.190317142375109      -0.172156709925014     
 -0.160409311082739      -0.156626178871586      -6.536680706074363E-003
 -6.536680706074363E-003 -2.005863665832474E-002 -3.203380607995875E-002
 -4.306212826369535E-002 -5.344432235114441E-002 -6.335322975654664E-002
 -7.289712827654350E-002 -8.214827668189165E-002 -9.115665409441315E-002
 -9.995913801093577E-002 -0.108581449661848      -0.117046202902285     
 -0.125364527358996      -0.133554870385555      -0.141614787076568     
 -0.149559589271578      -0.157392417683140      -0.165047226841387     
 -0.172770553081301      -0.179743125489389      -0.188118041176410     
 -0.192310163377034      -0.203974641103398      -0.202127302129515     
 -0.205594418701187      -0.222092905004568      -0.226867771912208     
 -0.235143945637989      -0.239806266190540      -0.245997262540551     