 Title = "Wing and Wake"
 VARIABLES = "X" "Y" "Z" "GAM"
 Zone I=    5 J=   14 K=1  T="Blade"
 DATAPACKING=BLOCK
 VARLOCATION=([4]=CELLCENTERED)
  -14.4961946980917       -14.2471460235688       -13.9980973490459     
  -13.7490486745229       -13.5000000000000       -14.4961946980917     
  -14.2471460235688       -13.9980973490459       -13.7490486745229     
  -13.5000000000000       -14.4961946980917       -14.2471460235688     
  -13.9980973490459       -13.7490486745229       -13.5000000000000     
  -14.4961946980917       -14.2471460235688       -13.9980973490459     
  -13.7490486745229       -13.5000000000000       -14.4961946980917     
  -14.2471460235688       -13.9980973490459       -13.7490486745229     
  -13.5000000000000       -14.4961946980917       -14.2471460235688     
  -13.9980973490459       -13.7490486745229       -13.5000000000000     
  -14.4961946980917       -14.2471460235688       -13.9980973490459     
  -13.7490486745229       -13.5000000000000       -14.4961946980917     
  -14.2471460235688       -13.9980973490459       -13.7490486745229     
  -13.5000000000000       -14.4961946980917       -14.2471460235688     
  -13.9980973490459       -13.7490486745229       -13.5000000000000     
  -14.4961946980917       -14.2471460235688       -13.9980973490459     
  -13.7490486745229       -13.5000000000000       -14.4961946980917     
  -14.2471460235688       -13.9980973490459       -13.7490486745229     
  -13.5000000000000       -14.4961946980917       -14.2471460235688     
  -13.9980973490459       -13.7490486745229       -13.5000000000000     
  -14.4961946980917       -14.2471460235688       -13.9980973490459     
  -13.7490486745229       -13.5000000000000       -14.4961946980917     
  -14.2471460235688       -13.9980973490459       -13.7490486745229     
  -13.5000000000000     
  0.000000000000000E+000  0.000000000000000E+000  0.000000000000000E+000
  0.000000000000000E+000  0.000000000000000E+000  0.290581825739480     
  0.290581825739480       0.290581825739480       0.290581825739480     
  0.290581825739480        1.14543974346790        1.14543974346790     
   1.14543974346790        1.14543974346790        1.14543974346790     
   2.51489251828899        2.51489251828899        2.51489251828899     
   2.51489251828899        2.51489251828899        4.31935253268844     
   4.31935253268844        4.31935253268844        4.31935253268844     
   4.31935253268844        6.45395112957464        6.45395112957464     
   6.45395112957464        6.45395112957464        6.45395112957464     
   8.79463319744677        8.79463319744677        8.79463319744677     
   8.79463319744677        8.79463319744677        11.2053668025532     
   11.2053668025532        11.2053668025532        11.2053668025532     
   11.2053668025532        13.5460488704254        13.5460488704254     
   13.5460488704254        13.5460488704254        13.5460488704254     
   15.6806474673116        15.6806474673116        15.6806474673116     
   15.6806474673116        15.6806474673116        17.4851074817110     
   17.4851074817110        17.4851074817110        17.4851074817110     
   17.4851074817110        18.8545602565321        18.8545602565321     
   18.8545602565321        18.8545602565321        18.8545602565321     
   19.7094181742605        19.7094181742605        19.7094181742605     
   19.7094181742605        19.7094181742605        20.0000000000000     
   20.0000000000000        20.0000000000000        20.0000000000000     
   20.0000000000000     
  8.715574274765817E-002  6.536680706074363E-002  4.357787137382908E-002
  2.178893568691454E-002  0.000000000000000E+000  8.715574274765817E-002
  6.536680706074363E-002  4.357787137382908E-002  2.178893568691454E-002
  0.000000000000000E+000  8.715574274765817E-002  6.536680706074363E-002
  4.357787137382908E-002  2.178893568691454E-002  0.000000000000000E+000
  8.715574274765817E-002  6.536680706074363E-002  4.357787137382908E-002
  2.178893568691454E-002  0.000000000000000E+000  8.715574274765817E-002
  6.536680706074363E-002  4.357787137382908E-002  2.178893568691454E-002
  0.000000000000000E+000  8.715574274765817E-002  6.536680706074363E-002
  4.357787137382908E-002  2.178893568691454E-002  0.000000000000000E+000
  8.715574274765817E-002  6.536680706074363E-002  4.357787137382908E-002
  2.178893568691454E-002  0.000000000000000E+000  8.715574274765817E-002
  6.536680706074363E-002  4.357787137382908E-002  2.178893568691454E-002
  0.000000000000000E+000  8.715574274765817E-002  6.536680706074363E-002
  4.357787137382908E-002  2.178893568691454E-002  0.000000000000000E+000
  8.715574274765817E-002  6.536680706074363E-002  4.357787137382908E-002
  2.178893568691454E-002  0.000000000000000E+000  8.715574274765817E-002
  6.536680706074363E-002  4.357787137382908E-002  2.178893568691454E-002
  0.000000000000000E+000  8.715574274765817E-002  6.536680706074363E-002
  4.357787137382908E-002  2.178893568691454E-002  0.000000000000000E+000
  8.715574274765817E-002  6.536680706074363E-002  4.357787137382908E-002
  2.178893568691454E-002  0.000000000000000E+000  8.715574274765817E-002
  6.536680706074363E-002  4.357787137382908E-002  2.178893568691454E-002
  0.000000000000000E+000
  0.756354365912345        1.01876114432400        1.16186802061007     
   1.23826976792677        1.09280194697140        1.53664742004027     
   1.79065872843612        1.92656367726910        1.27340605758522     
   1.81132725872447        2.12968991650676        2.30418706586489     
   1.36042844822574        1.94036014379722        2.28654072239430     
   2.47769224643839        1.40184441317758        2.00091897190507     
   2.35936820562738        2.55769201925813        1.42047164460874     
   2.02795199843838        2.39167559968348        2.59302120178670     
   1.42560218339575        2.03536165601106        2.40049359566188     
   2.60263367670178        1.41995552174421        2.02717119964354     
   2.39070767859743        2.59193356715573        1.40139492607111     
   2.00020456339692        2.35844393825327        2.55661590809513     
   1.36076681771689        1.94077026917111        2.28693606479769     
   2.47802758263394        1.27474980926232        1.81318728837927     
   2.13180770062942        2.30638966827153        1.09466180480076     
   1.53922790410313        1.79361932930851        1.92968144187723     
  0.757852330037604        1.02074430709195        1.16410154717630     
   1.24061660050974     
 Zone I=   31 J=   14 K=1  T="NearWake"
 DATAPACKING=BLOCK
 VARLOCATION=([4]=CELLCENTERED)
  -13.4252853976431       -13.1752853976431       -12.9249679807256     
  -12.6744183466430       -12.4237954551795       -12.1731550135641     
  -11.9225133588919       -11.6718771076250       -11.4212488106059     
  -11.1706325414760       -10.9200251933389       -10.6694410705493     
  -10.4188549834763       -10.1683278582900       -9.91775356034957     
  -9.66732554018968       -9.41675780050776       -9.16647657241038     
  -8.91587083214077       -8.66592722935894       -8.41499395338360     
  -8.16573875721535       -7.91447931353113       -7.66471614798318     
  -7.41665495390182       -7.15804186535620       -6.91303158438075     
  -6.66138402308485       -6.41149349943274       -6.16164108535450     
  -5.91164367900167       -13.4252853976431       -13.1752853976431     
  -12.9254945171324       -12.6753403579801       -12.4250278945984     
  -12.1746322593486       -11.9241850311196       -11.6737030754026     
  -11.4231970264422       -11.1726738282094       -10.9221402045672     
  -10.6715973859436       -10.4210587424862       -10.1705021889170     
  -9.92000057455206       -9.66936958676650       -9.41910039479016     
  -9.16801234292908       -8.91872961209897       -8.66599707471557     
  -8.41919544180017       -8.16348790465934       -7.91918908176542     
  -7.66184680592848       -7.41752158501318       -7.16044704490843     
  -6.91399972188298       -6.66309371643168       -6.41269330152751     
  -6.16261640222610       -5.91234381957372       -13.4252853976431     
  -13.1752853976431       -12.9259366439102       -12.6764424788946     
  -12.4268460019534       -12.1771742099890       -11.9274447995190     
  -11.6776700971779       -11.4278589177620       -11.1780178833307     
  -10.9281519259115       -10.6782652113608       -10.4283609417455     
  -10.1784421084578       -9.92851159879829       -9.67857047046987     
  -9.42862459996589       -9.17866661421685       -8.92871857555989     
  -8.67873655432818       -8.42881527264301       -8.17874659714479     
  -7.92897122272673       -7.67856820373303       -7.42899237200125     
  -7.17912172018082       -6.92930405438152       -6.67931306906583     
  -6.42942880295718       -6.17952038914582       -5.92965526701129     
  -13.4252853976431       -13.1752853976431       -12.9259522003416     
  -12.6764711233105       -12.4268894461825       -12.1772365132872     
  -11.9275309530483       -11.6777852108702       -11.4280079191127     
  -11.1782054453760       -10.9283824112633       -10.6785426104365     
  -10.4286887569415       -10.1788232293308       -9.92894823796287     
  -9.67906379946916       -9.42917568408502       -9.17927341003470     
  -8.92938458626299       -8.67945057657785       -8.42959670066833     
  -8.17956718620541       -7.92986503752848       -7.67951177000816     
  -7.43005815666241       -7.18013029411251       -6.93033247183604     
  -6.68035424696559       -6.43051029292949       -6.18057348999188     
  -5.93069489168769       -13.4252853976431       -13.1752853976431     
  -12.9259550685569       -12.6764687935869       -12.4268777777598     
  -12.1772136332223       -11.9274963163956       -11.6777390252441     
  -11.4279507840534       -11.1781381170738       -10.9283056776900     
  -10.6784571648596       -10.4285952445636       -10.1787219967087     
  -9.92883980838371       -9.67894778779490       -9.42905309800729     
  -9.17914167047083       -8.92924797533938       -8.67929801022609     
  -8.42944738183296       -8.17937646282299       -7.92971053691727     
  -7.67923597987462       -7.42998621504477       -7.17983474448149     
  -6.93009274478717       -6.68004641783090       -6.43020748411880     
  -6.18023389408491       -5.93033860679104       -13.4252853976431     
  -13.1752853976431       -12.9259576329976       -12.6764693476684     
  -12.4268736621178       -12.1772032932178       -11.9274788701222     
  -11.6777140124736       -11.4279180156988       -11.1780975631936     
  -10.9282574220678       -10.6784013036408       -10.4285319620129     
  -10.1786513071665       -9.92876200301898       -9.67886247720230     
  -9.42896103975674       -9.17904113394799       -8.92914172498653     
  -8.67917961407228       -8.42932787644299       -8.17923101828884     
  -7.92958704587000       -7.67902262785101       -7.42993805694277     
  -7.17961816571824       -6.92992815624868       -6.67983790973385     
  -6.43000527169546       -6.18001115073800       -5.93010871368639     
  -13.4252853976431       -13.1752853976431       -12.9259590334387     
  -12.6764702815835       -12.4268730204425       -12.1772003992008     
  -11.9274733081120       -11.6777055324190       -11.4279064773594     
  -11.1780828926049       -10.9282395998551       -10.6783803163056     
  -10.4285078500095       -10.1786240270647       -9.92873166644918     
  -9.67882885629032       -9.42892448301744       -9.17900080114031     
  -8.92909886659038       -8.67913133298265       -8.42927901250604     
  -8.17917046347852       -7.92953693824478       -7.67892648062669     
  -7.42992904629726       -7.17952302722755       -6.92986052332528     
  -6.67975043359530       -6.42992185704242       -6.17991937591177     
  -5.93001477536337       -13.4252853976431       -13.1752853976431     
  -12.9259589288792       -12.6764701824666       -12.4268730032181     
  -12.1772005273771       -11.9274736359493       -11.6777061093699     
  -11.4279073484799       -11.1780840997815       -10.9282411803358     
  -10.6783823045109       -10.4285102714490       -10.1786269071755     
  -9.92873500839191       -9.67883267830331       -9.42892874083511     
  -9.17900552252255       -8.92910390237721       -8.67913677248698     
  -8.42928450101229       -8.17917620498314       -7.92954243009148     
  -7.67893119420534       -7.42993247208067       -7.17952702183603     
  -6.92986428203109       -6.67975402138136       -6.42992513292205     
  -6.17992224949849       -5.93001709863792       -13.4252853976431     
  -13.1752853976431       -12.9259573847669       -12.6764690788979     
  -12.4268735452028       -12.1772034808113       -11.9274795001545     
  -11.6777152175544       -11.4279199235995       -11.1781002996720     
  -10.9282611077466       -10.6784060581644       -10.4285378906916     
  -10.1786585207202       -9.92877056763641       -9.67887249842565     
  -9.42897248600856       -9.17905414116386       -8.92915602756807     
  -8.67919548927225       -8.42934458733533       -8.17924907764991     
  -7.92960538696818       -7.67903982730712       -7.42995250327874     
  -7.17963526441443       -6.92994579951914       -6.67985626350917     
  -6.43002398306079       -6.18002995982496       -5.93012713469078     
  -13.4252853976431       -13.1752853976431       -12.9259548098140     
  -12.6764683637759       -12.4268772884951       -12.1772132087689     
  -11.9274960866968       -11.6777391304195       -11.4279513731988     
  -11.1781393503778       -10.9283077247808       -10.6784602085422     
  -10.4285994728564       -10.1787276183058       -9.92884701858122     
  -9.67895683211227       -9.42906414297877       -9.17915503588301     
  -8.92926370271523       -8.67931658673008       -8.42946855312581     
  -8.17940092610383       -7.92973792378102       -7.67926475713340     
  -7.43001433908059       -7.17987015234301       -6.93013355180815     
  -6.68009341906640       -6.43026100454855       -6.18029435321077     
  -5.93040587961291       -13.4252853976431       -13.1752853976431     
  -12.9259520465729       -12.6764705348191       -12.4268883091950     
  -12.1772347795563       -11.9275286130760       -11.6777822840724     
  -11.4280044477942       -11.1782014910009       -10.9283780532504     
  -10.6785379424346       -10.4286838906134       -10.1788182856918     
  -9.92894336375997       -9.67905914158710       -9.42917144125119     
  -9.17926975781199       -8.92938182101271       -8.67944890652733     
  -8.42959664543578       -8.17956893490921       -7.92986975293795     
  -7.67951811459334       -7.43006647191563       -7.18014607936032     
  -6.93035794151107       -6.68039230885150       -6.43056582145981     
  -6.18065290795736       -5.93080483300509       -13.4252853976431     
  -13.1752853976431       -12.9259365757967       -12.6764416356086     
  -12.4268439732734       -12.1771707187371       -11.9274396574631     
  -11.6776631758974       -11.4278501268813       -11.1780071582403     
  -10.9281392171027       -10.6782504633925       -10.4283441028649     
  -10.1784230825444       -9.92849029797612       -9.67854668585159     
  -9.42859818058459       -9.17863713979504       -8.92868579331378     
  -8.67869974519835       -8.42877397912964       -8.17869983973724     
  -7.92891818688480       -7.67850681790961       -7.42892316032037     
  -7.17903793851329       -6.92920683677744       -6.67919916398970     
  -6.42930093699991       -6.17939457578657       -5.92962909441431     
  -13.4252853976431       -13.1752853976431       -12.9254926073748     
  -12.6753341590661       -12.4250167443491       -12.1746160828406     
  -11.9241639742409       -11.6736773836027       -11.4231669997671     
  -11.1726397917217       -10.9221025065160       -10.6715563411442     
  -10.4210147179549       -10.1704553971015       -9.91995134914479     
  -9.66931809069116       -9.41904635584538       -9.16795740015477     
  -8.91866937413068       -8.66594094871325       -8.41912369462431     
  -8.16343770826751       -7.91909675548543       -7.66181245092796     
  -7.41742976211939       -7.16040244533165       -6.91392766236277     
  -6.66303071935478       -6.41264189838384       -6.16257413854096     
  -5.91232121983991       -13.4252853976431       -13.1752853976431     
  -12.9249679407129       -12.6744184042879       -12.4237959461667     
  -12.1731563082720       -11.9225158238073       -11.6718810848036     
  -11.4212546115360       -11.1706404439703       -10.9200354261956     
  -10.6694538263741       -10.4188703546256       -10.1683459306046     
  -9.91777420205732       -9.66734864378055       -9.41678294852485     
  -9.16650306430856       -8.91589826601084       -8.66595293400479     
  -8.41501897410897       -8.16575456302766       -7.91449216521415     
  -7.66470328165702       -7.41662873461461       -7.15799461504945     
  -6.91295565795500       -6.66127046146224       -6.41132575910625     
  -6.16139654304187       -5.91130207125990     
  0.000000000000000E+000  0.000000000000000E+000  3.799936710994091E-004
  1.484190850572404E-003  3.360504851085914E-003  6.009221603288815E-003
  9.415674523384357E-003  1.355201374355242E-002  1.838064527847516E-002
  2.386154960655710E-002  2.993873337098838E-002  3.658170969794262E-002
  4.367535291321792E-002  5.128585536975062E-002  5.906785691053611E-002
  6.748960335220330E-002  7.554828362780548E-002  8.454129054852913E-002
  9.294493838583535E-002  0.100538013793402       0.112909289348194     
  0.113823676781062       0.132775804904529       0.131090728235548     
  0.145111181221076       0.150713006029777       0.162380371354575     
  0.169026184615544       0.176254852517252       0.182430649974535     
  0.187665040531005       0.290581825739480       0.290581825739480     
  0.290950424476126       0.289528391544632       0.286631363230387     
  0.282269583964998       0.276503829057848       0.269402733932344     
  0.261049707551998       0.251508206286221       0.240925113464059     
  0.229245845796575       0.216951768202882       0.203294096333106     
  0.190223015935118       0.174336265251667       0.161859676352111     
  0.143382349085136       0.133067120421530       0.110213992804678     
  0.107691958872435       7.051792559670751E-002  9.134762001255343E-002
  2.528833393581656E-002  6.776362515395760E-002  1.678107417415444E-002
  1.188802459525038E-002 -1.020583598188581E-003 -1.573282142858790E-002
 -2.595625400408040E-002 -3.594696187060744E-002   1.14543974346790     
   1.14543974346790        1.14556980289991        1.14555576516292     
   1.14551536460749        1.14543249520763        1.14530220451957     
   1.14512131837962        1.14488791782075        1.14459886642733     
   1.14425467987219        1.14384822394703        1.14338925352202     
   1.14285254946034        1.14228654737408        1.14159046063739     
   1.14096505966810        1.14001578978548        1.13951215960800     
   1.13797668214421        1.13822370343509        1.13489701711273     
   1.13892080029835        1.12722501435064        1.14248711775173     
   1.12475833400557        1.13365086076884        1.12830676748123     
   1.12828856122246        1.12692833995619        1.12607059104738     
   2.51489251828899        2.51489251828899        2.51494392744291     
   2.51494781371259        2.51495272355806        2.51495410761506     
   2.51495088435428        2.51494238520359        2.51492838548855     
   2.51490827445400        2.51488261381364        2.51484958380165     
   2.51481270446373        2.51476422369893        2.51472048230189     
   2.51464730454766        2.51461647983293        2.51447946376546     
   2.51454473819603        2.51417732405657        2.51468550426696     
   2.51339583942422        2.51579827477182        2.51083598617409     
   2.51776189156568        2.51089186814445        2.51498353711291     
   2.51325466154147        2.51356884823574        2.51341721018306     
   2.51336609854214        4.31935253268844        4.31935253268844     
   4.31937483472249        4.31937704397462        4.31938037739445     
   4.31938326355579        4.31938539582992        4.31938661552226     
   4.31938694897497        4.31938625238120        4.31938479657043     
   4.31938194133956        4.31937901249931        4.31937313366025     
   4.31937038943198        4.31935798483392        4.31936285731674     
   4.31932892299483        4.31937339981945        4.31925315770386     
   4.31947319585841        4.31899146478330        4.31996978145052     
   4.31799402306504        4.32078647168484        4.31810067156805     
   4.31974410811842        4.31910359863876        4.31923674364246     
   4.31920680444420        4.31920735033856        6.45395112957464     
   6.45395112957464        6.45396036896891        6.45396102246975     
   6.45396218465422        6.45396324516847        6.45396408730307     
   6.45396466141828        6.45396499733187        6.45396505807620     
   6.45396496160776        6.45396447698121        6.45396411437623     
   6.45396279037915        6.45396280359789        6.45395930442462     
   6.45396248844472        6.45395109916817        6.45396964713513     
   6.45392555924671        6.45401160250595        6.45382870129764     
   6.45420761424671        6.45344142523090        6.45452406667595     
   6.45349530628881        6.45412889881584        6.45389199524529     
   6.45394368522020        6.45393719144242        6.45394073777576     
   8.79463319744677        8.79463319744677        8.79463500436262     
   8.79463450582336        8.79463412330318        8.79463369251125     
   8.79463317188425        8.79463254300637        8.79463180800294     
   8.79463095316979        8.79463000512820        8.79462890050088     
   8.79462776762910        8.79462632292104        8.79462515692092     
   8.79462301311676        8.79462252302256        8.79461818673092     
   8.79462153080811        8.79460855468192        8.79462928802594     
   8.79458003870337        8.79467697501177        8.79447521905737     
   8.79475481842199        8.79448904720568        8.79465308805004     
   8.79459303900138        8.79460605423932        8.79460513038360     
   8.79460637099691        11.2053668025532        11.2053668025532     
   11.2053626431240        11.2053610689404        11.2053593037811     
   11.2053575109590        11.2053556987891        11.2053538645610     
   11.2053519796209        11.2053500356738        11.2053479824964     
   11.2053458645767        11.2053435284087        11.2053412480050     
   11.2053383932550        11.2053362452479        11.2053320693530     
   11.2053315230876        11.2053227176684        11.2053303475800     
   11.2053029428675        11.2053472000152        11.2052406573954     
   11.2054422997548        11.2051432330763        11.2054212912147     
   11.2052495161655        11.2053118499321        11.2052960623863     
   11.2052971106271        11.2052949548510        13.5460488704254     
   13.5460488704254        13.5460373420429        13.5460344591735     
   13.5460310262034        13.5460276342638        13.5460243560277     
   13.5460212136131        13.5460181450604        13.5460151590563     
   13.5460121061452        13.5460091883081        13.5460058581470     
   13.5460031755785        13.5459987825308        13.5459975401741     
   13.5459891025417        13.5459949054865        13.5459699204304     
   13.5460076400417        13.5459132092933        13.5460899666165     
   13.5456978557417        13.5464643161579        13.5453518292983     
   13.5463987062540        13.5457519534439        13.5459911634626     
   13.5459332626791        13.5459380255593        13.5459305929144     
   15.6806474673116        15.6806474673116        15.6806228863768     
   15.6806181745210        15.6806123628078        15.6806069786298     
   15.6806022732973        15.6805983740940        15.6805952200285     
   15.6805929250135        15.6805911840545        15.6805906018196     
   15.6805898046773        15.6805916343645        15.6805899287416     
   15.6805975023151        15.6805871913061        15.6806153355050     
   15.6805638994195        15.6806774226387        15.6804475296219     
   15.6809230165585        15.6799269825618        15.6819065411947     
   15.6790635933497        15.6817858066751        15.6801180560512     
   15.6807657139791        15.6806209801280        15.6806490388141     
   15.6806406848890        17.4851074817110        17.4851074817110     
   17.4850535814834        17.4850468655192        17.4850392447899     
   17.4850351996602        17.4850357634212        17.4850415862784     
   17.4850528672075        17.4850701981116        17.4850929960631     
   17.4851230648666        17.4851568585854        17.4852021272836     
   17.4852424637603        17.4853121239818        17.4853390950183     
   17.4854723978629        17.4854026078316        17.4857665706403     
   17.4852523071973        17.4865407932269        17.4841266515950     
   17.4891025709209        17.4821163739565        17.4890670886410     
   17.4849528217037        17.4867298535997        17.4864319802419     
   17.4866383861494        17.4867423957755        18.8545602565321     
   18.8545602565321        18.8544272524612        18.8544381909271     
   18.8544758418189        18.8545562582582        18.8546843229667     
   18.8548632562522        18.8550948863691        18.8553823538794     
   18.8557251896135        18.8561303790153        18.8565883685639     
   18.8571243736777        18.8576898592738        18.8583858267216     
   18.8590114129124        18.8599616108246        18.8604671471737     
   18.8620049547469        18.8617657547818        18.8650931683901     
   18.8610980056158        18.8727938798747        18.8575387057304     
   18.8753841577457        18.8665689145400        18.8721139915012     
   18.8724321687709        18.8745718131559        18.8782656377734     
   19.7094181742605        19.7094181742605        19.7090460723064     
   19.7104695865868        19.7133729132951        19.7177446452302     
   19.7235228662107        19.7306378971271        19.7390052972088     
   19.7485607549925        19.7591564942629        19.7708466164855     
   19.7831487347848        19.7968120697819        19.8098846249976     
   19.8257694537930        19.8382434083997        19.8567035943664     
   19.8670281999604        19.8898196171301        19.8924208506611     
   19.9293958509067        19.9088473271787        19.9744587652805     
   19.9324211549039        19.9830481973575        19.9881038885612     
   20.0009377219287        20.0155647857453        20.0257580855139     
   20.0356143690934        20.0000000000000        20.0000000000000     
   19.9996164693966        19.9985046343087        19.9966191715941     
   19.9939596992663        19.9905409774861        19.9863910951036     
   19.9815478648167        19.9760514528550        19.9699579482948     
   19.9632978033079        19.9561860609133        19.9485561062802     
   19.9407528181222        19.9323074762637        19.9242204242770     
   19.9151984103024        19.9067500829557        19.8991248969365     
   19.8866677050397        19.8857315728743        19.8666212436592     
   19.8682774942493        19.8540438416957        19.8483155604190     
   19.8364464277356        19.8295184531749        19.8219109682002     
   19.8151911204726        19.8091990617114     
 -6.536680706074363E-003 -6.536680706074363E-003  1.975658559865631E-004
  7.610929864931785E-003  1.537313037936920E-002  2.327144251578599E-002
  3.114976623904912E-002  3.888543154007693E-002  4.637736937502345E-002
  5.353997218850830E-002  6.029915747560429E-002  6.658809989426463E-002
  7.235878486042355E-002  7.752626406627602E-002  8.216165474178939E-002
  8.593934806481558E-002  8.952920472815859E-002  9.148158576165222E-002
  9.452668141887301E-002  9.394553265875652E-002  9.766271358549815E-002
  9.099595157809982E-002  0.103653831451131       7.973252035833353E-002
  0.105951386793646       8.521163702144051E-002  8.525969422378424E-002
  8.175629464257660E-002  7.475962176274764E-002  6.964371705566488E-002
  6.347839821928331E-002 -6.536680706074363E-003 -6.536680706074363E-003
 -2.635297779640281E-002 -4.504271465458130E-002 -6.284091384774196E-002
 -7.981205842682759E-002 -9.595457637273229E-002 -0.111237136922941     
 -0.125611445249222      -0.139025328067925      -0.151417496660783     
 -0.162731523431296      -0.172938106731139      -0.181863486679832     
 -0.189931189399950      -0.195678435334529      -0.203022531219504     
 -0.202354404062588      -0.214924664604360      -0.197223032268859     
 -0.232952078280307      -0.171015666630239      -0.261848175164705     
 -0.131232755361725      -0.251404176651814      -0.162974797862766     
 -0.197207049813424      -0.180421986074850      -0.169604872149667     
 -0.164939350003583      -0.154798710246004      -6.536680706074363E-003
 -6.536680706074363E-003 -2.005985099714132E-002 -3.203658656761553E-002
 -4.306679244575532E-002 -5.345113624062413E-002 -6.336235669810737E-002
 -7.290884808355241E-002 -8.216241147554008E-002 -9.117374974947987E-002
 -9.997789981543871E-002 -0.108603752141808      -0.117067152484326     
 -0.125390169327709      -0.133572121551778      -0.141634461565859     
 -0.149571715178870      -0.157348930955599      -0.165144026373556     
 -0.172307825127359      -0.180617236273785      -0.185307087214003     
 -0.196510013474409      -0.195754531127515      -0.198774528498397     
 -0.216063193637665      -0.220646590879280      -0.229490636604777     
 -0.234640265597720      -0.241581322085930      -0.246399035709262     