 Title = "Wing and Wake"
 VARIABLES = "X" "Y" "Z" "GAM"
 Zone I=    5 J=   14 K=1  T="Blade"
 DATAPACKING=BLOCK
 VARLOCATION=([4]=CELLCENTERED)
  -2.74619469809175       -2.49714602356881       -2.24809734904587     
  -1.99904867452294       -1.75000000000000       -2.74619469809175     
  -2.49714602356881       -2.24809734904587       -1.99904867452294     
  -1.75000000000000       -2.74619469809175       -2.49714602356881     
  -2.24809734904587       -1.99904867452294       -1.75000000000000     
  -2.74619469809175       -2.49714602356881       -2.24809734904587     
  -1.99904867452294       -1.75000000000000       -2.74619469809175     
  -2.49714602356881       -2.24809734904587       -1.99904867452294     
  -1.75000000000000       -2.74619469809175       -2.49714602356881     
  -2.24809734904587       -1.99904867452294       -1.75000000000000     
  -2.74619469809175       -2.49714602356881       -2.24809734904587     
  -1.99904867452294       -1.75000000000000       -2.74619469809175     
  -2.49714602356881       -2.24809734904587       -1.99904867452294     
  -1.75000000000000       -2.74619469809175       -2.49714602356881     
  -2.24809734904587       -1.99904867452294       -1.75000000000000     
  -2.74619469809175       -2.49714602356881       -2.24809734904587     
  -1.99904867452294       -1.75000000000000       -2.74619469809175     
  -2.49714602356881       -2.24809734904587       -1.99904867452294     
  -1.75000000000000       -2.74619469809175       -2.49714602356881     
  -2.24809734904587       -1.99904867452294       -1.75000000000000     
  -2.74619469809175       -2.49714602356881       -2.24809734904587     
  -1.99904867452294       -1.75000000000000       -2.74619469809175     
  -2.49714602356881       -2.24809734904587       -1.99904867452294     
  -1.75000000000000     
  0.000000000000000E+000  0.000000000000000E+000  0.000000000000000E+000
  0.000000000000000E+000  0.000000000000000E+000  0.290581825739480     
  0.290581825739480       0.290581825739480       0.290581825739480     
  0.290581825739480        1.14543974346790        1.14543974346790     
   1.14543974346790        1.14543974346790        1.14543974346790     
   2.51489251828899        2.51489251828899        2.51489251828899     
   2.51489251828899        2.51489251828899        4.31935253268844     
   4.31935253268844        4.31935253268844        4.31935253268844     
   4.31935253268844        6.45395112957464        6.45395112957464     
   6.45395112957464        6.45395112957464        6.45395112957464     
   8.79463319744677        8.79463319744677        8.79463319744677     
   8.79463319744677        8.79463319744677        11.2053668025532     
   11.2053668025532        11.2053668025532        11.2053668025532     
   11.2053668025532        13.5460488704254        13.5460488704254     
   13.5460488704254        13.5460488704254        13.5460488704254     
   15.6806474673116        15.6806474673116        15.6806474673116     
   15.6806474673116        15.6806474673116        17.4851074817110     
   17.4851074817110        17.4851074817110        17.4851074817110     
   17.4851074817110        18.8545602565321        18.8545602565321     
   18.8545602565321        18.8545602565321        18.8545602565321     
   19.7094181742605        19.7094181742605        19.7094181742605     
   19.7094181742605        19.7094181742605        20.0000000000000     
   20.0000000000000        20.0000000000000        20.0000000000000     
   20.0000000000000     
  8.715574274765817E-002  6.536680706074363E-002  4.357787137382908E-002
  2.178893568691454E-002  0.000000000000000E+000  8.715574274765817E-002
  6.536680706074363E-002  4.357787137382908E-002  2.178893568691454E-002
  0.000000000000000E+000  8.715574274765817E-002  6.536680706074363E-002
  4.357787137382908E-002  2.178893568691454E-002  0.000000000000000E+000
  8.715574274765817E-002  6.536680706074363E-002  4.357787137382908E-002
  2.178893568691454E-002  0.000000000000000E+000  8.715574274765817E-002
  6.536680706074363E-002  4.357787137382908E-002  2.178893568691454E-002
  0.000000000000000E+000  8.715574274765817E-002  6.536680706074363E-002
  4.357787137382908E-002  2.178893568691454E-002  0.000000000000000E+000
  8.715574274765817E-002  6.536680706074363E-002  4.357787137382908E-002
  2.178893568691454E-002  0.000000000000000E+000  8.715574274765817E-002
  6.536680706074363E-002  4.357787137382908E-002  2.178893568691454E-002
  0.000000000000000E+000  8.715574274765817E-002  6.536680706074363E-002
  4.357787137382908E-002  2.178893568691454E-002  0.000000000000000E+000
  8.715574274765817E-002  6.536680706074363E-002  4.357787137382908E-002
  2.178893568691454E-002  0.000000000000000E+000  8.715574274765817E-002
  6.536680706074363E-002  4.357787137382908E-002  2.178893568691454E-002
  0.000000000000000E+000  8.715574274765817E-002  6.536680706074363E-002
  4.357787137382908E-002  2.178893568691454E-002  0.000000000000000E+000
  8.715574274765817E-002  6.536680706074363E-002  4.357787137382908E-002
  2.178893568691454E-002  0.000000000000000E+000  8.715574274765817E-002
  6.536680706074363E-002  4.357787137382908E-002  2.178893568691454E-002
  0.000000000000000E+000
  0.649555414184479       0.860677544235154       0.963594215276186     
   1.00486259147205       0.919554786613997        1.27257076599201     
   1.45456125430177        1.52799981794014        1.03418478805698     
   1.44452265561989        1.66103727459440        1.74768437980462     
   1.07004928530745        1.49611264103434        1.72092596768594     
   1.80944735323888        1.08032662188988        1.51051143024605     
   1.73726129239662        1.82594861530297        1.08344226364071     
   1.51482341423581        1.74210441321521        1.83080192530550     
   1.08417393586236        1.51583167830855        1.74323315813643     
   1.83193054857300        1.08344226364071        1.51482341423581     
   1.74210441321521        1.83080192530550        1.08032662188988     
   1.51051143024605        1.73726129239662        1.82594861530296     
   1.07004928530745        1.49611264103434        1.72092596768594     
   1.80944735323888        1.03418478805699        1.44452265561989     
   1.66103727459440        1.74768437980462       0.919554786613997     
   1.27257076599201        1.45456125430177        1.52799981794014     
  0.649555414184479       0.860677544235154       0.963594215276186     
   1.00486259147205     
 Zone I=    8 J=   14 K=1  T="NearWake"
 DATAPACKING=BLOCK
 VARLOCATION=([4]=CELLCENTERED)
  -1.67528539764312       -1.42528539764312       -1.17509178656733     
 -0.925021247139589      -0.675242041460889      -0.425711742250767     
 -0.175668854272592       7.235483838799672E-002  -1.67528539764312     
  -1.42528539764312       -1.17621304026347      -0.926176269668920     
 -0.676577140464816      -0.425560511336757      -0.168643248920597     
  7.199992059316497E-002  -1.67528539764312       -1.42528539764312     
  -1.17655541571621      -0.926603451208473      -0.676949738852196     
 -0.425316858171090      -0.166022636921274       6.916635147335551E-002
  -1.67528539764312       -1.42528539764312       -1.17650671066327     
 -0.926441644371651      -0.676683085560877      -0.424810958969710     
 -0.164914260219914       6.858872985919609E-002  -1.67528539764312     
  -1.42528539764312       -1.17649201371393      -0.926392100916088     
 -0.676607958376161      -0.424684163685229      -0.164675344817766     
  6.846496074648378E-002  -1.67528539764312       -1.42528539764312     
  -1.17648765801074      -0.926377514518895      -0.676585595114671     
 -0.424648068881728      -0.164611854768363       6.844244179465511E-002
  -1.67528539764312       -1.42528539764312       -1.17648631778522     
 -0.926373198815857      -0.676578878801134      -0.424637376772289     
 -0.164593384919475       6.843746269264674E-002  -1.67528539764312     
  -1.42528539764312       -1.17648631778522      -0.926373198815857     
 -0.676578878801134      -0.424637376772289      -0.164593384919475     
  6.843746269264674E-002  -1.67528539764312       -1.42528539764312     
  -1.17648765801074      -0.926377514518895      -0.676585595114671     
 -0.424648068881728      -0.164611854768363       6.844244179465510E-002
  -1.67528539764312       -1.42528539764312       -1.17649201371393     
 -0.926392100916088      -0.676607958376161      -0.424684163685229     
 -0.164675344817766       6.846496074648376E-002  -1.67528539764312     
  -1.42528539764312       -1.17650671066327      -0.926441644371651     
 -0.676683085560877      -0.424810958969710      -0.164914260219914     
  6.858872985919609E-002  -1.67528539764312       -1.42528539764312     
  -1.17655541571621      -0.926603451208473      -0.676949738852196     
 -0.425316858171090      -0.166022636921274       6.916635147335547E-002
  -1.67528539764312       -1.42528539764312       -1.17621304026347     
 -0.926176269668920      -0.676577140464816      -0.425560511336757     
 -0.168643248920597       7.199992059316490E-002  -1.67528539764312     
  -1.42528539764312       -1.17509178656733      -0.925021247139589     
 -0.675242041460889      -0.425711742250767      -0.175668854272592     
  7.235483838799679E-002
  0.000000000000000E+000  0.000000000000000E+000  4.186659301642561E-004
  1.131942972491635E-003  1.916385344546100E-003  2.698236301199746E-003
  2.173193343891528E-003  3.177794579207132E-003  0.290581825739480     
  0.290581825739480       0.291047405105506       0.288868602739331     
  0.287923688343091       0.286557071962934       0.286322405356818     
  0.292535090170711        1.14543974346790        1.14543974346790     
   1.14565261272059        1.14554891748948        1.14574746489811     
   1.14585370877693        1.14587547778613        1.14620911992379     
   2.51489251828899        2.51489251828899        2.51495251725845     
   2.51493362156489        2.51498303767411        2.51500752633989     
   2.51501186524906        2.51508102223958        4.31935253268844     
   4.31935253268844        4.31936819660453        4.31936332813113     
   4.31937501962285        4.31938026023556        4.31938014729122     
   4.31939906082130        6.45395112957464        6.45395112957464     
   6.45395554789305        6.45395403574601        6.45395721136830     
   6.45395855827439        6.45395829712778        6.45396458333262     
   8.79463319744677        8.79463319744677        8.79463419445139     
   8.79463382932300        8.79463454210158        8.79463483965722     
   8.79463475738236        8.79463631782231        11.2053668025532     
   11.2053668025532        11.2053658055486        11.2053661706770     
   11.2053654578984        11.2053651603428        11.2053652426176     
   11.2053636821777        13.5460488704254        13.5460488704254     
   13.5460444521069        13.5460459642540        13.5460427886317     
   13.5460414417256        13.5460417028722        13.5460354166674     
   15.6806474673116        15.6806474673116        15.6806318033955     
   15.6806366718689        15.6806249803772        15.6806197397644     
   15.6806198527088        15.6806009391787        17.4851074817110     
   17.4851074817110        17.4850474827415        17.4850663784351     
   17.4850169623259        17.4849924736601        17.4849881347509     
   17.4849189777604        18.8545602565321        18.8545602565321     
   18.8543473872794        18.8544510825105        18.8542525351019     
   18.8541462912231        18.8541245222139        18.8537908800762     
   19.7094181742605        19.7094181742605        19.7089525948945     
   19.7111313972607        19.7120763116569        19.7134429280371     
   19.7136775946432        19.7074649098293        20.0000000000000     
   20.0000000000000        19.9995813340698        19.9988680570275     
   19.9980836146555        19.9973017636988        19.9978268066561     
   19.9968222054208     
 -6.536680706074363E-003 -6.536680706074363E-003 -4.446336391563551E-003
 -4.094757541517252E-003 -5.283698857151100E-003 -8.900940818433244E-003
 -1.564325571485034E-002  9.531268488368119E-003 -6.536680706074363E-003
 -6.536680706074363E-003 -3.519534298395361E-002 -4.765992524288995E-002
 -6.637213841125045E-002 -7.936511426097209E-002 -8.863432015752035E-002
 -1.357968909178947E-002 -6.536680706074363E-003 -6.536680706074363E-003
 -2.881082805976692E-002 -3.834057650594391E-002 -5.356615017961084E-002
 -6.503323087583190E-002 -7.404388061417430E-002  8.840930391994623E-003
 -6.536680706074363E-003 -6.536680706074363E-003 -2.795844504600920E-002
 -3.675686648725138E-002 -5.106558272873419E-002 -6.154223576794039E-002
 -6.937717603079148E-002  1.626917749785003E-002 -6.536680706074363E-003
 -6.536680706074363E-003 -2.769455566110591E-002 -3.623013568884739E-002
 -5.020125784467146E-002 -6.032652729568590E-002 -6.779607241750345E-002
  1.843534508996277E-002 -6.536680706074363E-003 -6.536680706074363E-003
 -2.760096235028365E-002 -3.605148139079625E-002 -4.991555756926033E-002
 -5.993588690430421E-002 -6.730040637950338E-002  1.908042653609553E-002
 -6.536680706074363E-003 -6.536680706074363E-003 -2.757042435248355E-002
 -3.599508590611275E-002 -4.982683770427764E-002 -5.981618740542964E-002
 -6.714973185997095E-002  1.927417202314107E-002 -6.536680706074363E-003
 -6.536680706074363E-003 -2.757042435248354E-002 -3.599508590611278E-002
 -4.982683770427767E-002 -5.981618740542961E-002 -6.714973185997089E-002
  1.927417202314108E-002 -6.536680706074363E-003 -6.536680706074363E-003
 -2.760096235028365E-002 -3.605148139079629E-002 -4.991555756926030E-002
 -5.993588690430421E-002 -6.730040637950335E-002  1.908042653609554E-002
 -6.536680706074363E-003 -6.536680706074363E-003 -2.769455566110594E-002
 -3.623013568884740E-002 -5.020125784467148E-002 -6.032652729568593E-002
 -6.779607241750343E-002  1.843534508996279E-002 -6.536680706074363E-003
 -6.536680706074363E-003 -2.795844504600926E-002 -3.675686648725141E-002
 -5.106558272873418E-002 -6.154223576794041E-002 -6.937717603079144E-002
  1.626917749785008E-002 -6.536680706074363E-003 -6.536680706074363E-003
 -2.881082805976687E-002 -3.834057650594395E-002 -5.356615017961090E-002
 -6.503323087583195E-002 -7.404388061417430E-002  8.840930391994718E-003
 -6.536680706074363E-003 -6.536680706074363E-003 -3.519534298395364E-002
 -4.765992524289008E-002 -6.637213841125070E-002 -7.936511426097251E-002
 -8.863432015752046E-002 -1.357968909178932E-002 -6.536680706074363E-003
 -6.536680706074363E-003 -4.446336391563520E-003 -4.094757541517169E-003
 -5.283698857150935E-003 -8.900940818432986E-003 -1.564325571485041E-002
  9.531268488368213E-003
   1.00486259147205       0.973858434038998       0.935043765751740     
  0.884911471366558       0.817122145994892       0.717952076931788     
  0.545687230928579        1.52799981794014        1.47322374154820     
   1.40435192360063        1.31507668024105        1.19436106594707     
   1.02014754055350       0.735561100336828        1.74768437980462     
   1.67270957966126        1.58035263084665        1.46395879974757     
   1.31238267385890        1.10391394579400       0.782326100572016     
   1.80944735323888        1.72569643953580        1.62426711239531     
   1.49868926620788        1.33806052524169        1.12094440580768     
  0.791278928221502        1.82594861530297        1.73939243491094     
   1.63525863329197        1.50712425988876        1.34413341106689     
   1.12488759619166       0.793323245359819        1.83080192530550     
   1.74337776595346        1.63842940476177        1.50954269403987     
   1.34586936362122        1.12601564997301       0.793911270808085     
   1.83193054857300        1.74430292194289        1.63916492624379     
   1.51010392089124        1.34627288741357        1.12627868704179     
  0.794049049972261        1.83080192530550        1.74337776595346     
   1.63842940476177        1.50954269403987        1.34586936362122     
   1.12601564997301       0.793911270808084        1.82594861530296     
   1.73939243491094        1.63525863329196        1.50712425988876     
   1.34413341106689        1.12488759619166       0.793323245359819     
   1.80944735323888        1.72569643953580        1.62426711239531     
   1.49868926620788        1.33806052524169        1.12094440580768     
  0.791278928221502        1.74768437980462        1.67270957966126     
   1.58035263084665        1.46395879974757        1.31238267385890     
   1.10391394579400       0.782326100572015        1.52799981794014     
   1.47322374154820        1.40435192360063        1.31507668024105     
   1.19436106594707        1.02014754055351       0.735561100336828     
   1.00486259147205       0.973858434038999       0.935043765751740     
  0.884911471366559       0.817122145994892       0.717952076931788     
  0.545687230928579     
 Zone I=    2 J=1   K=1   T="FarWake"
 DATAPACKING=BLOCK
 VARLOCATION=([4]=CELLCENTERED)
  7.235483838799679E-002  7.235483838799679E-002
   19.9968222054208        19.9968222054208     
  9.531268488368213E-003  9.531268488368213E-003
  0.000000000000000E+000
