 Title = "Wing and Wake"
 VARIABLES = "X" "Y" "Z" "GAM"
 Zone I=    5 J=   14 K=1  T="Blade"
 DATAPACKING=BLOCK
 VARLOCATION=([4]=CELLCENTERED)
  -11.2461946980917       -10.9971460235688       -10.7480973490459     
  -10.4990486745229       -10.2500000000000       -11.2461946980917     
  -10.9971460235688       -10.7480973490459       -10.4990486745229     
  -10.2500000000000       -11.2461946980917       -10.9971460235688     
  -10.7480973490459       -10.4990486745229       -10.2500000000000     
  -11.2461946980917       -10.9971460235688       -10.7480973490459     
  -10.4990486745229       -10.2500000000000       -11.2461946980917     
  -10.9971460235688       -10.7480973490459       -10.4990486745229     
  -10.2500000000000       -11.2461946980917       -10.9971460235688     
  -10.7480973490459       -10.4990486745229       -10.2500000000000     
  -11.2461946980917       -10.9971460235688       -10.7480973490459     
  -10.4990486745229       -10.2500000000000       -11.2461946980917     
  -10.9971460235688       -10.7480973490459       -10.4990486745229     
  -10.2500000000000       -11.2461946980917       -10.9971460235688     
  -10.7480973490459       -10.4990486745229       -10.2500000000000     
  -11.2461946980917       -10.9971460235688       -10.7480973490459     
  -10.4990486745229       -10.2500000000000       -11.2461946980917     
  -10.9971460235688       -10.7480973490459       -10.4990486745229     
  -10.2500000000000       -11.2461946980917       -10.9971460235688     
  -10.7480973490459       -10.4990486745229       -10.2500000000000     
  -11.2461946980917       -10.9971460235688       -10.7480973490459     
  -10.4990486745229       -10.2500000000000       -11.2461946980917     
  -10.9971460235688       -10.7480973490459       -10.4990486745229     
  -10.2500000000000     
  0.000000000000000E+000  0.000000000000000E+000  0.000000000000000E+000
  0.000000000000000E+000  0.000000000000000E+000  0.290581825739480     
  0.290581825739480       0.290581825739480       0.290581825739480     
  0.290581825739480        1.14543974346790        1.14543974346790     
   1.14543974346790        1.14543974346790        1.14543974346790     
   2.51489251828899        2.51489251828899        2.51489251828899     
   2.51489251828899        2.51489251828899        4.31935253268844     
   4.31935253268844        4.31935253268844        4.31935253268844     
   4.31935253268844        6.45395112957464        6.45395112957464     
   6.45395112957464        6.45395112957464        6.45395112957464     
   8.79463319744677        8.79463319744677        8.79463319744677     
   8.79463319744677        8.79463319744677        11.2053668025532     
   11.2053668025532        11.2053668025532        11.2053668025532     
   11.2053668025532        13.5460488704254        13.5460488704254     
   13.5460488704254        13.5460488704254        13.5460488704254     
   15.6806474673116        15.6806474673116        15.6806474673116     
   15.6806474673116        15.6806474673116        17.4851074817110     
   17.4851074817110        17.4851074817110        17.4851074817110     
   17.4851074817110        18.8545602565321        18.8545602565321     
   18.8545602565321        18.8545602565321        18.8545602565321     
   19.7094181742605        19.7094181742605        19.7094181742605     
   19.7094181742605        19.7094181742605        20.0000000000000     
   20.0000000000000        20.0000000000000        20.0000000000000     
   20.0000000000000     
  8.715574274765817E-002  6.536680706074363E-002  4.357787137382908E-002
  2.178893568691454E-002  0.000000000000000E+000  8.715574274765817E-002
  6.536680706074363E-002  4.357787137382908E-002  2.178893568691454E-002
  0.000000000000000E+000  8.715574274765817E-002  6.536680706074363E-002
  4.357787137382908E-002  2.178893568691454E-002  0.000000000000000E+000
  8.715574274765817E-002  6.536680706074363E-002  4.357787137382908E-002
  2.178893568691454E-002  0.000000000000000E+000  8.715574274765817E-002
  6.536680706074363E-002  4.357787137382908E-002  2.178893568691454E-002
  0.000000000000000E+000  8.715574274765817E-002  6.536680706074363E-002
  4.357787137382908E-002  2.178893568691454E-002  0.000000000000000E+000
  8.715574274765817E-002  6.536680706074363E-002  4.357787137382908E-002
  2.178893568691454E-002  0.000000000000000E+000  8.715574274765817E-002
  6.536680706074363E-002  4.357787137382908E-002  2.178893568691454E-002
  0.000000000000000E+000  8.715574274765817E-002  6.536680706074363E-002
  4.357787137382908E-002  2.178893568691454E-002  0.000000000000000E+000
  8.715574274765817E-002  6.536680706074363E-002  4.357787137382908E-002
  2.178893568691454E-002  0.000000000000000E+000  8.715574274765817E-002
  6.536680706074363E-002  4.357787137382908E-002  2.178893568691454E-002
  0.000000000000000E+000  8.715574274765817E-002  6.536680706074363E-002
  4.357787137382908E-002  2.178893568691454E-002  0.000000000000000E+000
  8.715574274765817E-002  6.536680706074363E-002  4.357787137382908E-002
  2.178893568691454E-002  0.000000000000000E+000  8.715574274765817E-002
  6.536680706074363E-002  4.357787137382908E-002  2.178893568691454E-002
  0.000000000000000E+000
  0.751673488602271        1.01194818299496        1.15347450536339     
   1.22856671389760        1.08527749625171        1.52535166537913     
   1.77652502009480        1.91010457615745        1.26295399645110     
   1.79552348801297        2.10981061344803        2.28097353958133     
   1.34719065009825        1.92033076075079        2.26134447966534     
   2.44829389946185        1.38633271806485        1.97746129516427     
   2.32988250209164        2.52332811907560        1.40355245133916     
   2.00237946695093        2.35955164279281        2.55561012357644     
   1.40830272067901        2.00922338773406        2.36766974090511     
   2.56441888127333        1.40321818914411        2.00189045981033     
   2.35896854961554        2.55498685402571        1.38593353390053     
   1.97686636921611        2.32916031963578        2.52254308370308     
   1.34709451238622        1.92016003247031        2.26110631499870     
   2.44800431709964        1.26332131851822        1.79601273037367     
   2.11034068267032        2.28148808967049        1.08593229121886     
   1.52624416707607        1.77752401730563        1.91111601172001     
  0.752233729029212        1.01267823668997        1.15428136726877     
   1.22938981613178     
 Zone I=   31 J=   14 K=1  T="NearWake"
 DATAPACKING=BLOCK
 VARLOCATION=([4]=CELLCENTERED)
  -10.1752853976431       -9.92528539764312       -9.67497944316320     
  -9.42444325531217       -9.17386545424431       -8.92322486361612     
  -8.67271989283994       -8.42199131083004       -8.17175593794744     
  -7.92074355227029       -7.67100030533083       -7.41964573408235     
  -7.16759568757946       -6.91852261252864       -6.66775142737085     
  -6.41747264515431       -6.16708139013886       -5.91674876993398     
  -5.66649687090535       -5.41630239494829       -5.16620641480837     
  -4.91620651566784       -4.66633332886214       -4.41660342537190     
  -4.16704882635554       -3.91770090572861       -3.66860106386433     
  -3.41979625888115       -3.17134109186711       -2.92328791917087     
  -2.67563946187376       -10.1752853976431       -9.92528539764312     
  -9.67551206644707       -9.42538022085940       -9.17511243862492     
  -8.92473927619789       -8.67436634690556       -8.42393874242429     
  -8.17342810449663       -7.92314318894376       -7.67230818972803     
  -7.42180616937612       -7.17089323079454       -6.92093962110080     
  -6.67056296390811       -6.42008753020915       -6.16971858187285     
  -5.91929267054949       -5.66892601693448       -5.41855884831077     
  -5.16823661353236       -4.91794183111525       -4.66769376893409     
  -4.41749354582650       -4.16735389400779       -3.91728426794341     
  -3.66729952290933       -3.41741680018354       -3.16765944146065     
  -2.91805828772695       -2.66866020562523       -10.1752853976431     
  -9.92528539764312       -9.67594531377623       -9.42645891458035     
  -9.17687764700783       -8.92721251898691       -8.67751202744649     
  -8.42773907251076       -8.17797354552903       -7.92813049897423     
  -7.67834608506025       -7.42819553745300       -7.17904029634833     
  -6.92886668713556       -6.67907415991414       -6.42911800625330     
  -6.17924779748314       -5.92935290258982       -5.67948459962303     
  -5.42962213139708       -5.17977900512518       -4.92995309574469     
  -4.68015020824294       -4.43037217656674       -4.18062255897588     
  -3.93090308244263       -3.68121464326748       -3.43155516489368     
  -3.18191814968693       -2.93228871923434       -2.68263897017760     
  -10.1752853976431       -9.92528539764312       -9.67595962586035     
  -9.42648390858400       -9.17691446376640       -8.92726318339096     
  -8.67758229906121       -8.42782940739046       -8.17809360520810     
  -7.92826818738676       -7.67852415097280       -7.42839192917236     
  -7.17925795753631       -6.92914243240609       -6.67939164486855     
  -6.42949631068455       -6.17965987940675       -5.92980209303830     
  -5.67995676024028       -5.43011046012138       -5.18026978455953     
  -4.93043203856285       -4.68059844109481       -4.43076738235793     
  -4.18093750950225       -3.93110532164698       -3.68126554533496     
  -3.43140921561379       -3.18152203546832       -2.93157994808413     
  -2.68154566983838       -10.1752853976431       -9.92528539764312     
  -9.67596172784460       -9.42647968288884       -9.17689936440020     
  -8.92723548695131       -8.67753946794645       -8.42777457575581     
  -8.17801758727512       -7.92818798541166       -7.67840365814031     
  -7.42829667596369       -7.17910462736354       -6.92899593216370     
  -6.67921414169678       -6.42930984115003       -6.17944896082103     
  -5.92957094935033       -5.67969769502011       -5.42982099707141     
  -5.17994375997209       -4.93006419289344       -4.68018211522847     
  -4.43029570061237       -4.18040290128585       -3.93049990786081     
  -3.68058119240591       -3.43063780755391       -3.18065568248268     
  -2.93061113260845       -2.68046792343160       -10.1752853976431     
  -9.92528539764312       -9.67596358980374       -9.42647858170349     
  -9.17689217778664       -8.92722118259823       -8.67751469829657     
  -8.42774331733095       -8.17796840961455       -7.92814148846774     
  -7.67831786551826       -7.42824136031224       -7.17899507908993     
  -6.92889563038306       -6.67909011739110       -6.42917818927347     
  -6.17930022391086       -5.92940890876104       -5.67951922680586     
  -5.42962641055176       -5.17973164185890       -4.92983403432142     
  -4.67993309508847       -4.43002734767422       -4.18011486256470     
  -3.93019213698179       -3.68025394070728       -3.43029168524597     
  -3.18029165532801       -2.93023047216548       -2.68007225135424     
  -10.1752853976431       -9.92528539764312       -9.67596455016050     
  -9.42647847882068       -9.17688960011134       -8.92721575317462     
  -8.67750452669637       -8.42773074856178       -8.17794680812983     
  -7.92812265787830       -7.67827756684689       -7.42821888531039     
  -7.17894361128360       -6.92885029835859       -6.67903381555946     
  -6.42911894765289       -6.17923379661577       -5.92933730087862     
  -5.67944141116583       -5.42954292106024       -5.17964233340229     
  -4.92973917717589       -4.67983286338599       -4.42992206759900     
  -4.18000490249689       -3.93007795578812       -3.68013605813095     
  -3.43017067565167       -3.18016811796778       -2.93010498850323     
  -2.67994536749633       -10.1752853976431       -9.92528539764312     
  -9.67596441144950       -9.42647826092405       -9.17688930288410     
  -8.92721532782052       -8.67750394420552       -8.42772985034579     
  -8.17794559907902       -7.92812087813007       -7.67827511873877     
  -7.42821532079160       -7.17893968771854       -6.92884581780058     
  -6.67902879568730       -6.42911333963579       -6.17922756282278     
  -5.92933039494810       -5.67943378562628       -5.42953452605497     
  -5.17963311802029       -4.92972909002867       -4.67982185351445     
  -4.42991008542081       -4.17999190090428       -3.93006389133890     
  -3.68012089232669       -3.43015437620327       -3.18015065987716     
  -2.93008635433986       -2.67992554323318       -10.1752853976431     
  -9.92528539764312       -9.67596331442037       -9.42647816332877     
  -9.17689161601251       -8.92722036173698       -8.67751354653137     
  -8.42774144425162       -8.17796582021879       -7.92813751244706     
  -7.67831225549706       -7.42823292708069       -7.17898566899682     
  -6.92888471512465       -6.67907769722337       -6.42916410143762     
  -6.17928431964738       -5.92939100911920       -5.67949913659210     
  -5.42960391476127       -5.17970650639406       -4.92980600587310     
  -4.67990190164985       -4.42999269974050       -4.18007645535438     
  -3.93014965387699       -3.68020705822495       -3.43024007946894     
  -3.18023500928031       -2.93016848104770       -2.68000460563472     
  -10.1752853976431       -9.92528539764312       -9.67596160803518     
  -9.42647952956921       -9.17689917591063       -8.92723515976896     
  -8.67753894178958       -8.42777346812914       -8.17801592542432     
  -7.92818502500426       -7.67839920636593       -7.42828936669278     
  -7.17909619808914       -6.92898577832241       -6.67920218659408     
  -6.42929586095627       -6.17943271398171       -5.92955215047262     
  -5.67967601203435       -5.42979604456453       -5.17991508619903     
  -4.93003126570172       -4.68014430176319       -4.43025224182716     
  -4.18035287914582       -3.93044220457283       -3.68051444159485     
  -3.43056033817909       -3.18056545706966       -2.93050567312126     
  -2.68034413373084       -10.1752853976431       -9.92528539764312     
  -9.67595986124292       -9.42648430055521       -9.17691499288538     
  -8.92726381707474       -8.67758303709805       -8.42783011413587     
  -8.17809437701726       -7.92826858918591       -7.67852429329484     
  -7.42839111878575       -7.17925645479922       -6.92913990830048     
  -6.67938794311945       -6.42949129665477       -6.17965336397868     
  -5.92979388760499       -5.67994665215068       -5.43009823299150     
  -5.18025521991991       -4.93041493574046       -4.68057864007516     
  -4.43074480073291       -4.18091218999561       -3.93107748461229     
  -3.68123561723234       -3.43137775245609       -3.18148934442356     
  -2.93154496856197       -2.68150293229903       -10.1752853976431     
  -9.92528539764312       -9.67594589928252       -9.42645981018545     
  -9.17687879056923       -8.92721394352895       -8.67751379695981     
  -8.42774134872131       -8.17797651867232       -7.92813414002804     
  -7.67835087349461       -7.42820197828649       -7.17904658675921     
  -6.92887287379423       -6.67907992873704       -6.42912328666245     
  -6.17925238771362       -5.92935661776875       -5.67948718776008     
  -5.42962329531352       -5.17977836905068       -4.92995019921178     
  -4.68014448771332       -4.43036296420862       -4.18060910529871     
  -3.93088464808180       -3.68119075222273       -3.43152626977708     
  -3.18188755966230       -2.93227020660595       -2.68271655496062     
  -10.1752853976431       -9.92528539764312       -9.67551223288325     
  -9.42537972989094       -9.17511135525752       -8.92473792297036     
  -8.67436513653688       -8.42393809969044       -8.17342871420265     
  -7.92314467383835       -7.67231294189385       -7.42181635924597     
  -7.17090355472642       -6.92095042222595       -6.67057401323312     
  -6.42009876040501       -6.16972999643156       -5.91930427101328     
  -5.66893782138911       -5.41857087762087       -5.16824889657775     
  -4.91795439758784       -4.66770664975883       -4.41750674951833     
  -4.16736738584784       -3.91729793112149       -3.66731310535222     
  -3.41742986114747       -3.16767127751653       -2.91806773650099     
  -2.66866381150593       -10.1752853976431       -9.92528539764312     
  -9.67498038633872       -9.42444551073917       -9.17386942656536     
  -8.92323088570117       -8.67272832967772       -8.42200227616219     
  -8.17176958025351       -7.92076003130500       -7.67101747630400     
  -7.41966381294275       -7.16761475832103       -6.91854266905159     
  -6.66777257559846       -6.41749500687202       -6.16710504038043     
  -5.91677378640375       -5.66652329096195       -5.41633021657109     
  -5.16623555132100       -4.91623674885787       -4.66636421927352     
  -4.41663417566521       -4.16707804847242       -3.91772625244921     
  -3.66861864254344       -3.41979976780938       -3.17132075030818     
  -2.92322990151756       -2.67552832951085     
  0.000000000000000E+000  0.000000000000000E+000  3.673190054200982E-004
  1.433201617690723E-003  3.267759985846812E-003  5.736339169997981E-003
  9.212684096862052E-003  1.258996653746551E-002  1.834859504191448E-002
  2.092925611857580E-002  3.118924780313875E-002  3.032759252554627E-002
  4.491875496400751E-002  5.050313735884102E-002  5.880474870585054E-002
  6.720337035496722E-002  7.558044897677418E-002  8.424856486009369E-002
  9.282366777847542E-002  0.101430090803023       0.109859929948825     
  0.118103235275863       0.126046123683491       0.133631791470793     
  0.140775396968533       0.147406751786254       0.153447226084975     
  0.158814898735835       0.163406409295199       0.167050964342387     
  0.169336654384455       0.290581825739480       0.290581825739480     
  0.290938117396501       0.289557803010602       0.286582200878676     
  0.282760256936224       0.276014992445830       0.271951326099468     
  0.257919308224236       0.260977161493634       0.229753385846448     
  0.249423516098811       0.208065526665484       0.206879048187354     
  0.189029378206187       0.174091675205847       0.159763607017055     
  0.143728339366765       0.128595631570758       0.112919861949129     
  9.774186949405804E-002  8.268982356896332E-002  6.815209364131974E-002
  5.410153959361338E-002  4.072395335202916E-002  2.808801048748290E-002
  1.631762142049818E-002  5.518784217404496E-003 -4.143998281616630E-003
 -1.234761524838193E-002 -1.811060288454149E-002   1.14543974346790     
   1.14543974346790        1.14556318107564        1.14555099427102     
   1.14548361914841        1.14547344419922        1.14515243705253     
   1.14543752557885        1.14415364571156        1.14622516244168     
   1.14129384196992        1.14776754476649        1.14042281706441     
   1.14414735235885        1.14190606303460        1.14164606856879     
   1.14089377959451        1.14013911495416        1.13931479992568     
   1.13843996742133        1.13752488326782        1.13656917834015     
   1.13558558349712        1.13458202715308        1.13357458245986     
   1.13258111477814        1.13162731232498        1.13074657559902     
   1.12998409940179        1.12939786618263        1.12905404127682     
   2.51489251828899        2.51489251828899        2.51493926169522     
   2.51494183900540        2.51493510871708        2.51495893370951     
   2.51488727378304        2.51503750710693        2.51465364018841     
   2.51547374429963        2.51375488755405        2.51624575196985     
   2.51369670161611        2.51522307757610        2.51457119717534     
   2.51463630414602        2.51457029550603        2.51450882396947     
   2.51444297984837        2.51437317694416        2.51430566666890     
   2.51423858513260        2.51417561314774        2.51411763714239     
   2.51406755200367        2.51402749176004        2.51400016406297     
   2.51398781815861        2.51399215385528        2.51401301901666     
   2.51404364212595        4.31935253268844        4.31935253268844     
   4.31937171106114        4.31937256134884        4.31937050744668     
   4.31938117520205        4.31935641418392        4.31941783322169     
   4.31927570603666        4.31959942533976        4.31893548220907     
   4.31991230331226        4.31894383700696        4.31954943626587     
   4.31931931368837        4.31935930517054        4.31935802185739     
   4.31935803101306        4.31935946505358        4.31936058677349     
   4.31936421186994        4.31936895854111        4.31937582615088     
   4.31938448153725        4.31939522878135        4.31940790360283     
   4.31942236176825        4.31943810803445        4.31945427066395     
   4.31946913348778        4.31947833533092        6.45395112957464     
   6.45395112957464        6.45395844071336        6.45395805605277     
   6.45395659941004        6.45396013282456        6.45395018317130     
   6.45397332580340        6.45391875370554        6.45404280968390     
   6.45378737554607        6.45416190439248        6.45379611927933     
   6.45402935176717        6.45394654684979        6.45396437364279     
   6.45396829811146        6.45397239219399        6.45397740148666     
   6.45398224072790        6.45398798629935        6.45399393876307     
   6.45400033871533        6.45400690067422        6.45401357001307     
   6.45402011966896        6.45402633224238        6.45403187831090     
   6.45403631529826        6.45403893407115        6.45403813603241     
   8.79463319744677        8.79463319744677        8.79463390692889     
   8.79463248534746        8.79463070903485        8.79463019419366     
   8.79462606313843        8.79463055428652        8.79461464008515     
   8.79464545497767        8.79457693692296        8.79467322833623     
   8.79457861898496        8.79463942906915        8.79461854710132     
   8.79462341068252        8.79462495679661        8.79462646197063     
   8.79462827065068        8.79463001801971        8.79463200413559     
   8.79463402260977        8.79463613049950        8.79463824179524     
   8.79464033526116        8.79464234668990        8.79464421845625     
   8.79464586875261        8.79464719310026        8.79464802852049     
   8.79464800995620        11.2053668025532        11.2053668025532     
   11.2053620952154        11.2053594800826        11.2053569338475     
   11.2053528982447        11.2053521508821        11.2053425459053     
   11.2053530645562        11.2053165426496        11.2053798333669     
   11.2052774609962        11.2053732065026        11.2053110937606     
   11.2053319825252        11.2053265397210        11.2053248289307     
   11.2053230725405        11.2053212063947        11.2053194708681     
   11.2053176532893        11.2053159388063        11.2053143069109     
   11.2053128514906        11.2053116177733        11.2053106868912     
   11.2053101385646        11.2053100763755        11.2053106316148     
   11.2053120048649        11.2053146501094        13.5460488704254     
   13.5460488704254        13.5460372649416        13.5460331271724     
   13.5460296600234        13.5460208562492        13.5460250155632     
   13.5459956797025        13.5460435305308        13.5459121590873     
   13.5461607169433        13.5457778012457        13.5461442693661     
   13.5459083765530        13.5459901989132        13.5459704639293     
   13.5459651123486        13.5459593458813        13.5459528334749     
   13.5459464728334        13.5459393282041        13.5459320735683     
   13.5459245415478        13.5459170498426        13.5459097201304     
   13.5459028426374        13.5458967164677        13.5458917620802     
   13.5458885329432        13.5458878807252        13.5458916604320     
   15.6806474673116        15.6806474673116        15.6806236043544     
   15.6806175695405        15.6806138710749        15.6805969285628     
   15.6806145919276        15.6805454052995        15.6806788010664     
   15.6803453214722        15.6809996701893        15.6800107109241     
   15.6809789291188        15.6803680532616        15.6805952111290     
   15.6805505111695        15.6805475732715        15.6805425635225     
   15.6805360225913        15.6805292851554        15.6805197347646     
   15.6805086280504        15.6804950379705        15.6804792845909     
   15.6804611358363        15.6804408359892        15.6804186865306     
   15.6803954160403        15.6803722642870        15.6803515234388     
   15.6803386216867        17.4851074817110        17.4851074817110     
   17.4850557618840        17.4850475356219        17.4850479660157     
   17.4850172145755        17.4850809001746        17.4849218819635     
   17.4852955322444        17.4844642856092        17.4861709175777     
   17.4836656710479        17.4862135411897        17.4846796449052     
   17.4853270556075        17.4852547482273        17.4853141506756     
   17.4853675777779        17.4854249949546        17.4854852350285     
   17.4855423292332        17.4855978095456        17.4856480195849     
   17.4856918856064        17.4857264581689        17.4857494857774     
   17.4857582054347        17.4857502802987        17.4857238493316     
   17.4856785810915        17.4856199652107        18.8545602565321     
   18.8545602565321        18.8544316784920        18.8544380825492     
   18.8544990783570        18.8545023235331        18.8548153166875     
   18.8545216129452        18.8557949049319        18.8537136048864     
   18.8586298260765        18.8521442208569        18.8594865406794     
   18.8557548683197        18.8579919557588        18.8582450235342     
   18.8589912366650        18.8597385979097        18.8605556325714     
   18.8614225991009        18.8623298535927        18.8632779028472     
   18.8642548809559        18.8652540787436        18.8662619352712     
   18.8672653201833        18.8682484654401        18.8692006423590     
   18.8701377788247        18.8712193717808        18.8737675657750     
   19.7094181742605        19.7094181742605        19.7090567126770     
   19.7104327188304        19.7134042763720        19.7172216619041     
   19.7239609208287        19.7280164359483        19.7420381166679     
   19.7389701057909        19.7701718518944        19.7504988324658     
   19.7918528091659        19.7930346090524        19.8108812493608     
   19.8258135082416        19.8401369499944        19.8561660321563     
   19.8712922616319        19.8869600656984        19.9021291301356     
   19.9171704052092        19.9316955767468        19.9457307731844     
   19.9590894281207        19.9717012049924        19.9834401403231     
   19.9941971098394        20.0038033745076        20.0119318001950     
   20.0176057758182        20.0000000000000        20.0000000000000     
   19.9996275104405        19.9985546349308        19.9967121580727     
   19.9942350147691        19.9907486201311        19.9873610505512     
   19.9815889804850        19.9789962612228        19.9687146507667     
   19.9695657594361        19.9549615811717        19.9493666077064     
   19.9410512536271        19.9326372656689        19.9242419771900     
   19.9155526483819        19.9069524080163        19.8983160183975     
   19.8898499929135        19.8815625860505        19.8735652073658     
   19.8659112486810        19.8586805005644        19.8519354931335     
   19.8457428656206        19.8401659249601        19.8352795804194     
   19.8312143504301        19.8283363604707     
 -6.536680706074363E-003 -6.536680706074363E-003 -1.579027255370520E-006
  7.156899825734819E-003  1.464254089704639E-002  2.216886764174664E-002
  2.970165593048086E-002  3.691266047732866E-002  4.396464218717829E-002
  5.085888635812186E-002  5.647292985394038E-002  6.409087660988212E-002
  6.930092830016719E-002  7.322035128308294E-002  7.751602422312473E-002
  8.004534341444100E-002  8.242969891630486E-002  8.369758238409450E-002
  8.436510917969697E-002  8.413732433691949E-002  8.318119515872963E-002
  8.142316169581022E-002  7.893957799129342E-002  7.573390670871805E-002
  7.186272060158193E-002  6.736759411335760E-002  6.231398830482072E-002
  5.677588316970595E-002  5.086003532933416E-002  4.474527184804320E-002
  3.884844455380416E-002 -6.536680706074363E-003 -6.536680706074363E-003
 -2.632538443900567E-002 -4.493688941528674E-002 -6.274047226085816E-002
 -7.949320452361343E-002 -9.570167324239408E-002 -0.110915393582843     
 -0.124257235725044      -0.139806505587457      -0.147496372157821     
 -0.160219432534441      -0.175435221267801      -0.184466832509864     
 -0.193375579156583      -0.199512800616419      -0.206112682190503     
 -0.210305878582031      -0.214001898195392      -0.216100035096018     
 -0.217371625798516      -0.217466464935238      -0.216738512041274     
 -0.215158979356575      -0.212956950525736      -0.210255382019337     
 -0.207282978471035      -0.204267383054800      -0.201524069987233     
 -0.199504274565928      -0.199144847929777      -6.536680706074363E-003
 -6.536680706074363E-003 -2.009959283899725E-002 -3.209324533933847E-002
 -4.321447470245361E-002 -5.354087827789804E-002 -6.365576709377352E-002
 -7.287204058356085E-002 -8.263896222351688E-002 -9.053604551931199E-002
 -0.100609236961129      -0.100607531777047      -0.124177077387242     
 -0.125920211187458      -0.138054818749575      -0.144748834098475     
 -0.154177509975455      -0.162165134106195      -0.170828690530516     
 -0.179125273845872      -0.187586203924348      -0.195952908793884     
 -0.204357561368201      -0.212730772900300      -0.221094281138329     
 -0.229408855272583      -0.237641071017138      -0.245714770878169     
 -0.253511062505148      -0.260826121415694      -0.267247709123547     