 Title = "Wing and Wake"
 VARIABLES = "X" "Y" "Z" "GAM"
 Zone I=    5 J=   14 K=1  T="Blade"
 DATAPACKING=BLOCK
 VARLOCATION=([4]=CELLCENTERED)
  -9.74619469809175       -9.49714602356881       -9.24809734904587     
  -8.99904867452294       -8.75000000000000       -9.74619469809175     
  -9.49714602356881       -9.24809734904587       -8.99904867452294     
  -8.75000000000000       -9.74619469809175       -9.49714602356881     
  -9.24809734904587       -8.99904867452294       -8.75000000000000     
  -9.74619469809175       -9.49714602356881       -9.24809734904587     
  -8.99904867452294       -8.75000000000000       -9.74619469809175     
  -9.49714602356881       -9.24809734904587       -8.99904867452294     
  -8.75000000000000       -9.74619469809175       -9.49714602356881     
  -9.24809734904587       -8.99904867452294       -8.75000000000000     
  -9.74619469809175       -9.49714602356881       -9.24809734904587     
  -8.99904867452294       -8.75000000000000       -9.74619469809175     
  -9.49714602356881       -9.24809734904587       -8.99904867452294     
  -8.75000000000000       -9.74619469809175       -9.49714602356881     
  -9.24809734904587       -8.99904867452294       -8.75000000000000     
  -9.74619469809175       -9.49714602356881       -9.24809734904587     
  -8.99904867452294       -8.75000000000000       -9.74619469809175     
  -9.49714602356881       -9.24809734904587       -8.99904867452294     
  -8.75000000000000       -9.74619469809175       -9.49714602356881     
  -9.24809734904587       -8.99904867452294       -8.75000000000000     
  -9.74619469809175       -9.49714602356881       -9.24809734904587     
  -8.99904867452294       -8.75000000000000       -9.74619469809175     
  -9.49714602356881       -9.24809734904587       -8.99904867452294     
  -8.75000000000000     
  0.000000000000000E+000  0.000000000000000E+000  0.000000000000000E+000
  0.000000000000000E+000  0.000000000000000E+000  0.290581825739480     
  0.290581825739480       0.290581825739480       0.290581825739480     
  0.290581825739480        1.14543974346790        1.14543974346790     
   1.14543974346790        1.14543974346790        1.14543974346790     
   2.51489251828899        2.51489251828899        2.51489251828899     
   2.51489251828899        2.51489251828899        4.31935253268844     
   4.31935253268844        4.31935253268844        4.31935253268844     
   4.31935253268844        6.45395112957464        6.45395112957464     
   6.45395112957464        6.45395112957464        6.45395112957464     
   8.79463319744677        8.79463319744677        8.79463319744677     
   8.79463319744677        8.79463319744677        11.2053668025532     
   11.2053668025532        11.2053668025532        11.2053668025532     
   11.2053668025532        13.5460488704254        13.5460488704254     
   13.5460488704254        13.5460488704254        13.5460488704254     
   15.6806474673116        15.6806474673116        15.6806474673116     
   15.6806474673116        15.6806474673116        17.4851074817110     
   17.4851074817110        17.4851074817110        17.4851074817110     
   17.4851074817110        18.8545602565321        18.8545602565321     
   18.8545602565321        18.8545602565321        18.8545602565321     
   19.7094181742605        19.7094181742605        19.7094181742605     
   19.7094181742605        19.7094181742605        20.0000000000000     
   20.0000000000000        20.0000000000000        20.0000000000000     
   20.0000000000000     
  8.715574274765817E-002  6.536680706074363E-002  4.357787137382908E-002
  2.178893568691454E-002  0.000000000000000E+000  8.715574274765817E-002
  6.536680706074363E-002  4.357787137382908E-002  2.178893568691454E-002
  0.000000000000000E+000  8.715574274765817E-002  6.536680706074363E-002
  4.357787137382908E-002  2.178893568691454E-002  0.000000000000000E+000
  8.715574274765817E-002  6.536680706074363E-002  4.357787137382908E-002
  2.178893568691454E-002  0.000000000000000E+000  8.715574274765817E-002
  6.536680706074363E-002  4.357787137382908E-002  2.178893568691454E-002
  0.000000000000000E+000  8.715574274765817E-002  6.536680706074363E-002
  4.357787137382908E-002  2.178893568691454E-002  0.000000000000000E+000
  8.715574274765817E-002  6.536680706074363E-002  4.357787137382908E-002
  2.178893568691454E-002  0.000000000000000E+000  8.715574274765817E-002
  6.536680706074363E-002  4.357787137382908E-002  2.178893568691454E-002
  0.000000000000000E+000  8.715574274765817E-002  6.536680706074363E-002
  4.357787137382908E-002  2.178893568691454E-002  0.000000000000000E+000
  8.715574274765817E-002  6.536680706074363E-002  4.357787137382908E-002
  2.178893568691454E-002  0.000000000000000E+000  8.715574274765817E-002
  6.536680706074363E-002  4.357787137382908E-002  2.178893568691454E-002
  0.000000000000000E+000  8.715574274765817E-002  6.536680706074363E-002
  4.357787137382908E-002  2.178893568691454E-002  0.000000000000000E+000
  8.715574274765817E-002  6.536680706074363E-002  4.357787137382908E-002
  2.178893568691454E-002  0.000000000000000E+000  8.715574274765817E-002
  6.536680706074363E-002  4.357787137382908E-002  2.178893568691454E-002
  0.000000000000000E+000
  0.745521339818490        1.00303345203406        1.14249825781490     
   1.21580734461394        1.07549950478855        1.51070289411881     
   1.75817466815251        1.88859022599686        1.24972146908495     
   1.77555646631937        2.08468827561734        2.25150806585918     
   1.33089608420537        1.89573461470952        2.23041510899117     
   2.41208474827731        1.36758588025563        1.94917526461443     
   2.29433910740954        2.48176578021169        1.38328529209934     
   1.97181145103275        2.32115999080009        2.51074598126160     
   1.38761168387688        1.97801871692535        2.32848088769347     
   2.51862400601706        1.38316287684796        1.97163874515577     
   2.32096461822013        2.51055527503492        1.36742137285916     
   1.94894012868940        2.29406944488634        2.48149855978319     
   1.33080882601142        1.89560361337200        2.23025745458324     
   2.41192034573190        1.24977593409594        1.77562158824025     
   2.08474833094766        2.25155159390229        1.07565629788334     
   1.51090923672054        1.75839307680494        1.88878852913829     
  0.745667574724149        1.00321870797101        1.14269496583406     
   1.21599284514343     
 Zone I=   31 J=   14 K=1  T="NearWake"
 DATAPACKING=BLOCK
 VARLOCATION=([4]=CELLCENTERED)
  -8.67528539764312       -8.42528539764312       -8.17500726338441     
  -7.92438874218455       -7.67406622167519       -7.42307101778890     
  -7.17195866479600       -6.92182988914878       -6.67119880436791     
  -6.42071493739642       -6.17021746624219       -5.91976037086780     
  -5.66935037375794       -5.41898710712232       -5.16868895800093     
  -4.91846208844764       -4.66832529309340       -4.41829444800114     
  -4.16839318608079       -3.91864803830821       -3.66909299308233     
  -3.41976931210187       -3.17072860790614       -2.92203493382804     
  -2.67376819756453       -2.42602739618668       -2.17893340065390     
  -1.93262793894218       -1.68726037654756       -1.44294371190163     
  -1.19945523477000       -8.67528539764312       -8.42528539764312     
  -8.17554653990701       -7.92534451451231       -7.67531703607175     
  -7.42444438624898       -7.17449090871265       -6.92390124108914     
  -6.67364193410263       -6.42316998608673       -6.17280043367332     
  -5.92238589936636       -5.67200804837150       -5.42163063331717     
  -5.17128182101561       -4.92095434674540       -4.67066152678338     
  -4.42040658872224       -4.17019967168367       -3.92004915304885     
  -3.66996699015676       -3.41996639767837       -3.17006381274431     
  -2.92027839156607       -2.67063235226822       -2.42114917786294     
  -2.17184936579489       -1.92273772940888       -1.67377013346464     
  -1.42471939642250       -1.17491833629015       -8.67528539764312     
  -8.42528539764312       -8.17597150894753       -7.92642194468109     
  -7.67703176010786       -7.42694791296052       -7.17808987438658     
  -6.92793900286569       -6.67831500456043       -6.42842404161346     
  -6.17864514856745       -5.92879972536653       -5.67898090755971     
  -5.42914612939586       -5.17932279665361       -4.92950215503526     
  -4.67969494399754       -4.42990161133768       -4.18012830384624     
  -3.93037783540841       -3.68065422900020       -3.43095929319142     
  -3.18129298557457       -2.93165031825657       -2.68201782619412     
  -2.43236562563982       -2.18263279741255       -1.93269758104836     
  -1.68231359160440       -1.43095301038509       -1.17761756449396     
  -8.67528539764312       -8.42528539764312       -8.17598535854742     
  -7.92644215506436       -7.67706526093358       -7.42696785399426     
  -7.17813675643865       -6.92800731044711       -6.67840766205457     
  -6.42854694994537       -6.17879263426996       -5.92897206576974     
  -5.67917447929268       -5.42935726650408       -5.17954546787348     
  -4.92972784915548       -4.67991213344749       -4.43009483031165     
  -4.18027756102124       -3.93045740840508       -3.68063155290699     
  -3.43079328738674       -3.18093215398070       -2.93103028299151     
  -2.68105840147544       -2.43096730740684       -2.18067278001155     
  -1.93002505396680       -1.67874297700232       -1.42624844144802     
  -1.17166591634174       -8.67528539764312       -8.42528539764312     
  -8.17598572616493       -7.92643579432544       -7.67704114260789     
  -7.42693019578104       -7.17807809875989       -6.92793256273985     
  -6.67831118911343       -6.42843265854317       -6.17865739805448     
  -5.92881523565426       -5.67899338844331       -5.42914897658518     
  -5.17930629169744       -4.92945319631831       -4.67959672867819     
  -4.42973240990171       -4.17986108051883       -3.92997891429634     
  -3.68008238122441       -3.43016416516297       -3.18021352675247     
  -2.93021268171374       -2.68013300021695       -2.42992655094211     
  -2.17951099536282       -1.92873871944033       -1.67732979285132     
  -1.42470252424279       -1.17002649123788       -8.67528539764312     
  -8.42528539764312       -8.17598605029861       -7.92643363318901     
  -7.67702541234289       -7.42691124475143       -7.17803948377487     
  -6.92788577162873       -6.67824900600954       -6.42835745011125     
  -6.17856734566692       -5.92871013311547       -5.67887247760801     
  -5.42901149608463       -5.17915157946534       -4.92928045867280     
  -4.67940533896732       -4.42952174930854       -4.17963074122780     
  -3.92972866379341       -3.67981229109504       -3.42987463525537     
  -3.17990536074595       -2.92988710027989       -2.67979163285151     
  -2.42957134218995       -2.17914400369629       -1.92836171871030     
  -1.67694349793787       -1.42430489540950       -1.16962505520087     
  -8.67528539764312       -8.42528539764312       -8.17598602366896     
  -7.92643273030424       -7.67701746734885       -7.42690279740292     
  -7.17802082036070       -6.92786440054669       -6.67822089836503     
  -6.42832387065751       -6.17852759350631       -5.92866428363502     
  -5.67882048196920       -5.42895333543416       -5.17908736773910     
  -4.92921029958448       -4.67932946259817       -4.42944042101790     
  -4.17954433019191       -3.92963760202197       -3.67971709543851     
  -3.42977588279604       -3.17980368097128       -2.92978314348305     
  -2.67968603420378       -2.42946466444575       -2.17903665903137     
  -1.92825385043391       -1.67683478485815       -1.42419413148158     
  -1.16951351554148       -8.67528539764312       -8.42528539764312     
  -8.17598558549854       -7.92643187702106       -7.67701602272483     
  -7.42690062919384       -7.17801841778331       -6.92786171505744     
  -6.67821792293915       -6.42832058389183       -6.17852397502743     
  -5.92866031137396       -5.67881613352241       -5.42894858822999     
  -5.17908219946406       -4.92920468858714       -4.67932338834028     
  -4.42943386456957       -4.17953727477462       -3.92963003358586     
  -3.67970900327245       -3.42976726014775       -3.17979452566465     
  -2.92977345850436       -2.67967582823293       -2.42945395230026     
  -2.17902546199307       -1.92824219642628       -1.67682270844254     
  -1.42418167362637       -1.16950072285647       -8.67528539764312     
  -8.42528539764312       -8.17598502001296       -7.92643159237620     
  -7.67702190309274       -7.42690589652643       -7.17803346221627     
  -6.92787893165551       -6.67824130447894       -6.42834880442629     
  -6.17855766988003       -5.92869933203403       -5.67886044897197     
  -5.42899813091989       -5.17913676262692       -4.92926406975969     
  -4.67938725346615       -4.42950184020660       -4.17960888113531     
  -3.92970472765005       -3.67978615955761       -3.42984619877802     
  -3.17987452438508       -2.92985378914681       -2.67975579809509     
  -2.42953296726485       -2.17910311057851       -1.92831837358914     
  -1.67689781579661       -1.42425704270741       -1.16957524813207     
  -8.67528539764312       -8.42528539764312       -8.17598486968006     
  -7.92643401374250       -7.67703796411737       -7.42692515608234     
  -7.17807219952537       -6.92792560095217       -6.67830306336319     
  -6.42842321696800       -6.17864646569429       -5.92880261071992     
  -5.67897883749461       -5.42913223180606       -5.17928704491653     
  -4.92943109385781       -4.67957136482051       -4.42970332032501     
  -4.17982773547096       -3.92994071223887       -3.68003864375841     
  -3.43011413452602       -3.18015636786653       -2.93014749143496     
  -2.68005882739369       -2.42984243155888       -2.17941600741361     
  -1.92863206131329       -1.67721088602102       -1.42457113434901     
  -1.16988283890594       -8.67528539764312       -8.42528539764312     
  -8.17598543633996       -7.92644212827521       -7.67706500381613     
  -7.42696708561178       -7.17813545774188       -6.92800534083640     
  -6.67840492521008       -6.42854332609696       -6.17878796754375     
  -5.92896617426652       -5.67916713833074       -5.42934820489025     
  -5.17953435188369       -4.92971426771267       -4.67989557484610     
  -4.43007465299365       -4.18025295294163       -3.93042733205449     
  -3.68059466907882       -3.43074784891859       -3.18087585600930     
  -2.93096005014223       -2.68097008367949       -2.43085524469608     
  -2.18052918490635       -1.92983915811393       -1.67849992828691     
  -1.42592809880389       -1.17124195728258       -8.67528539764312     
  -8.42528539764312       -8.17597266896847       -7.92642397231225     
  -7.67703500870624       -7.42695242775081       -7.17809442249370     
  -6.92794359375222       -6.67831960459919       -6.42842865825336     
  -6.17864976075667       -5.92880432349686       -5.67898547045600     
  -5.42915063623254       -5.17932721823840       -4.92950645642842     
  -4.67969907961905       -4.42990552323477       -4.18013191629514     
  -3.93038104909861       -3.68065691165695       -3.43096126668435     
  -3.18129400656514       -2.93165004929138       -2.68201579054354     
  -2.43236113414943       -2.18262482347251       -1.93268454256027     
  -1.68229301813482       -1.43092181422526       -1.17758828055456     
  -8.67528539764312       -8.42528539764312       -8.17554830270874     
  -7.92534743940270       -7.67532222903398       -7.42445239428450     
  -7.17449917702439       -6.92391006527887       -6.67365128512142     
  -6.42317998395424       -6.17281115352085       -5.92239747801950     
  -5.67202063397257       -5.42164442386307       -5.17129705770432     
  -4.92097133898088       -4.67068066678062       -4.42042838274070     
  -4.17022477680142       -3.92007843238742       -3.67000159035568     
  -3.42000786250671       -3.17011425045559       -2.92034072531290     
  -2.67071070137299       -2.42124944581779       -2.17198016160508     
  -1.92291182208023       -1.67400675291435       -1.42504789488538     
  -1.17538364651657       -8.67528539764312       -8.42528539764312     
  -8.17500934342836       -7.92439320142443       -7.67407324385748     
  -7.42308028083298       -7.17196859951560       -6.92184048345461     
  -6.67121015709330       -6.42072714934799       -6.17023066576521     
  -5.91977470644064       -5.66936602733339       -5.41900429855411     
  -5.16870795842229       -4.91848323389128       -4.66834900511393     
  -4.41832126075558       -4.16842378473910       -3.91868331277797     
  -3.66913411520235       -3.41981784800283       -3.17078668486661     
  -2.92210549273346       -2.67385538267534       -2.42613716940779     
  -2.17907453007793       -1.93281361823735       -1.68751089965050     
  -1.44329072037455       -1.19994830671632     
  0.000000000000000E+000  0.000000000000000E+000  3.318256206149520E-004
  1.255178917371048E-003  3.706368383301310E-003  4.309501259571431E-003
  1.047978266116375E-002  1.416696875813576E-002  1.915253562361086E-002
  2.472764234297064E-002  3.071483772744708E-002  3.726349952984914E-002
  4.414686488949617E-002  5.139995516772421E-002  5.888124467328153E-002
  6.654479722989604E-002  7.428602405523119E-002  8.202587911944298E-002
  8.966629323185883E-002  9.711343114158022E-002  0.104266061771050     
  0.111020758149431       0.117267895606994       0.122890746838534     
  0.127761291710555       0.131735046735872       0.134644191226425     
  0.136284855281595       0.136427538721684       0.134639597454661     
  0.130635326666197       0.290581825739480       0.290581825739480     
  0.290876519675136       0.290411757667036       0.284198820447966     
  0.287436295710207       0.272981977187645       0.268741293348702     
  0.259306763264770       0.249209582016860       0.238866658622120     
  0.226906856282641       0.214682820350261       0.201543178895992     
  0.188054049938802       0.174111459739586       0.159980438822973     
  0.145736340396175       0.131560254973541       0.117582970238089     
  0.103962209584378       9.084339223088750E-002  7.838037177310671E-002
  6.673015446322149E-002  5.606401476011595E-002  4.657913120016753E-002
  3.852194134254604E-002  3.223480909900504E-002  2.826352014289991E-002
  2.762588042677767E-002  3.264162301655557E-002   1.14543974346790     
   1.14543974346790        1.14553808721398        1.14576411532633     
   1.14485538475308        1.14643873916013        1.14452029498936     
   1.14534586316705        1.14481061134503        1.14448939729911     
   1.14419498537036        1.14375165921942        1.14331190632383     
   1.14278830047451        1.14223265603894        1.14161945429156     
   1.14096667156981        1.14027120410825        1.13954369808937     
   1.13879071874930        1.13802485773266        1.13726046098292     
   1.13651722777447        1.13582020350220        1.13520236462929     
   1.13470696298723        1.13439175956860        1.13433392463831     
   1.13463164526875        1.13542695476491        1.13683562024892     
   2.51489251828899        2.51489251828899        2.51492848173523     
   2.51501916400422        2.51470230048042        2.51530311428647     
   2.51466455888776        2.51502556855346        2.51490766606369     
   2.51487405112384        2.51487317735127        2.51483141874633     
   2.51480612379336        2.51476635244294        2.51473066647904     
   2.51469074391416        2.51465273139391        2.51461568125723     
   2.51458279644323        2.51455566924723        2.51453727836083     
   2.51453046447603        2.51453864553612        2.51456527818674     
   2.51461378459696        2.51468712017582        2.51478764951900     
   2.51491670948146        2.51507248371397        2.51525266046853     
   2.51542605697555        4.31935253268844        4.31935253268844     
   4.31936653595086        4.31940162504994        4.31927806031406     
   4.31951037004000        4.31927283829285        4.31941877044938     
   4.31938354610175        4.31938033734886        4.31939365391467     
   4.31939313311005        4.31940112386433        4.31940575928765     
   4.31941387263837        4.31942225350995        4.31943286343578     
   4.31944503555969        4.31945941610045        4.31947593947475     
   4.31949480738477        4.31951595181622        4.31953924235038     
   4.31956430112363        4.31959049494475        4.31961685658769     
   4.31964216406176        4.31966494430793        4.31968302844619     
   4.31969403925946        4.31968657375950        6.45395112957464     
   6.45395112957464        6.45395593844778        6.45396851516806     
   6.45392024983462        6.45400791449077        6.45392016569161     
   6.45397731561603        6.45396660571621        6.45396766711911     
   6.45397564973243        6.45397859906115        6.45398497037870     
   6.45399024879170        6.45399686914431        6.45400355771796     
   6.45401089147434        6.45401849451011        6.45402643546002     
   6.45403452642404        6.45404266426083        6.45405065733614     
   6.45405830488173        6.45406534864932        6.45407148377182     
   6.45407634686207        6.45407955072204        6.45408068843984     
   6.45407919212148        6.45407441185047        6.45406282430278     
   8.79463319744677        8.79463319744677        8.79463282852525     
   8.79463453872835        8.79462017786942        8.79464164413604     
   8.79461924176848        8.79463433296818        8.79463194084572     
   8.79463251943173        8.79463496904454        8.79463611221382     
   8.79463814671994        8.79463989389414        8.79464196746864     
   8.79464403067233        8.79464621658269        8.79464841847999     
   8.79465064171911        8.79465282972841        8.79465494920602     
   8.79465694837896        8.79465877707466        8.79466037566117     
   8.79466167804903        8.79466260895586        8.79466309171179     
   8.79466304823188        8.79466236396485        8.79466090072348     
   8.79465783745179        11.2053668025532        11.2053668025532     
   11.2053618692979        11.2053551965283        11.2053639660357     
   11.2053380862537        11.2053604840176        11.2053451535106     
   11.2053474612063        11.2053467642915        11.2053442662608     
   11.2053430980915        11.2053410937241        11.2053394231799     
   11.2053374853150        11.2053356186305        11.2053336975342     
   11.2053318332471        11.2053300263429        11.2053283383091     
   11.2053268074414        11.2053254898293        11.2053244394701     
   11.2053237190239        11.2053233967644        11.2053235491565     
   11.2053242529918        11.2053255853928        11.2053276590460     
   11.2053306103366        11.2053352669217        13.5460488704254     
   13.5460488704254        13.5460378145840        13.5460192141518     
   13.5460605081046        13.5459671151002        13.5460544722701     
   13.5459966034000        13.5460067564491        13.5460050544610     
   13.5459964856260        13.5459929415615        13.5459860128783     
   13.5459802046069        13.5459731043055        13.5459659937618     
   13.5459583148978        13.5459504601335        13.5459423821652     
   13.5459342912280        13.5459263156711        13.5459186738095     
   13.5459115946010        13.5459053649033        13.5459003177155     
   13.5458968426989        13.5458953500241        13.5458962647032     
   13.5459001667110        13.5459077130548        13.5459224491144     
   15.6806474673116        15.6806474673116        15.6806258157713     
   15.6805830863044        15.6806974771295        15.6804572785098     
   15.6806936149780        15.6805459716494        15.6805795981287     
   15.6805809643716        15.6805657472354        15.6805641970492     
   15.6805540184893        15.6805470425932        15.6805364534114     
   15.6805254548211        15.6805121001883        15.6804970708432     
   15.6804797511712        15.6804602498279        15.6804384297146     
   15.6804144483758        15.6803885585943        15.6803612995434     
   15.6803335111727        15.6803064165441        15.6802815423984     
   15.6802607081232        15.6802464551292        15.6802415443497     
   15.6802578468510        17.4851074817110        17.4851074817110     
   17.4850628483249        17.4849633617015        17.4852692444886     
   17.4846588978878        17.4852954152843        17.4849317273126     
   17.4850469507596        17.4850774181310        17.4850748874599     
   17.4851127898771        17.4851337981761        17.4851687340956     
   17.4851989771712        17.4852327326388        17.4852637419696     
   17.4852928037181        17.4853165467668        17.4853331745089     
   17.4853394734245        17.4853323321583        17.4853080362191     
   17.4852628311431        17.4851930466741        17.4850956275719     
   17.4849684577646        17.4848111583687        17.4846278043516     
   17.4844251034416        17.4842416931638        18.8545602565321     
   18.8545602565321        18.8544529800142        18.8542180470710     
   18.8551149471234        18.8535220612772        18.8554380006138     
   18.8546095175400        18.8551417703842        18.8554594365790     
   18.8557499755660        18.8561888728246        18.8566236464215     
   18.8571415639788        18.8576907111326        18.8582964266325     
   18.8589405411654        18.8596258946860        18.8603415153306     
   18.8610804099780        18.8618294331434        18.8625735073314     
   18.8632919659292        18.8639584794951        18.8645383940653     
   18.8649863775144        18.8652425318857        18.8652294496635     
   18.8648607979822        18.8640797660802        18.8635652303062     
   19.7094181742605        19.7094181742605        19.7091146785767     
   19.7095711253057        19.7157715462100        19.7125259626939     
   19.7269776802729        19.7312157422929        19.7406476220535     
   19.7507416155266        19.7610811188425        19.7730370117237     
   19.7852566975576        19.7983913922055        19.8118749195549     
   19.8258110994310        19.8399347651692        19.8541703651047     
   19.8683365789435        19.8823023106107        19.8959094557973     
   19.9090121143484        19.9214558422158        19.9330829091133     
   19.9437211982011        19.9531726044276        19.9611898853386     
   19.9674305487597        19.9713504399990        19.9719375680313     
   19.9668887744139        20.0000000000000        20.0000000000000     
   19.9996595378818        19.9987273551099        19.9962639682083     
   19.9956520297687        19.9894785430277        19.9857884310210     
   19.9807993390809        19.9752203183412        19.9692286623517     
   19.9626749461867        19.9557857951457        19.9485260622346     
   19.9410370909095        19.9333646015408        19.9256129015563     
   19.9178606790908        19.9102055345023        19.9027406856086     
   19.8955665358539        19.8887853876323        19.8825053114937     
   19.8768408529841        19.8719169253284        19.8678735485464     
   19.8648721469224        19.8631075966209        19.8627979469746     
   19.8643656011831        19.8680959737766     
 -6.536680706074363E-003 -6.536680706074363E-003 -9.380355567881193E-005
  6.158236216681177E-003  1.456939481203491E-002  1.978311660650242E-002
  3.118527738741066E-002  3.573830158170377E-002  4.319083846665410E-002
  4.858945033729797E-002  5.428801637076967E-002  5.900147389972057E-002
  6.329397177484161E-002  6.679826178038013E-002  6.963547913259548E-002
  7.168701914499434E-002  7.297248040966392E-002  7.345156674755528E-002
  7.312783602459889E-002  7.199534286086824E-002  7.006647202371689E-002
  6.735765882395471E-002  6.389668581922552E-002  5.971919256050433E-002
  5.487105946187655E-002  4.940846684261815E-002  4.339737320837490E-002
  3.692147680709480E-002  3.007687534796435E-002  2.287777437599119E-002
  1.609971624108149E-002 -6.536680706074363E-003 -6.536680706074363E-003
 -2.686415731508505E-002 -4.332953216289982E-002 -6.498367005332192E-002
 -7.213928191445339E-002 -0.106296855750772      -0.112954174946685     
 -0.131600631024220      -0.143048434424920      -0.156752196702254     
 -0.167848475844049      -0.178773152217856      -0.188186713663747     
 -0.196786887792603      -0.204190288341259      -0.210629973351959     
 -0.216033986702817      -0.220528521097273      -0.224171608353646     
 -0.227100167765930      -0.229455154838892      -0.231426288902180     
 -0.233234808823960      -0.235151408094354      -0.237497030178462     
 -0.240657629435869      -0.245088152251260      -0.251317146680719     
 -0.259949786653264      -0.270969332430747      -6.536680706074363E-003
 -6.536680706074363E-003 -2.054072998932930E-002 -3.106591426504829E-002
 -4.517054540253901E-002 -4.741638242290915E-002 -7.251545681922265E-002
 -7.464499719157010E-002 -8.796271259505276E-002 -9.546828863827499E-002
 -0.105707279029202      -0.114437583319634      -0.123811998581578     
 -0.132783338700461      -0.141904808577785      -0.150927753673861     
 -0.160004918773303      -0.169088192954745      -0.178230661113836     
 -0.187435492340584      -0.196731758383266      -0.206136227340325     
 -0.215671808441341      -0.225356629200272      -0.235205989163562     
 -0.245224029414360      -0.255392458024636      -0.265643446134819     
 -0.275799264451980      -0.285405347699024      -0.292535974981339     