 Title = "Wing and Wake"
 VARIABLES = "X" "Y" "Z" "GAM"
 Zone I=    5 J=   14 K=1  T="Blade"
 DATAPACKING=BLOCK
 VARLOCATION=([4]=CELLCENTERED)
  -3.49619469809175       -3.24714602356881       -2.99809734904587     
  -2.74904867452294       -2.50000000000000       -3.49619469809175     
  -3.24714602356881       -2.99809734904587       -2.74904867452294     
  -2.50000000000000       -3.49619469809175       -3.24714602356881     
  -2.99809734904587       -2.74904867452294       -2.50000000000000     
  -3.49619469809175       -3.24714602356881       -2.99809734904587     
  -2.74904867452294       -2.50000000000000       -3.49619469809175     
  -3.24714602356881       -2.99809734904587       -2.74904867452294     
  -2.50000000000000       -3.49619469809175       -3.24714602356881     
  -2.99809734904587       -2.74904867452294       -2.50000000000000     
  -3.49619469809175       -3.24714602356881       -2.99809734904587     
  -2.74904867452294       -2.50000000000000       -3.49619469809175     
  -3.24714602356881       -2.99809734904587       -2.74904867452294     
  -2.50000000000000       -3.49619469809175       -3.24714602356881     
  -2.99809734904587       -2.74904867452294       -2.50000000000000     
  -3.49619469809175       -3.24714602356881       -2.99809734904587     
  -2.74904867452294       -2.50000000000000       -3.49619469809175     
  -3.24714602356881       -2.99809734904587       -2.74904867452294     
  -2.50000000000000       -3.49619469809175       -3.24714602356881     
  -2.99809734904587       -2.74904867452294       -2.50000000000000     
  -3.49619469809175       -3.24714602356881       -2.99809734904587     
  -2.74904867452294       -2.50000000000000       -3.49619469809175     
  -3.24714602356881       -2.99809734904587       -2.74904867452294     
  -2.50000000000000     
  0.000000000000000E+000  0.000000000000000E+000  0.000000000000000E+000
  0.000000000000000E+000  0.000000000000000E+000  0.290581825739480     
  0.290581825739480       0.290581825739480       0.290581825739480     
  0.290581825739480        1.14543974346790        1.14543974346790     
   1.14543974346790        1.14543974346790        1.14543974346790     
   2.51489251828899        2.51489251828899        2.51489251828899     
   2.51489251828899        2.51489251828899        4.31935253268844     
   4.31935253268844        4.31935253268844        4.31935253268844     
   4.31935253268844        6.45395112957464        6.45395112957464     
   6.45395112957464        6.45395112957464        6.45395112957464     
   8.79463319744677        8.79463319744677        8.79463319744677     
   8.79463319744677        8.79463319744677        11.2053668025532     
   11.2053668025532        11.2053668025532        11.2053668025532     
   11.2053668025532        13.5460488704254        13.5460488704254     
   13.5460488704254        13.5460488704254        13.5460488704254     
   15.6806474673116        15.6806474673116        15.6806474673116     
   15.6806474673116        15.6806474673116        17.4851074817110     
   17.4851074817110        17.4851074817110        17.4851074817110     
   17.4851074817110        18.8545602565321        18.8545602565321     
   18.8545602565321        18.8545602565321        18.8545602565321     
   19.7094181742605        19.7094181742605        19.7094181742605     
   19.7094181742605        19.7094181742605        20.0000000000000     
   20.0000000000000        20.0000000000000        20.0000000000000     
   20.0000000000000     
  8.715574274765817E-002  6.536680706074363E-002  4.357787137382908E-002
  2.178893568691454E-002  0.000000000000000E+000  8.715574274765817E-002
  6.536680706074363E-002  4.357787137382908E-002  2.178893568691454E-002
  0.000000000000000E+000  8.715574274765817E-002  6.536680706074363E-002
  4.357787137382908E-002  2.178893568691454E-002  0.000000000000000E+000
  8.715574274765817E-002  6.536680706074363E-002  4.357787137382908E-002
  2.178893568691454E-002  0.000000000000000E+000  8.715574274765817E-002
  6.536680706074363E-002  4.357787137382908E-002  2.178893568691454E-002
  0.000000000000000E+000  8.715574274765817E-002  6.536680706074363E-002
  4.357787137382908E-002  2.178893568691454E-002  0.000000000000000E+000
  8.715574274765817E-002  6.536680706074363E-002  4.357787137382908E-002
  2.178893568691454E-002  0.000000000000000E+000  8.715574274765817E-002
  6.536680706074363E-002  4.357787137382908E-002  2.178893568691454E-002
  0.000000000000000E+000  8.715574274765817E-002  6.536680706074363E-002
  4.357787137382908E-002  2.178893568691454E-002  0.000000000000000E+000
  8.715574274765817E-002  6.536680706074363E-002  4.357787137382908E-002
  2.178893568691454E-002  0.000000000000000E+000  8.715574274765817E-002
  6.536680706074363E-002  4.357787137382908E-002  2.178893568691454E-002
  0.000000000000000E+000  8.715574274765817E-002  6.536680706074363E-002
  4.357787137382908E-002  2.178893568691454E-002  0.000000000000000E+000
  8.715574274765817E-002  6.536680706074363E-002  4.357787137382908E-002
  2.178893568691454E-002  0.000000000000000E+000  8.715574274765817E-002
  6.536680706074363E-002  4.357787137382908E-002  2.178893568691454E-002
  0.000000000000000E+000
  0.675195498328283       0.900289938744046        1.01556116858206     
   1.06911226722641       0.962715121082360        1.34083301272042     
   1.54514093459354        1.64063624387196        1.09498491398097     
   1.54077101359528        1.78851825633593        1.90537647195558     
   1.14165277304050        1.60875608093347        1.86891989605523     
   1.99065925364340        1.15639673555575        1.62969194332471     
   1.89310909284580        2.01576037746364        1.16107892386916     
   1.63625090954281        1.90059614240955        2.02344563356405     
   1.16219385450210        1.63780453796985        1.90236165017179     
   2.02525113883741        1.16107892386916        1.63625090954280     
   1.90059614240955        2.02344563356405        1.15639673555575     
   1.62969194332471        1.89310909284580        2.01576037746364     
   1.14165277304050        1.60875608093347        1.86891989605523     
   1.99065925364340        1.09498491398097        1.54077101359528     
   1.78851825633593        1.90537647195558       0.962715121082360     
   1.34083301272042        1.54514093459354        1.64063624387196     
  0.675195498328283       0.900289938744045        1.01556116858206     
   1.06911226722641     
 Zone I=   11 J=   14 K=1  T="NearWake"
 DATAPACKING=BLOCK
 VARLOCATION=([4]=CELLCENTERED)
  -2.42528539764312       -2.17528539764312       -1.92495776109080     
  -1.67470855624791       -1.42462803039123       -1.17473988121387     
 -0.925182698261451      -0.676000316562022      -0.427174144412914     
 -0.176650567440528       6.887393181122052E-002  -2.42528539764312     
  -2.17528539764312       -1.92600744561656       -1.67597005881310     
  -1.42634877298052       -1.17646408293620      -0.926705911842939     
 -0.676359643361046      -0.423905093700994      -0.158312543534924     
  6.837225775497559E-002  -2.42528539764312       -2.17528539764312     
  -1.92648594023390       -1.67675879663040       -1.42742509854937     
  -1.17759835865876      -0.927666361830027      -0.676669190848985     
 -0.422712652473148      -0.151231524895356       6.183380915971638E-002
  -2.42528539764312       -2.17528539764312       -1.92644629113622     
  -1.67663755619795       -1.42722512642238       -1.17725783801462     
 -0.927163377451813      -0.675912496016952      -0.421543572754230     
 -0.148717995947077       6.029704654039005E-002  -2.42528539764312     
  -2.17528539764312       -1.92642893169652       -1.67658607097079     
  -1.42715072428526       -1.17714628927217      -0.927019843618791     
 -0.675722455345416      -0.421283553950891      -0.148216761601764     
  5.992414079546712E-002  -2.42528539764312       -2.17528539764312     
  -1.92642444567243       -1.67657071149161       -1.42712876074841     
  -1.17711336528269      -0.926977682313298      -0.675667612941327     
 -0.421210968574756      -0.148087056230213       5.984454344842403E-002
  -2.42528539764312       -2.17528539764312       -1.92642330447614     
  -1.67656633834084       -1.42712239742797       -1.17710371539706     
 -0.926965178993576      -0.675651307668971      -0.421189463070692     
 -0.148049521851333       5.982545708079611E-002  -2.42528539764312     
  -2.17528539764312       -1.92642330447614       -1.67656633834084     
  -1.42712239742797       -1.17710371539706      -0.926965178993576     
 -0.675651307668971      -0.421189463070692      -0.148049521851333     
  5.982545708079615E-002  -2.42528539764312       -2.17528539764312     
  -1.92642444567243       -1.67657071149161       -1.42712876074841     
  -1.17711336528269      -0.926977682313298      -0.675667612941327     
 -0.421210968574756      -0.148087056230213       5.984454344842401E-002
  -2.42528539764312       -2.17528539764312       -1.92642893169652     
  -1.67658607097079       -1.42715072428526       -1.17714628927217     
 -0.927019843618791      -0.675722455345416      -0.421283553950891     
 -0.148216761601764       5.992414079546708E-002  -2.42528539764312     
  -2.17528539764312       -1.92644629113622       -1.67663755619795     
  -1.42722512642238       -1.17725783801462      -0.927163377451813     
 -0.675912496016952      -0.421543572754230      -0.148717995947077     
  6.029704654039002E-002  -2.42528539764312       -2.17528539764312     
  -1.92648594023390       -1.67675879663040       -1.42742509854937     
  -1.17759835865876      -0.927666361830027      -0.676669190848985     
 -0.422712652473148      -0.151231524895356       6.183380915971633E-002
  -2.42528539764312       -2.17528539764312       -1.92600744561656     
  -1.67597005881310       -1.42634877298052       -1.17646408293620     
 -0.926705911842939      -0.676359643361045      -0.423905093700994     
 -0.158312543534924       6.837225775497544E-002  -2.42528539764312     
  -2.17528539764312       -1.92495776109080       -1.67470855624791     
  -1.42462803039123       -1.17473988121387      -0.925182698261451     
 -0.676000316562022      -0.427174144412914      -0.176650567440528     
  6.887393181122065E-002
  0.000000000000000E+000  0.000000000000000E+000  4.701755737931425E-004
  1.486466238017272E-003  2.681585342713057E-003  4.083861265472389E-003
  5.401969255244184E-003  6.463024127651498E-003  7.339971179325700E-003
  5.083071536186964E-003  7.164425317285574E-003  0.290581825739480     
  0.290581825739480       0.291100640889313       0.288400374628872     
  0.286701068579803       0.283375866959507       0.280640579755881     
  0.278250131533603       0.278169994412199       0.279848270999737     
  0.294761237801254        1.14543974346790        1.14543974346790     
   1.14566099044822        1.14548846170482        1.14566163588220     
   1.14564095733105        1.14576408637252        1.14589938259223     
   1.14624166737741        1.14625301520072        1.14707575072521     
   2.51489251828899        2.51489251828899        2.51496886388717     
   2.51493728336326        2.51500192814244        2.51501356305758     
   2.51505396748286        2.51508744381301        2.51515410285588     
   2.51513829134071        2.51530729220384        4.31935253268844     
   4.31935253268844        4.31937618488379        4.31936827322613     
   4.31938598990663        4.31938878340615        4.31939821008407     
   4.31940523848286        4.31941916169076        4.31941221202104     
   4.31945957005967        6.45395112957464        6.45395112957464     
   6.45395837840217        6.45395594300138        6.45396096322421     
   6.45396152628613        6.45396395209156        6.45396568671570     
   6.45396939111569        6.45396698748520        6.45398311969470     
   8.79463319744677        8.79463319744677        8.79463487772388     
   8.79463428956500        8.79463541988804        8.79463551653302     
   8.79463604353602        8.79463641876465        8.79463726134137     
   8.79463667729630        8.79464072283760        11.2053668025532     
   11.2053668025532        11.2053651222761        11.2053657104350     
   11.2053645801120        11.2053644834670        11.2053639564640     
   11.2053635812353        11.2053627386586        11.2053633227037     
   11.2053592771624        13.5460488704254        13.5460488704254     
   13.5460416215978        13.5460440569986        13.5460390367758     
   13.5460384737139        13.5460360479084        13.5460343132843     
   13.5460306088843        13.5460330125148        13.5460168803053     
   15.6806474673116        15.6806474673116        15.6806238151162     
   15.6806317267739        15.6806140100934        15.6806112165939     
   15.6806017899159        15.6805947615171        15.6805808383092     
   15.6805877879790        15.6805404299403        17.4851074817110     
   17.4851074817110        17.4850311361128        17.4850627166367     
   17.4849980718576        17.4849864369424        17.4849460325171     
   17.4849125561870        17.4848458971441        17.4848617086593     
   17.4846927077962        18.8545602565321        18.8545602565321     
   18.8543390095518        18.8545115382952        18.8543383641178     
   18.8543590426689        18.8542359136275        18.8541006174078     
   18.8537583326226        18.8537469847993        18.8529242492748     
   19.7094181742605        19.7094181742605        19.7088993591107     
   19.7115996253711        19.7132989314202        19.7166241330405     
   19.7193594202441        19.7217498684664        19.7218300055878     
   19.7201517290003        19.7052387621987        20.0000000000000     
   20.0000000000000        19.9995298244262        19.9985135337620     
   19.9973184146573        19.9959161387345        19.9945980307448     
   19.9935369758723        19.9926600288207        19.9949169284638     
   19.9928355746827     
 -6.536680706074363E-003 -6.536680706074363E-003 -2.239518810435904E-003
 -9.360213675423589E-005  2.055942900009493E-003  2.693788531103596E-003
  1.734366710180378E-003 -1.596409843929509E-003 -8.141225111238215E-003
 -1.823944209925861E-002  1.978710064239290E-002 -6.536680706074363E-003
 -6.536680706074363E-003 -3.570212665081357E-002 -4.858572478783568E-002
 -6.836528382507498E-002 -8.338452434572668E-002 -9.944642504978436E-002
 -0.113155869112680      -0.124787171902062      -0.127295863736999     
 -1.459173615200977E-002 -6.536680706074363E-003 -6.536680706074363E-003
 -2.830474070455146E-002 -3.739111788012291E-002 -5.200185091740606E-002
 -6.349481257130390E-002 -7.652196701115968E-002 -8.873871144364756E-002
 -0.100236440543326      -0.104934715915285       1.971625456066393E-002
 -6.536680706074363E-003 -6.536680706074363E-003 -2.721105682549302E-002
 -3.541952511130449E-002 -4.894971468997614E-002 -5.943890951266224E-002
 -7.145496531146547E-002 -8.265172510298793E-002 -9.299153495332863E-002
 -9.634880401168924E-002  3.186063563407704E-002 -6.536680706074363E-003
 -6.536680706074363E-003 -2.689534034194412E-002 -3.480406472756029E-002
 -4.795070928645934E-002 -5.804560902962072E-002 -6.964257545123219E-002
 -8.041333056552467E-002 -9.032144854901683E-002 -9.327089677483530E-002
  3.564749520071304E-002 -6.536680706074363E-003 -6.536680706074363E-003
 -2.678260235469776E-002 -3.458793477449826E-002 -4.760174947497466E-002
 -5.756333307022774E-002 -6.902184946187173E-002 -7.965767291528206E-002
 -8.943578650816587E-002 -9.226691829000139E-002  3.683016197252946E-002
 -6.536680706074363E-003 -6.536680706074363E-003 -2.674462062066193E-002
 -3.451717306734986E-002 -4.748902453408226E-002 -5.740951773425676E-002
 -6.882582415160665E-002 -7.942103688564821E-002 -8.916022327655129E-002
 -9.195556933754483E-002  3.719351880451856E-002 -6.536680706074363E-003
 -6.536680706074363E-003 -2.674462062066193E-002 -3.451717306734989E-002
 -4.748902453408232E-002 -5.740951773425675E-002 -6.882582415160668E-002
 -7.942103688564826E-002 -8.916022327655125E-002 -9.195556933754476E-002
  3.719351880451857E-002 -6.536680706074363E-003 -6.536680706074363E-003
 -2.678260235469777E-002 -3.458793477449824E-002 -4.760174947497464E-002
 -5.756333307022773E-002 -6.902184946187181E-002 -7.965767291528202E-002
 -8.943578650816587E-002 -9.226691829000133E-002  3.683016197252948E-002
 -6.536680706074363E-003 -6.536680706074363E-003 -2.689534034194414E-002
 -3.480406472756020E-002 -4.795070928645928E-002 -5.804560902962067E-002
 -6.964257545123222E-002 -8.041333056552473E-002 -9.032144854901686E-002
 -9.327089677483529E-002  3.564749520071307E-002 -6.536680706074363E-003
 -6.536680706074363E-003 -2.721105682549298E-002 -3.541952511130446E-002
 -4.894971468997623E-002 -5.943890951266231E-002 -7.145496531146553E-002
 -8.265172510298795E-002 -9.299153495332867E-002 -9.634880401168916E-002
  3.186063563407711E-002 -6.536680706074363E-003 -6.536680706074363E-003
 -2.830474070455145E-002 -3.739111788012282E-002 -5.200185091740605E-002
 -6.349481257130385E-002 -7.652196701115974E-002 -8.873871144364770E-002
 -0.100236440543326      -0.104934715915285       1.971625456066408E-002
 -6.536680706074363E-003 -6.536680706074363E-003 -3.570212665081358E-002
 -4.858572478783570E-002 -6.836528382507506E-002 -8.338452434572703E-002
 -9.944642504978465E-002 -0.113155869112681      -0.124787171902063     
 -0.127295863736999      -1.459173615200956E-002 -6.536680706074363E-003
 -6.536680706074363E-003 -2.239518810435887E-003 -9.360213675423459E-005
  2.055942900009545E-003  2.693788531103774E-003  1.734366710180570E-003
 -1.596409843929185E-003 -8.141225111237830E-003 -1.823944209925876E-002
  1.978710064239302E-002
   1.06911226722641        1.05129973883409        1.03020640715806     
   1.00486259147205       0.973858434038998       0.935043765751740     
  0.884911471366558       0.817122145994892       0.717952076931788     
  0.545687230928579        1.64063624387196        1.60954396139755     
   1.57258527955507        1.52799981794014        1.47322374154820     
   1.40435192360063        1.31507668024105        1.19436106594707     
   1.02014754055350       0.735561100336828        1.90537647195558     
   1.86145722279845        1.80960608475144        1.74768437980462     
   1.67270957966126        1.58035263084665        1.46395879974757     
   1.31238267385890        1.10391394579400       0.782326100572016     
   1.99065925364340        1.93942615290331        1.87972219649234     
   1.80944735323888        1.72569643953580        1.62426711239531     
   1.49868926620788        1.33806052524169        1.12094440580768     
  0.791278928221502        2.01576037746364        1.96166712793758     
   1.89908508255534        1.82594861530297        1.73939243491094     
   1.63525863329197        1.50712425988876        1.34413341106689     
   1.12488759619166       0.793323245359819        2.02344563356405     
   1.96837959004969        1.90485053854391        1.83080192530550     
   1.74337776595346        1.63842940476177        1.50954269403987     
   1.34586936362122        1.12601564997301       0.793911270808085     
   2.02525113883741        1.96995008087233        1.90619483520523     
   1.83193054857300        1.74430292194289        1.63916492624379     
   1.51010392089124        1.34627288741357        1.12627868704179     
  0.794049049972261        2.02344563356405        1.96837959004969     
   1.90485053854391        1.83080192530550        1.74337776595346     
   1.63842940476177        1.50954269403987        1.34586936362122     
   1.12601564997301       0.793911270808084        2.01576037746364     
   1.96166712793758        1.89908508255534        1.82594861530296     
   1.73939243491094        1.63525863329196        1.50712425988876     
   1.34413341106689        1.12488759619166       0.793323245359819     
   1.99065925364340        1.93942615290331        1.87972219649234     
   1.80944735323888        1.72569643953580        1.62426711239531     
   1.49868926620788        1.33806052524169        1.12094440580768     
  0.791278928221502        1.90537647195558        1.86145722279845     
   1.80960608475144        1.74768437980462        1.67270957966126     
   1.58035263084665        1.46395879974757        1.31238267385890     
   1.10391394579400       0.782326100572015        1.64063624387196     
   1.60954396139755        1.57258527955507        1.52799981794014     
   1.47322374154820        1.40435192360063        1.31507668024105     
   1.19436106594707        1.02014754055351       0.735561100336828     
   1.06911226722641        1.05129973883409        1.03020640715806     
   1.00486259147205       0.973858434038999       0.935043765751740     
  0.884911471366559       0.817122145994892       0.717952076931788     
  0.545687230928579     
 Zone I=    2 J=1   K=1   T="FarWake"
 DATAPACKING=BLOCK
 VARLOCATION=([4]=CELLCENTERED)
  6.887393181122065E-002  6.887393181122065E-002
   19.9928355746827        19.9928355746827     
  1.978710064239302E-002  1.978710064239302E-002
  0.000000000000000E+000
