 Title = "Wing and Wake"
 VARIABLES = "X" "Y" "Z" "GAM"
 Zone I=    5 J=   14 K=1  T="Blade"
 DATAPACKING=BLOCK
 VARLOCATION=([4]=CELLCENTERED)
  -4.49619469809175       -4.24714602356881       -3.99809734904587     
  -3.74904867452294       -3.50000000000000       -4.49619469809175     
  -4.24714602356881       -3.99809734904587       -3.74904867452294     
  -3.50000000000000       -4.49619469809175       -4.24714602356881     
  -3.99809734904587       -3.74904867452294       -3.50000000000000     
  -4.49619469809175       -4.24714602356881       -3.99809734904587     
  -3.74904867452294       -3.50000000000000       -4.49619469809175     
  -4.24714602356881       -3.99809734904587       -3.74904867452294     
  -3.50000000000000       -4.49619469809175       -4.24714602356881     
  -3.99809734904587       -3.74904867452294       -3.50000000000000     
  -4.49619469809175       -4.24714602356881       -3.99809734904587     
  -3.74904867452294       -3.50000000000000       -4.49619469809175     
  -4.24714602356881       -3.99809734904587       -3.74904867452294     
  -3.50000000000000       -4.49619469809175       -4.24714602356881     
  -3.99809734904587       -3.74904867452294       -3.50000000000000     
  -4.49619469809175       -4.24714602356881       -3.99809734904587     
  -3.74904867452294       -3.50000000000000       -4.49619469809175     
  -4.24714602356881       -3.99809734904587       -3.74904867452294     
  -3.50000000000000       -4.49619469809175       -4.24714602356881     
  -3.99809734904587       -3.74904867452294       -3.50000000000000     
  -4.49619469809175       -4.24714602356881       -3.99809734904587     
  -3.74904867452294       -3.50000000000000       -4.49619469809175     
  -4.24714602356881       -3.99809734904587       -3.74904867452294     
  -3.50000000000000     
  0.000000000000000E+000  0.000000000000000E+000  0.000000000000000E+000
  0.000000000000000E+000  0.000000000000000E+000  0.290581825739480     
  0.290581825739480       0.290581825739480       0.290581825739480     
  0.290581825739480        1.14543974346790        1.14543974346790     
   1.14543974346790        1.14543974346790        1.14543974346790     
   2.51489251828899        2.51489251828899        2.51489251828899     
   2.51489251828899        2.51489251828899        4.31935253268844     
   4.31935253268844        4.31935253268844        4.31935253268844     
   4.31935253268844        6.45395112957464        6.45395112957464     
   6.45395112957464        6.45395112957464        6.45395112957464     
   8.79463319744677        8.79463319744677        8.79463319744677     
   8.79463319744677        8.79463319744677        11.2053668025532     
   11.2053668025532        11.2053668025532        11.2053668025532     
   11.2053668025532        13.5460488704254        13.5460488704254     
   13.5460488704254        13.5460488704254        13.5460488704254     
   15.6806474673116        15.6806474673116        15.6806474673116     
   15.6806474673116        15.6806474673116        17.4851074817110     
   17.4851074817110        17.4851074817110        17.4851074817110     
   17.4851074817110        18.8545602565321        18.8545602565321     
   18.8545602565321        18.8545602565321        18.8545602565321     
   19.7094181742605        19.7094181742605        19.7094181742605     
   19.7094181742605        19.7094181742605        20.0000000000000     
   20.0000000000000        20.0000000000000        20.0000000000000     
   20.0000000000000     
  8.715574274765817E-002  6.536680706074363E-002  4.357787137382908E-002
  2.178893568691454E-002  0.000000000000000E+000  8.715574274765817E-002
  6.536680706074363E-002  4.357787137382908E-002  2.178893568691454E-002
  0.000000000000000E+000  8.715574274765817E-002  6.536680706074363E-002
  4.357787137382908E-002  2.178893568691454E-002  0.000000000000000E+000
  8.715574274765817E-002  6.536680706074363E-002  4.357787137382908E-002
  2.178893568691454E-002  0.000000000000000E+000  8.715574274765817E-002
  6.536680706074363E-002  4.357787137382908E-002  2.178893568691454E-002
  0.000000000000000E+000  8.715574274765817E-002  6.536680706074363E-002
  4.357787137382908E-002  2.178893568691454E-002  0.000000000000000E+000
  8.715574274765817E-002  6.536680706074363E-002  4.357787137382908E-002
  2.178893568691454E-002  0.000000000000000E+000  8.715574274765817E-002
  6.536680706074363E-002  4.357787137382908E-002  2.178893568691454E-002
  0.000000000000000E+000  8.715574274765817E-002  6.536680706074363E-002
  4.357787137382908E-002  2.178893568691454E-002  0.000000000000000E+000
  8.715574274765817E-002  6.536680706074363E-002  4.357787137382908E-002
  2.178893568691454E-002  0.000000000000000E+000  8.715574274765817E-002
  6.536680706074363E-002  4.357787137382908E-002  2.178893568691454E-002
  0.000000000000000E+000  8.715574274765817E-002  6.536680706074363E-002
  4.357787137382908E-002  2.178893568691454E-002  0.000000000000000E+000
  8.715574274765817E-002  6.536680706074363E-002  4.357787137382908E-002
  2.178893568691454E-002  0.000000000000000E+000  8.715574274765817E-002
  6.536680706074363E-002  4.357787137382908E-002  2.178893568691454E-002
  0.000000000000000E+000
  0.696688111724029       0.932768083318940        1.05710853964839     
   1.11896915097763       0.998332660607495        1.39605430444803     
   1.61666497720226        1.72697924614805        1.14528060669916     
   1.61907670533108        1.89019303413752        2.02817178256332     
   1.20264112652511        1.70337221016092        1.99117691599264     
   2.13736731139958        1.22272406799539        1.73221210396613     
   2.02500648947818        2.17323793467846        1.22951482487660     
   1.74183117345726        2.03614655490081        2.18490866014730     
   1.23117114442700        1.74416352556908        2.03883314983564     
   2.18770938772441        1.22951482487660        1.74183117345726     
   2.03614655490081        2.18490866014730        1.22272406799539     
   1.73221210396613        2.02500648947818        2.17323793467846     
   1.20264112652511        1.70337221016092        1.99117691599264     
   2.13736731139958        1.14528060669916        1.61907670533108     
   1.89019303413752        2.02817178256332       0.998332660607496     
   1.39605430444803        1.61666497720226        1.72697924614805     
  0.696688111724029       0.932768083318940        1.05710853964839     
   1.11896915097763     
 Zone I=   15 J=   14 K=1  T="NearWake"
 DATAPACKING=BLOCK
 VARLOCATION=([4]=CELLCENTERED)
  -3.42528539764312       -3.17528539764312       -2.92485417858374     
  -2.67446931242658       -2.42416489636150       -2.17394703099454     
  -1.92390561496478       -1.67406576897624       -1.42452342276248     
  -1.17535954440019      -0.926688324429436      -0.678567185691544     
 -0.430751734717721      -0.178920060861766       6.182754138637379E-002
  -3.42528539764312       -3.17528539764312       -2.92583682113894     
  -2.67571816362466       -2.42587316582926       -2.17586090278939     
  -1.92600635242849       -1.67614378650915       -1.42638737283782     
  -1.17660078273104      -0.926599673458150      -0.675508078812798     
 -0.419945509394328      -0.139691936653221       6.106821686334772E-002
  -3.42528539764312       -3.17528539764312       -2.92641207321883     
  -2.67674310210456       -2.42738083903147       -2.17773986400699     
  -1.92818582542123       -1.67847843752625       -1.42869654803332     
  -1.17859155904578      -0.927809909904960      -0.675105634276345     
 -0.416189487636132      -0.121922394593728       4.731166121257642E-002
  -3.42528539764312       -3.17528539764312       -2.92639071006154     
  -2.67667587217652       -2.42726567411351       -2.17754086855480     
  -1.92788610253361       -1.67803035249369       -1.42805824258274     
  -1.17769674939691      -0.926579385960072      -0.673402090412066     
 -0.413705245985862      -0.116529927520203       4.370689998436619E-002
  -3.42528539764312       -3.17528539764312       -2.92637219566217     
  -2.67662521071474       -2.42718765906519       -2.17742399514903     
  -1.92773540408643       -1.67784014967255       -1.42783084708900     
  -1.17742825297887      -0.926264897836775      -0.673023306395837     
 -0.413211177709390      -0.115505089237853       4.276562286597291E-002
  -3.42528539764312       -3.17528539764312       -2.92636643287463     
  -2.67660755225714       -2.42716182262510       -2.17738593613679     
  -1.92768802028773       -1.67778208198410       -1.42776344465746     
  -1.17735070644963      -0.926176194436811      -0.672919174277776     
 -0.413079997296880      -0.115250036875267       4.254448628882633E-002
  -3.42528539764312       -3.17528539764312       -2.92636506577457     
  -2.67660252213967       -2.42715456457488       -2.17737508839400     
  -1.92767449040267       -1.67776539691523       -1.42774393577039     
  -1.17732807378276      -0.926150098826742      -0.672888414286841     
 -0.413041394187013      -0.115176991273000       4.248985088654231E-002
  -3.42528539764312       -3.17528539764312       -2.92636506577457     
  -2.67660252213967       -2.42715456457488       -2.17737508839400     
  -1.92767449040267       -1.67776539691523       -1.42774393577039     
  -1.17732807378276      -0.926150098826742      -0.672888414286841     
 -0.413041394187013      -0.115176991273000       4.248985088654234E-002
  -3.42528539764312       -3.17528539764312       -2.92636643287463     
  -2.67660755225714       -2.42716182262510       -2.17738593613679     
  -1.92768802028773       -1.67778208198410       -1.42776344465746     
  -1.17735070644963      -0.926176194436811      -0.672919174277776     
 -0.413079997296880      -0.115250036875267       4.254448628882636E-002
  -3.42528539764312       -3.17528539764312       -2.92637219566217     
  -2.67662521071474       -2.42718765906519       -2.17742399514903     
  -1.92773540408643       -1.67784014967255       -1.42783084708900     
  -1.17742825297887      -0.926264897836775      -0.673023306395837     
 -0.413211177709390      -0.115505089237853       4.276562286597289E-002
  -3.42528539764312       -3.17528539764312       -2.92639071006154     
  -2.67667587217652       -2.42726567411351       -2.17754086855480     
  -1.92788610253361       -1.67803035249369       -1.42805824258274     
  -1.17769674939691      -0.926579385960072      -0.673402090412066     
 -0.413705245985862      -0.116529927520203       4.370689998436615E-002
  -3.42528539764312       -3.17528539764312       -2.92641207321883     
  -2.67674310210456       -2.42738083903147       -2.17773986400699     
  -1.92818582542123       -1.67847843752625       -1.42869654803332     
  -1.17859155904578      -0.927809909904960      -0.675105634276345     
 -0.416189487636132      -0.121922394593728       4.731166121257629E-002
  -3.42528539764312       -3.17528539764312       -2.92583682113894     
  -2.67571816362466       -2.42587316582926       -2.17586090278939     
  -1.92600635242849       -1.67614378650915       -1.42638737283782     
  -1.17660078273104      -0.926599673458150      -0.675508078812798     
 -0.419945509394328      -0.139691936653222       6.106821686334735E-002
  -3.42528539764312       -3.17528539764312       -2.92485417858374     
  -2.67446931242658       -2.42416489636150       -2.17394703099454     
  -1.92390561496478       -1.67406576897624       -1.42452342276248     
  -1.17535954440019      -0.926688324429436      -0.678567185691543     
 -0.430751734717721      -0.178920060861766       6.182754138637418E-002
  0.000000000000000E+000  0.000000000000000E+000  5.219832300696530E-004
  1.812760044992677E-003  3.373843153956044E-003  5.444571604399850E-003
  7.720737405643073E-003  1.015108580404903E-002  1.248594899107194E-002
  1.450513931899499E-002  1.592620817016032E-002  1.655021614329990E-002
  1.703562225166890E-002  1.087751683629356E-002  1.498588359143336E-002
  0.290581825739480       0.290581825739480       0.291155005568211     
  0.288105246201501       0.285976467198394       0.281656613800899     
  0.277353071410052       0.272210943435830       0.267156235322999     
  0.262360858420116       0.258687374269244       0.257288523643268     
  0.260795959293689       0.268342719629312       0.298947184756507     
   1.14543974346790        1.14543974346790        1.14566810555456     
   1.14544054145536        1.14558573923312        1.14547195114735     
   1.14548450535809        1.14544077108913        1.14546689143767     
   1.14553793551250        1.14572061815926        1.14605977557483     
   1.14676395017268        1.14696380625244        1.14882577373036     
   2.51489251828899        2.51489251828899        2.51497907839169     
   2.51493020657687        2.51500502383174        2.51500947808212     
   2.51505426923444        2.51508401974674        2.51512688922638     
   2.51516928410027        2.51522005843445        2.51528327759107     
   2.51539684780937        2.51535916170236        2.51575787229105     
   4.31935253268844        4.31935253268844        4.31938435398561     
   4.31937221068422        4.31939804899486        4.31940189059765     
   4.31941636070004        4.31942527757406        4.31943623520395     
   4.31944549787172        4.31945532206525        4.31946649402584     
   4.31948721183030        4.31946909515931        4.31958357482363     
   6.45395112957464        6.45395112957464        6.45396211572429     
   6.45395853573591        6.45396674201493        6.45396782767026     
   6.45397191797943        6.45397414554969        6.45397682949305     
   6.45397893083577        6.45398115174246        6.45398374445568     
   6.45398906833692        6.45398291096441        6.45402270295924     
   8.79463319744677        8.79463319744677        8.79463587701567     
   8.79463502898226        8.79463694786324        8.79463716067583     
   8.79463805702947        8.79463850866475        8.79463906270601     
   8.79463948701764        8.79463994986908        8.79464051495316     
   8.79464173847143        8.79464027168578        8.79465034309537     
   11.2053668025532        11.2053668025532        11.2053641229843     
   11.2053649710177        11.2053630521368        11.2053628393242     
   11.2053619429705        11.2053614913352        11.2053609372940     
   11.2053605129824        11.2053600501309        11.2053594850468     
   11.2053582615286        11.2053597283142        11.2053496569046     
   13.5460488704254        13.5460488704254        13.5460378842757     
   13.5460414642641        13.5460332579851        13.5460321723297     
   13.5460280820206        13.5460258544503        13.5460231705070     
   13.5460210691642        13.5460188482575        13.5460162555443     
   13.5460109316631        13.5460170890356        13.5459772970408     
   15.6806474673116        15.6806474673116        15.6806156460144     
   15.6806277893158        15.6806019510051        15.6805981094024     
   15.6805836393000        15.6805747224259        15.6805637647961     
   15.6805545021283        15.6805446779347        15.6805335059742     
   15.6805127881697        15.6805309048407        15.6804164251764     
   17.4851074817110        17.4851074817110        17.4850209216083     
   17.4850697934231        17.4849949761683        17.4849905219179     
   17.4849457307656        17.4849159802533        17.4848731107736     
   17.4848307158997        17.4847799415656        17.4847167224089     
   17.4846031521906        17.4846408382976        17.4842421277089     
   18.8545602565321        18.8545602565321        18.8543318944454     
   18.8545594585446        18.8544142607669        18.8545280488526     
   18.8545154946419        18.8545592289109        18.8545331085623     
   18.8544620644875        18.8542793818407        18.8539402244252     
   18.8532360498273        18.8530361937476        18.8511742262696     
   19.7094181742605        19.7094181742605        19.7088449944318     
   19.7118947537985        19.7140235328016        19.7183433861991     
   19.7226469285899        19.7277890565642        19.7328437646770     
   19.7376391415799        19.7413126257308        19.7427114763567     
   19.7392040407063        19.7316572803707        19.7010528152435     
   20.0000000000000        20.0000000000000        19.9994780167699     
   19.9981872399550        19.9966261568460        19.9945554283956     
   19.9922792625944        19.9898489141960        19.9875140510089     
   19.9854948606810        19.9840737918298        19.9834497838567     
   19.9829643777483        19.9891224831637        19.9850141164086     
 -6.536680706074363E-003 -6.536680706074363E-003 -5.279358359224382E-004
  2.888213637707543E-003  7.275830907457262E-003  1.052386791897548E-002
  1.325450610519361E-002  1.480695396498098E-002  1.507053272636614E-002
  1.361621892692515E-002  1.002229470887658E-002  3.605888930812489E-003
 -6.708318344060596E-003 -2.117679155774260E-002  3.385967357352093E-002
 -6.536680706074363E-003 -6.536680706074363E-003 -3.598621085952314E-002
 -4.902662217918724E-002 -6.917562391821114E-002 -8.460918937341055E-002
 -0.101442759967109      -0.116523668072012      -0.131471257908284     
 -0.145386594774229      -0.158527818956160      -0.170113408193513     
 -0.178109409514320      -0.171277534404959      -1.574670769386882E-002
 -6.536680706074363E-003 -6.536680706074363E-003 -2.789251323121051E-002
 -3.660073866936411E-002 -5.059146946902025E-002 -6.135273671845154E-002
 -7.346607187997847E-002 -8.486552391823451E-002 -9.678493607648482E-002
 -0.108755379385531      -0.121046709950080      -0.133090702070187     
 -0.142679263494053      -0.140179817741249       3.361262106926425E-002
 -6.536680706074363E-003 -6.536680706074363E-003 -2.654957049379710E-002
 -3.418968648528966E-002 -4.680722390395282E-002 -5.628217782438409E-002
 -6.709900791311887E-002 -7.729906537111447E-002 -8.810707212044422E-002
 -9.906586527465847E-002 -0.110399289222307      -0.121434774134766     
 -0.129734974279629      -0.125499315832243       5.219703957501485E-002
 -6.536680706074363E-003 -6.536680706074363E-003 -2.615123809796335E-002
 -3.343262697654432E-002 -4.558758481929297E-002 -5.459749059172253E-002
 -6.492418986330127E-002 -7.463473956998844E-002 -8.495270855094043E-002
 -9.542697383488379E-002 -0.106281913472413      -0.116845259292560     
 -0.124673502011783      -0.119981745258619       5.841911348718621E-002
 -6.536680706074363E-003 -6.536680706074363E-003 -2.601073163305221E-002
 -3.316556966393339E-002 -4.515586842872379E-002 -5.399921470998250E-002
 -6.414907573077078E-002 -7.368274701382924E-002 -8.382474111392420E-002
 -9.412843967102816E-002 -0.104820978041665      -0.115232791029161     
 -0.122920361954788      -0.118099149394723       6.047389695104928E-002
 -6.536680706074363E-003 -6.536680706074363E-003 -2.596275618379383E-002
 -3.307603161449384E-002 -4.501218574189429E-002 -5.380160916514277E-002
 -6.389457905069799E-002 -7.337197246306082E-002 -8.345849573071945E-002
 -9.370898711808040E-002 -0.104351309807182      -0.114716553223757     
 -0.122360916706108      -0.117499223635314       6.112468605199831E-002
 -6.536680706074363E-003 -6.536680706074363E-003 -2.596275618379384E-002
 -3.307603161449389E-002 -4.501218574189433E-002 -5.380160916514273E-002
 -6.389457905069794E-002 -7.337197246306085E-002 -8.345849573071953E-002
 -9.370898711808043E-002 -0.104351309807182      -0.114716553223757     
 -0.122360916706108      -0.117499223635313       6.112468605199833E-002
 -6.536680706074363E-003 -6.536680706074363E-003 -2.601073163305227E-002
 -3.316556966393338E-002 -4.515586842872376E-002 -5.399921470998254E-002
 -6.414907573077076E-002 -7.368274701382919E-002 -8.382474111392417E-002
 -9.412843967102817E-002 -0.104820978041665      -0.115232791029161     
 -0.122920361954788      -0.118099149394723       6.047389695104931E-002
 -6.536680706074363E-003 -6.536680706074363E-003 -2.615123809796333E-002
 -3.343262697654430E-002 -4.558758481929298E-002 -5.459749059172266E-002
 -6.492418986330128E-002 -7.463473956998827E-002 -8.495270855094030E-002
 -9.542697383488373E-002 -0.106281913472413      -0.116845259292560     
 -0.124673502011783      -0.119981745258619       5.841911348718626E-002
 -6.536680706074363E-003 -6.536680706074363E-003 -2.654957049379712E-002
 -3.418968648528965E-002 -4.680722390395286E-002 -5.628217782438406E-002
 -6.709900791311879E-002 -7.729906537111436E-002 -8.810707212044433E-002
 -9.906586527465855E-002 -0.110399289222307      -0.121434774134766     
 -0.129734974279629      -0.125499315832243       5.219703957501495E-002
 -6.536680706074363E-003 -6.536680706074363E-003 -2.789251323121045E-002
 -3.660073866936409E-002 -5.059146946902025E-002 -6.135273671845150E-002
 -7.346607187997833E-002 -8.486552391823425E-002 -9.678493607648472E-002
 -0.108755379385531      -0.121046709950080      -0.133090702070187     
 -0.142679263494053      -0.140179817741248       3.361262106926448E-002
 -6.536680706074363E-003 -6.536680706074363E-003 -3.598621085952314E-002
 -4.902662217918718E-002 -6.917562391821097E-002 -8.460918937341011E-002
 -0.101442759967109      -0.116523668072012      -0.131471257908283     
 -0.145386594774229      -0.158527818956161      -0.170113408193514     
 -0.178109409514322      -0.171277534404959      -1.574670769386848E-002
 -6.536680706074363E-003 -6.536680706074363E-003 -5.279358359224651E-004
  2.888213637707526E-003  7.275830907457216E-003  1.052386791897534E-002
  1.325450610519337E-002  1.480695396498093E-002  1.507053272636612E-002
  1.361621892692537E-002  1.002229470887693E-002  3.605888930813015E-003
 -6.708318344060143E-003 -2.117679155774285E-002  3.385967357352106E-002
   1.11896915097763        1.10892567638957        1.09747943126000     
   1.08433596959880        1.06911226722641        1.05129973883409     
   1.03020640715806        1.00486259147205       0.973858434038998     
  0.935043765751740       0.884911471366558       0.817122145994892     
  0.717952076931788       0.545687230928579        1.72697924614805     
   1.70967718973379        1.68989876312098        1.66711504942870     
   1.64063624387196        1.60954396139755        1.57258527955507     
   1.52799981794014        1.47322374154820        1.40435192360063     
   1.31507668024105        1.19436106594707        1.02014754055350     
  0.735561100336828        2.02817178256332        2.00352160552806     
   1.97535191638772        1.94294337235398        1.90537647195558     
   1.86145722279845        1.80960608475144        1.74768437980462     
   1.67270957966126        1.58035263084665        1.46395879974757     
   1.31238267385890        1.10391394579400       0.782326100572016     
   2.13736731139958        2.10749934788512        2.07362347682979     
   2.03499061728117        1.99065925364340        1.93942615290331     
   1.87972219649234        1.80944735323888        1.72569643953580     
   1.62426711239531        1.49868926620788        1.33806052524169     
   1.12094440580768       0.791278928221502        2.17323793467846     
   2.14081425119516        2.10428200377187        2.06290527298872     
   2.01576037746364        1.96166712793758        1.89908508255534     
   1.82594861530297        1.73939243491094        1.63525863329197     
   1.50712425988876        1.34413341106689        1.12488759619166     
  0.793323245359819        2.18490866014730        2.15148918053293     
   2.11395621316765        2.07158046516018        2.02344563356405     
   1.96837959004969        1.90485053854391        1.83080192530550     
   1.74337776595346        1.63842940476177        1.50954269403987     
   1.34586936362122        1.12601564997301       0.793911270808085     
   2.18770938772441        2.15403599325893        2.11625149747839     
   2.07362811755225        2.02525113883741        1.96995008087233     
   1.90619483520523        1.83193054857300        1.74430292194289     
   1.63916492624379        1.51010392089124        1.34627288741357     
   1.12627868704179       0.794049049972261        2.18490866014730     
   2.15148918053293        2.11395621316765        2.07158046516018     
   2.02344563356405        1.96837959004969        1.90485053854391     
   1.83080192530550        1.74337776595346        1.63842940476177     
   1.50954269403987        1.34586936362122        1.12601564997301     
  0.793911270808084        2.17323793467846        2.14081425119516     
   2.10428200377187        2.06290527298872        2.01576037746364     
   1.96166712793758        1.89908508255534        1.82594861530296     
   1.73939243491094        1.63525863329196        1.50712425988876     
   1.34413341106689        1.12488759619166       0.793323245359819     
   2.13736731139958        2.10749934788513        2.07362347682979     
   2.03499061728117        1.99065925364340        1.93942615290331     
   1.87972219649234        1.80944735323888        1.72569643953580     
   1.62426711239531        1.49868926620788        1.33806052524169     
   1.12094440580768       0.791278928221502        2.02817178256332     
   2.00352160552807        1.97535191638772        1.94294337235398     
   1.90537647195558        1.86145722279845        1.80960608475144     
   1.74768437980462        1.67270957966126        1.58035263084665     
   1.46395879974757        1.31238267385890        1.10391394579400     
  0.782326100572015        1.72697924614805        1.70967718973379     
   1.68989876312098        1.66711504942870        1.64063624387196     
   1.60954396139755        1.57258527955507        1.52799981794014     
   1.47322374154820        1.40435192360063        1.31507668024105     
   1.19436106594707        1.02014754055351       0.735561100336828     
   1.11896915097763        1.10892567638957        1.09747943126000     
   1.08433596959880        1.06911226722641        1.05129973883409     
   1.03020640715806        1.00486259147205       0.973858434038999     
  0.935043765751740       0.884911471366559       0.817122145994892     
  0.717952076931788       0.545687230928579     
 Zone I=    2 J=1   K=1   T="FarWake"
 DATAPACKING=BLOCK
 VARLOCATION=([4]=CELLCENTERED)
  6.182754138637418E-002  6.182754138637418E-002
   19.9850141164086        19.9850141164086     
  3.385967357352106E-002  3.385967357352106E-002
  0.000000000000000E+000
