 Title = "Wing and Wake"
 VARIABLES = "X" "Y" "Z" "GAM"
 Zone I=    5 J=   14 K=1  T="Blade"
 DATAPACKING=BLOCK
 VARLOCATION=([4]=CELLCENTERED)
  -13.2461946980917       -12.9971460235688       -12.7480973490459     
  -12.4990486745229       -12.2500000000000       -13.2461946980917     
  -12.9971460235688       -12.7480973490459       -12.4990486745229     
  -12.2500000000000       -13.2461946980917       -12.9971460235688     
  -12.7480973490459       -12.4990486745229       -12.2500000000000     
  -13.2461946980917       -12.9971460235688       -12.7480973490459     
  -12.4990486745229       -12.2500000000000       -13.2461946980917     
  -12.9971460235688       -12.7480973490459       -12.4990486745229     
  -12.2500000000000       -13.2461946980917       -12.9971460235688     
  -12.7480973490459       -12.4990486745229       -12.2500000000000     
  -13.2461946980917       -12.9971460235688       -12.7480973490459     
  -12.4990486745229       -12.2500000000000       -13.2461946980917     
  -12.9971460235688       -12.7480973490459       -12.4990486745229     
  -12.2500000000000       -13.2461946980917       -12.9971460235688     
  -12.7480973490459       -12.4990486745229       -12.2500000000000     
  -13.2461946980917       -12.9971460235688       -12.7480973490459     
  -12.4990486745229       -12.2500000000000       -13.2461946980917     
  -12.9971460235688       -12.7480973490459       -12.4990486745229     
  -12.2500000000000       -13.2461946980917       -12.9971460235688     
  -12.7480973490459       -12.4990486745229       -12.2500000000000     
  -13.2461946980917       -12.9971460235688       -12.7480973490459     
  -12.4990486745229       -12.2500000000000       -13.2461946980917     
  -12.9971460235688       -12.7480973490459       -12.4990486745229     
  -12.2500000000000     
  0.000000000000000E+000  0.000000000000000E+000  0.000000000000000E+000
  0.000000000000000E+000  0.000000000000000E+000  0.290581825739480     
  0.290581825739480       0.290581825739480       0.290581825739480     
  0.290581825739480        1.14543974346790        1.14543974346790     
   1.14543974346790        1.14543974346790        1.14543974346790     
   2.51489251828899        2.51489251828899        2.51489251828899     
   2.51489251828899        2.51489251828899        4.31935253268844     
   4.31935253268844        4.31935253268844        4.31935253268844     
   4.31935253268844        6.45395112957464        6.45395112957464     
   6.45395112957464        6.45395112957464        6.45395112957464     
   8.79463319744677        8.79463319744677        8.79463319744677     
   8.79463319744677        8.79463319744677        11.2053668025532     
   11.2053668025532        11.2053668025532        11.2053668025532     
   11.2053668025532        13.5460488704254        13.5460488704254     
   13.5460488704254        13.5460488704254        13.5460488704254     
   15.6806474673116        15.6806474673116        15.6806474673116     
   15.6806474673116        15.6806474673116        17.4851074817110     
   17.4851074817110        17.4851074817110        17.4851074817110     
   17.4851074817110        18.8545602565321        18.8545602565321     
   18.8545602565321        18.8545602565321        18.8545602565321     
   19.7094181742605        19.7094181742605        19.7094181742605     
   19.7094181742605        19.7094181742605        20.0000000000000     
   20.0000000000000        20.0000000000000        20.0000000000000     
   20.0000000000000     
  8.715574274765817E-002  6.536680706074363E-002  4.357787137382908E-002
  2.178893568691454E-002  0.000000000000000E+000  8.715574274765817E-002
  6.536680706074363E-002  4.357787137382908E-002  2.178893568691454E-002
  0.000000000000000E+000  8.715574274765817E-002  6.536680706074363E-002
  4.357787137382908E-002  2.178893568691454E-002  0.000000000000000E+000
  8.715574274765817E-002  6.536680706074363E-002  4.357787137382908E-002
  2.178893568691454E-002  0.000000000000000E+000  8.715574274765817E-002
  6.536680706074363E-002  4.357787137382908E-002  2.178893568691454E-002
  0.000000000000000E+000  8.715574274765817E-002  6.536680706074363E-002
  4.357787137382908E-002  2.178893568691454E-002  0.000000000000000E+000
  8.715574274765817E-002  6.536680706074363E-002  4.357787137382908E-002
  2.178893568691454E-002  0.000000000000000E+000  8.715574274765817E-002
  6.536680706074363E-002  4.357787137382908E-002  2.178893568691454E-002
  0.000000000000000E+000  8.715574274765817E-002  6.536680706074363E-002
  4.357787137382908E-002  2.178893568691454E-002  0.000000000000000E+000
  8.715574274765817E-002  6.536680706074363E-002  4.357787137382908E-002
  2.178893568691454E-002  0.000000000000000E+000  8.715574274765817E-002
  6.536680706074363E-002  4.357787137382908E-002  2.178893568691454E-002
  0.000000000000000E+000  8.715574274765817E-002  6.536680706074363E-002
  4.357787137382908E-002  2.178893568691454E-002  0.000000000000000E+000
  8.715574274765817E-002  6.536680706074363E-002  4.357787137382908E-002
  2.178893568691454E-002  0.000000000000000E+000  8.715574274765817E-002
  6.536680706074363E-002  4.357787137382908E-002  2.178893568691454E-002
  0.000000000000000E+000
  0.755274899132246        1.01718617700100        1.15992541051716     
   1.23602499347821        1.09105737775490        1.53402530251768     
   1.78737689575749        1.92274604668878        1.27095577830493     
   1.80762017444231        2.12502740246567        2.29874907588287     
   1.35728207986441        1.93559718372667        2.28054963035552     
   2.47070899645530        1.39811678938587        1.99527970545629     
   2.35228101354111        2.54944092501163        1.41637981036082     
   2.02176616007000        2.38390771492945        2.58398583230520     
   1.42140625886290        2.02902241495314        2.39253799291983     
   2.59338554090335        1.41588656786157        2.02102844439522     
   2.38300414500332        2.58298422489992        1.39761712276407     
   1.99450829931458        2.35130873757068        2.54833604450726     
   1.35739711364722        1.93569948258466        2.28059651401917     
   2.47068433287935        1.27190120582866        1.80891724573688     
   2.12648806773185        2.30024656602387        1.09245772220713     
   1.53595993171798        1.78958409877017        1.92505113373625     
  0.756422226504641        1.01869906796165        1.16162186147013     
   1.23779634839552     
 Zone I=   31 J=   14 K=1  T="NearWake"
 DATAPACKING=BLOCK
 VARLOCATION=([4]=CELLCENTERED)
  -12.1752853976431       -11.9252853976431       -11.6749705200854     
  -11.4244253752932       -11.1738091619725       -10.9231773067687     
  -10.6725486274945       -10.4219253873394       -10.1713245195601     
  -9.92071933562197       -9.67017940393920       -9.41957874144433     
  -9.16915428139777       -8.91852540943330       -8.66832759503491     
  -8.41752177782629       -8.16783835993819       -7.91663051059255     
  -7.66724184007329       -7.41688446008241       -7.16177168207932     
  -6.91477431808530       -6.66360744234652       -6.41358472503991     
  -6.16345772322281       -5.91329325289134       -5.66333655188077     
  -5.41341580670611       -5.16366717830683       -4.91404253021674     
  -4.66459640917778       -12.1752853976431       -11.9252853976431     
  -11.6754985631394       -11.4253505666092       -11.1750462786675     
  -10.9246606146112       -10.6742258421035       -10.4237588386165     
  -10.1732701062052       -9.92277168837598       -9.67225117725381     
  -9.42177732856829       -9.17115542908512       -8.92094121291221     
  -8.66979403832673       -8.42056495101582       -8.16799561886201     
  -7.92030113513319       -7.66624876048176       -7.41875867902253     
  -7.16473840935560       -6.91659693972893       -6.66594243233185     
  -6.41551373901109       -6.16525986838499       -5.91485479259729     
  -5.66456837639555       -5.41426300304114       -5.16404008374778     
  -4.91386916918445       -4.66382232821517       -12.1752853976431     
  -11.9252853976431       -11.6759387554005       -11.4264469316371     
  -11.1768534607139       -10.9271853681116       -10.6774607230870     
  -10.4276915165042       -10.1778874593790       -9.92805414980019     
  -9.67819803248884       -9.42832219825930       -9.17842874802150     
  -8.92852810281630       -8.67859738613100       -8.42870164280388     
  -8.17869070792469       -7.92889122327422       -7.67867220200858     
  -7.42883971820124       -7.17923127952837       -6.92924406787274     
  -6.67930868332129       -6.42937598017528       -6.17946731910507     
  -5.92958325704159       -5.67971367406202       -5.42986898330282     
  -5.18004160335406       -4.93023509540898       -4.68044345087098     
  -12.1752853976431       -11.9252853976431       -11.6759539747905     
  -11.4264746067183       -11.1768950001277       -10.9272444355003     
  -10.6775418427080       -10.4277991826948       -10.1780259507162     
  -9.92822727491147       -9.67840935468194       -9.42857466981645     
  -9.17872507665888       -8.92887060080818       -8.67898790545860     
  -8.42914274428783       -8.17918918894858       -7.92943071865040     
  -7.67928673301144       -7.42953033776930       -7.17991746029674     
  -6.92998716977286       -6.68009112611004       -6.43022388439776     
  -6.18032475075432       -5.93045723042438       -5.68057545839215     
  -5.43070815618229       -5.18083662854841       -4.93096929034509     
  -4.68109695980828       -12.1752853976431       -11.9252853976431     
  -11.6759566020806       -11.4264716818781       -11.1768823123122     
  -10.9272200339217       -10.6775050844198       -10.4277501876177     
  -10.1779651573312       -9.92815543576625       -9.67832683614161     
  -9.42848265501295       -9.17862256314349       -8.92876068500240     
  -8.67886412152621       -8.42901699163546       -8.17903412817537     
  -7.92929347167277       -7.67906898628769       -7.42943339556021     
  -7.17967334674598       -6.92977935973539       -6.67983028530568     
  -6.42996136378227       -6.18002782174493       -5.93013886563604     
  -5.68022292127279       -5.43032208627769       -5.18041040360482     
  -4.93049997616595       -4.68057932379042       -12.1752853976431     
  -11.9252853976431       -11.6759590009084       -11.4264718398348     
  -11.1768775361938       -10.9272087313826       -10.6774863078891     
  -10.4277234366170       -10.1779300860363       -9.92811205961626     
  -9.67827476088980       -9.42842250303246       -9.17855284126146     
  -8.92868399595468       -8.67877463783982       -8.42892495962012     
  -8.17891777738513       -7.92919284142434       -7.67889885378602     
  -7.42936839934157       -7.17948968003323       -6.92963082702866     
  -6.67964568074422       -6.42977727996005       -6.17982402349132     
  -5.92992507451827       -5.67999308890394       -5.43007836847853     
  -5.18015072795372       -4.93022448688319       -4.68028703875350     
  -12.1752853976431       -11.9252853976431       -11.6759603259787     
  -11.4264725851836       -11.1768765682881       -10.9272053436069     
  -10.6774800365772       -10.4277139977301       -10.1779172350604     
  -9.92809573583045       -9.67825466071251       -9.42839889194783     
  -9.17852483656464       -8.92865292906419       -8.67873741339614     
  -8.42888685910748       -8.17886760132311       -7.92915132232995     
  -7.67882037526153       -7.42934655177932       -7.17940624648987     
  -6.92956664387894       -6.67956512020550       -6.42969803722171     
  -6.17973683089229       -5.92983458388516       -5.67989689622153     
  -5.42997772628062       -5.18004509611512       -4.93011428644390     
  -4.68017224497777       -12.1752853976431       -11.9252853976431     
  -11.6759602518789       -11.4264725450474       -11.1768766302517     
  -10.9272055560954       -10.6774804356010       -10.4277146072574     
  -10.1779180726403       -9.92809680043111       -9.67825595632839     
  -9.42840037488662       -9.17852651233645       -8.92865466409318     
  -8.67873926245350       -8.42888850917013       -8.17886922340846     
  -7.92915244552123       -7.67882079196012       -7.42934569015997     
  -7.17940540943222       -6.92956531995634       -6.67956336834062     
  -6.42969576642643       -6.17973398554258       -5.92983108391208     
  -5.67989265736965       -5.42997265284319       -5.18003908283847     
  -4.93010721517004       -4.68016397291565       -12.1752853976431     
  -11.9252853976431       -11.6759588461620       -11.4264717660942     
  -11.1768777058643       -10.9272092691330       -10.6774873147985     
  -10.4277249901366       -10.1779322519028       -9.92811486388526     
  -9.67827824296299       -9.42842659409808       -9.17855758674794     
  -8.92868911711529       -8.67878029448697       -8.42893044245914     
  -8.17892351752540       -7.92919772581935       -7.67890237323896     
  -7.42936893524930       -7.17949074184209       -6.92963111085773     
  -6.67964532579862       -6.42977606191457       -6.17982178592319     
  -5.92992157777747       -5.67998805274722       -5.43007144436306     
  -5.18014149439287       -4.93021242582624       -4.68027147125425     
  -12.1752853976431       -11.9252853976431       -11.6759564885901     
  -11.4264715888822       -11.1768823710232       -10.9272203666393     
  -10.6775058077166       -10.4277514095526       -10.1779669846280     
  -9.92815795149797       -9.67833014034315       -9.42848676652936     
  -9.17862760111137       -8.92876650140190       -8.67887095136058     
  -8.42902431243991       -8.17904245858941       -7.92930187213309     
  -7.67907708906122       -7.42943925266708       -7.17968125165963     
  -6.92978813067529       -6.67984032990840       -6.42997282721273     
  -6.18004095481964       -5.93015384078839       -5.68023986583322     
  -5.43034098654352       -5.18043103739456       -4.93052176391478     
  -4.68060101537410       -12.1752853976431       -11.9252853976431     
  -11.6759539842674       -11.4264744432318       -11.1768946169855     
  -10.9272438352289       -10.6775410560480       -10.4277982609148     
  -10.1780249574027       -9.92822628686415       -9.67840845007649     
  -9.42857393762301       -9.17872459752213       -8.92887045709889     
  -8.67898818803992       -8.42914347628443       -8.17919057175303     
  -7.92943254944828       -7.67928894387691       -7.42953198444009     
  -7.17992048916759       -6.92999157063419       -6.68009735123399     
  -6.43023296368543       -6.18033816878174       -5.93047704251377     
  -5.68060463946345       -5.43075074155973       -5.18089797854246     
  -4.93105595580103       -4.68121568241606       -12.1752853976431     
  -11.9252853976431       -11.6759388687406       -11.4264466084850     
  -11.1768524158194       -10.9271834374596       -10.6774578176995     
  -10.4276876060968       -10.1778825394057       -9.92804825962126     
  -9.67819118029956       -9.42831447709081       -9.17842010173833     
  -8.92851869967695       -8.67858702482380       -8.42869056153554     
  -8.17867869020773       -7.92887811510369       -7.67865800400452     
  -7.42882482166647       -7.17921229738747       -6.92922090519658     
  -6.67927933537504       -6.42933923556309       -6.17942156916144     
  -5.92952676643711       -5.67964502086040       -5.42978770166736     
  -5.17995067383749       -4.93014963798944       -4.68045854717756     
  -12.1752853976431       -11.9252853976431       -11.6754973204984     
  -11.4253462762309       -11.1750385317943       -10.9246494838243     
  -10.6742115720793       -10.4237417576074       -10.1732505525791     
  -9.92275008058910       -9.67222776591010       -9.42175262529422     
  -9.17112954908767       -8.92091430148476       -8.66976712638393     
  -8.42053561284890       -8.16796941826024       -7.92026793900901     
  -7.66622541544814       -7.41873290476784       -7.16471722916709     
  -6.91656870152878       -6.66591217909059       -6.41547952918696     
  -6.16522099608309       -5.91481232589640       -5.66452215321894     
  -5.41421499668384       -5.16399214289720       -4.91382407310593     
  -4.66377586019362       -12.1752853976431       -11.9252853976431     
  -11.6749707340747       -11.4244260391331       -11.1738106302051     
  -10.9231799521699       -10.6725528083316       -10.4219314257725     
  -10.1713327101143       -9.92072989217501       -9.67019254113931     
  -9.41959446875401       -9.16917270403612       -8.91854621734996     
  -8.66835043462163       -8.41754674000372       -8.16786192474923     
  -7.91665693762348       -7.66725782320836       -7.41689818327323     
  -7.16178050470491       -6.91477976030983       -6.66360702908623     
  -6.41357637323051       -6.16343763963218       -5.91325655000628     
  -5.66327532289520       -5.41331894189708       -5.16351839114352     
  -4.91381990028613       -4.66427502233651     
  0.000000000000000E+000  0.000000000000000E+000  3.771975301582680E-004
  1.472668563853315E-003  3.334343506183500E-003  5.959855495642119E-003
  9.335217631649887E-003  1.342164999556145E-002  1.820270357389703E-002
  2.356571922083729E-002  2.961972534931213E-002  3.592798462531352E-002
  4.323500176317154E-002  4.989091548076972E-002  5.853727880285900E-002
  6.531002587597366E-002  7.435838711209489E-002  8.110686616628088E-002
  9.301882943874448E-002  9.508776221173897E-002  0.110492628373178     
  0.119167949554705       0.127953324424026       0.137076074751116     
  0.145333917391589       0.153558713007184       0.161126434727491     
  0.168268547985983       0.174723079480789       0.180419623141937     
  0.184906319294955       0.290581825739480       0.290581825739480     
  0.290947546598088       0.289529335812954       0.286643545868396     
  0.282307285676051       0.276567940915922       0.269548156538816     
  0.261183666271800       0.251958823223548       0.240998786900948     
  0.230615384093214       0.216397101028967       0.206973240677295     
  0.187268719063527       0.184194245619794       0.150477904121251     
  0.168307995374987       0.104441379616521       0.148306022318103     
  8.737991446599623E-002  8.766894486831417E-002  6.862389235050392E-002
  5.157879862030001E-002  3.796580733806617E-002  2.247990614705720E-002
  9.356273338726712E-003 -3.722884118352502E-003 -1.532974615390635E-002
 -2.584416508157648E-002 -3.414409042437582E-002   1.14543974346790     
   1.14543974346790        1.14556820021310        1.14555303842473     
   1.14551149236656        1.14542834796880        1.14529668387475     
   1.14511896925531        1.14488049659044        1.14460829123634     
   1.14423676455904        1.14390345393466        1.14331171474786     
   1.14308001550636        1.14192982052951        1.14246186923834     
   1.13945143646969        1.14342718394724        1.13356753780175     
   1.14603857934710        1.13182075247297        1.13895838392544     
   1.13458217163324        1.13435376625430        1.13301014607776     
   1.13188908810191        1.13066019391544        1.12949160132452     
   1.12836885297327        1.12735790890047        1.12650626749781     
   2.51489251828899        2.51489251828899        2.51494281950805     
   2.51494588761705        2.51494990826124        2.51495058850036     
   2.51494614977683        2.51493770983051        2.51492078791530     
   2.51490451217395        2.51486772915163        2.51485626513554     
   2.51477084883632        2.51482358729548        2.51456542558348     
   2.51494114262035        2.51398524735415        2.51579150861872     
   2.51207986689888        2.51726173330029        2.51205941003906     
   2.51515950962943        2.51381931986478        2.51402597658043     
   2.51389073487195        2.51382341951213        2.51372924794843     
   2.51364832760082        2.51357059087020        2.51350010415792     
   2.51343277980023        4.31935253268844        4.31935253268844     
   4.31937405078415        4.31937569372989        4.31937840877251     
   4.31938071663987        4.31938204590177        4.31938291082824     
   4.31938173143024        4.31938202720499        4.31937592729877     
   4.31938069490914        4.31935909536772        4.31939115914515     
   4.31930709613833        4.31946644470628        4.31911619653249     
   4.31983825796510        4.31838767399983        4.32045060535620     
   4.31844462427528        4.31968233545529        4.31919679619320     
   4.31929453815975        4.31927523307854        4.31927705528415     
   4.31927101933369        4.31926810206463        4.31926573152520     
   4.31926408799512        4.31926133344724        6.45395112957464     
   6.45395112957464        6.45395983935185        6.45396008612140     
   6.45396081080902        6.45396144000725        6.45396176107418     
   6.45396198654350        6.45396153538583        6.45396176848703     
   6.45395970322817        6.45396191319413        6.45395429663798     
   6.45396724749911        6.45393626294715        6.45399819679624     
   6.45386563886753        6.45414437567397        6.45358463636598     
   6.45438126799926        6.45361721078313        6.45409372482534     
   6.45391575529928        6.45395502250413        6.45395289800413     
   6.45395762900841        6.45395986706021        6.45396288221277     
   6.45396596030453        6.45396890753066        6.45397098004563     
   8.79463319744677        8.79463319744677        8.79463467770387     
   8.79463385368959        8.79463311858478        8.79463231474061     
   8.79463137966756        8.79463036457319        8.79462911398189     
   8.79462798047716        8.79462618514833        8.79462543335451     
   8.79462206331452        8.79462396752495        8.79461439563822     
   8.79462891485185        8.79459276980089        8.79466377016262     
   8.79451583013466        8.79472166284787        8.79452406827023     
   8.79464770779651        8.79460256626097        8.79461266148842     
   8.79461275650367        8.79461433327237        8.79461545564646     
   8.79461672683296        8.79461807812158        8.79461940684821     
   8.79462057248156        11.2053668025532        11.2053668025532     
   11.2053624749784        11.2053606097205        11.2053585123403     
   11.2053563264709        11.2053540908270        11.2053517309926     
   11.2053493817627        11.2053466641369        11.2053443516506     
   11.2053406872808        11.2053393912780        11.2053323949941     
   11.2053367825453        11.2053162630776        11.2053471264275     
   11.2052684184961        11.2054133406222        11.2051952581791     
   11.2053990121683        11.2052708469419        11.2053168965982     
   11.2053049995065        11.2053046762456        11.2053022691487     
   11.2053008909969        11.2052993848566        11.2052981743613     
   11.2052972720810        11.2052970400588        13.5460488704254     
   13.5460488704254        13.5460373328759        13.5460342152424     
   13.5460304834939        13.5460266735945        13.5460229592221     
   13.5460190918790        13.5460156165681        13.5460111327183     
   13.5460085967338        13.5460013607934        13.5460035678081     
   13.5459845863434        13.5460093086955        13.5459398898016     
   13.5460657777474        13.5457767291704        13.5463324321507     
   13.5455179404529        13.5462899384356        13.5458056027439     
   13.5459835997764        13.5459399914226        13.5459400061964     
   13.5459319416020        13.5459270474662        13.5459211264950     
   13.5459154973824        13.5459102026329        13.5459063836269     
   15.6806474673116        15.6806474673116        15.6806231145187     
   15.6806183305542        15.6806123707182        15.6806066427588     
   15.6806016598254        15.6805968554839        15.6805937521702     
   15.6805887770564        15.6805897562288        15.6805793173084     
   15.6805947173124        15.6805555736722        15.6806321833967     
   15.6804635272066        15.6808055264415        15.6800696272933     
   15.6815152212407        15.6794249929777        15.6814439938906     
   15.6801922828167        15.6806776950671        15.6805712403928     
   15.6805858510495        15.6805762741585        15.6805753870098     
   15.6805699875796        15.6805638430529        15.6805561551667     
   15.6805494190480        17.4851074817110        17.4851074817110     
   17.4850541972123        17.4850477202714        17.4850402562829     
   17.4850359975645        17.4850366605366        17.4850410769395     
   17.4850536678025        17.4850652421067        17.4850968959952     
   17.4851026823762        17.4851819495410        17.4851221458615     
   17.4853729419378        17.4849878571757        17.4859354771893     
   17.4841156876183        17.4878216671995        17.4826096531670     
   17.4878337130241        17.4847168797569        17.4860641607346     
   17.4858516521937        17.4859911479036        17.4860599356331     
   17.4861620718560        17.4862538329349        17.4863499802128     
   17.4864464867727        17.4865500884836        18.8545602565321     
   18.8545602565321        18.8544284924623        18.8544400370943     
   18.8544781121908        18.8545578682911        18.8546860280831     
   18.8548602455916        18.8550951364705        18.8553635517469     
   18.8557310608061        18.8560599566278        18.8566470174543     
   18.8568733125663        18.8580179668273        18.8574793568778     
   18.8604826610994        18.8565022816478        18.8663496295961     
   18.8538640527601        18.8681060765900        18.8609654946379     
   18.8653641522000        18.8656079155415        18.8669891299684     
   18.8681608764063        18.8694789332494        18.8707990431964     
   18.8722185634470        18.8739323823452        18.8775198024900     
   19.7094181742605        19.7094181742605        19.7090487762561     
   19.7104667574054        19.7133555211370        19.7176968379601     
   19.7234422745801        19.7304681843350        19.7388381015854     
   19.7480666025054        19.7590286460570        19.7694104591989     
   19.7836253783179        19.7930421292741        19.8127345191508     
   19.8158040812236        19.8494847060480        19.8316835770613     
   19.8954608036433        19.8516658808858        19.9125388745736     
   19.9122768028112        19.9313139344642        19.9483490263194     
   19.9619636944326        19.9774310451989        19.9905396625626     
   20.0035836487930        20.0151427825591        20.0255778657523     
   20.0337807901493        20.0000000000000        20.0000000000000     
   19.9996190951823        19.9985167390562        19.9966471096313     
   19.9940125110946        19.9906269974415        19.9865295361053     
   19.9817366199213        19.9763610268506        19.9702934660360     
   19.9639707176807        19.9566477071226        19.9499733107128     
   19.9413082480814        19.9345044731633        19.9254395408465     
   19.9186384145839        19.9066957864824        19.9045716966044     
   19.8891234202318        19.8803885973239        19.8715327043686     
   19.8623223866785        19.8539544945021        19.8455875113459     
   19.8378319633421        19.8304339703033        19.8236208317608     
   19.8174163296884        19.8122131688242     
 -6.536680706074363E-003 -6.536680706074363E-003  1.506091073810835E-004
  7.507230287572710E-003  1.520254493941178E-002  2.302320049883601E-002
  3.081323176413058E-002  3.844749390140263E-002  4.582686726416402E-002
  5.286072492345782E-002  5.946624510395863E-002  6.564787689569120E-002
  7.110062583471254E-002  7.653001273211441E-002  7.991068430945521E-002
  8.616846127531574E-002  8.405712419547219E-002  9.631603863811217E-002
  8.372243766508916E-002  0.103154168921338       9.109312285735120E-002
  9.373320687789660E-002  9.244683922224443E-002  8.908866481969910E-002
  8.631700630257830E-002  8.217821592238050E-002  7.780005914355366E-002
  7.261281034762719E-002  6.705125129679787E-002  6.108304897472631E-002
  5.528820203824185E-002 -6.536680706074363E-003 -6.536680706074363E-003
 -2.634497132344193E-002 -4.502549905101669E-002 -6.281370196233592E-002
 -7.977360902957534E-002 -9.590798300407710E-002 -0.111174409121777     
 -0.125553653519637      -0.138935477936063      -0.151321472348785     
 -0.162776226239338      -0.172255668767270      -0.183494485055777     
 -0.185877519690568      -0.204025102684623      -0.187660176425825     
 -0.227782304404855      -0.177802642384565      -0.233696821810058     
 -0.196073027115298      -0.216209571101875      -0.208749526893262     
 -0.204571985739476      -0.202390560622654      -0.195964237556930     
 -0.190678529591737      -0.183475920481256      -0.176544754449067     
 -0.169122854891203      -0.162818422559697      -6.536680706074363E-003
 -6.536680706074363E-003 -2.006818091190198E-002 -3.205557535470377E-002
 -4.309850738002131E-002 -5.349626129604943E-002 -6.342289388555271E-002
 -7.298246216056223E-002 -8.225299113768283E-002 -9.127006062137401E-002
 -0.100091987876010      -0.108700947278040      -0.117175404795071     
 -0.125449799610905      -0.133530229690027      -0.141686402854868     
 -0.148600884136458      -0.157740577928227      -0.161883443425361     
 -0.162863221634525      -0.183281236310229      -0.186491128090098     
 -0.197028552111284      -0.203136018054320      -0.211689144262582     
 -0.218725948055059      -0.226272192615790      -0.233241341143444     
 -0.240034293935585      -0.246233264529632      -0.251716725704293     