 Title = "Wing and Wake"
 VARIABLES = "X" "Y" "Z" "GAM"
 Zone I=    5 J=   14 K=1  T="Blade"
 DATAPACKING=BLOCK
 VARLOCATION=([4]=CELLCENTERED)
  -8.74619469809175       -8.49714602356881       -8.24809734904587     
  -7.99904867452294       -7.75000000000000       -8.74619469809175     
  -8.49714602356881       -8.24809734904587       -7.99904867452294     
  -7.75000000000000       -8.74619469809175       -8.49714602356881     
  -8.24809734904587       -7.99904867452294       -7.75000000000000     
  -8.74619469809175       -8.49714602356881       -8.24809734904587     
  -7.99904867452294       -7.75000000000000       -8.74619469809175     
  -8.49714602356881       -8.24809734904587       -7.99904867452294     
  -7.75000000000000       -8.74619469809175       -8.49714602356881     
  -8.24809734904587       -7.99904867452294       -7.75000000000000     
  -8.74619469809175       -8.49714602356881       -8.24809734904587     
  -7.99904867452294       -7.75000000000000       -8.74619469809175     
  -8.49714602356881       -8.24809734904587       -7.99904867452294     
  -7.75000000000000       -8.74619469809175       -8.49714602356881     
  -8.24809734904587       -7.99904867452294       -7.75000000000000     
  -8.74619469809175       -8.49714602356881       -8.24809734904587     
  -7.99904867452294       -7.75000000000000       -8.74619469809175     
  -8.49714602356881       -8.24809734904587       -7.99904867452294     
  -7.75000000000000       -8.74619469809175       -8.49714602356881     
  -8.24809734904587       -7.99904867452294       -7.75000000000000     
  -8.74619469809175       -8.49714602356881       -8.24809734904587     
  -7.99904867452294       -7.75000000000000       -8.74619469809175     
  -8.49714602356881       -8.24809734904587       -7.99904867452294     
  -7.75000000000000     
  0.000000000000000E+000  0.000000000000000E+000  0.000000000000000E+000
  0.000000000000000E+000  0.000000000000000E+000  0.290581825739480     
  0.290581825739480       0.290581825739480       0.290581825739480     
  0.290581825739480        1.14543974346790        1.14543974346790     
   1.14543974346790        1.14543974346790        1.14543974346790     
   2.51489251828899        2.51489251828899        2.51489251828899     
   2.51489251828899        2.51489251828899        4.31935253268844     
   4.31935253268844        4.31935253268844        4.31935253268844     
   4.31935253268844        6.45395112957464        6.45395112957464     
   6.45395112957464        6.45395112957464        6.45395112957464     
   8.79463319744677        8.79463319744677        8.79463319744677     
   8.79463319744677        8.79463319744677        11.2053668025532     
   11.2053668025532        11.2053668025532        11.2053668025532     
   11.2053668025532        13.5460488704254        13.5460488704254     
   13.5460488704254        13.5460488704254        13.5460488704254     
   15.6806474673116        15.6806474673116        15.6806474673116     
   15.6806474673116        15.6806474673116        17.4851074817110     
   17.4851074817110        17.4851074817110        17.4851074817110     
   17.4851074817110        18.8545602565321        18.8545602565321     
   18.8545602565321        18.8545602565321        18.8545602565321     
   19.7094181742605        19.7094181742605        19.7094181742605     
   19.7094181742605        19.7094181742605        20.0000000000000     
   20.0000000000000        20.0000000000000        20.0000000000000     
   20.0000000000000     
  8.715574274765817E-002  6.536680706074363E-002  4.357787137382908E-002
  2.178893568691454E-002  0.000000000000000E+000  8.715574274765817E-002
  6.536680706074363E-002  4.357787137382908E-002  2.178893568691454E-002
  0.000000000000000E+000  8.715574274765817E-002  6.536680706074363E-002
  4.357787137382908E-002  2.178893568691454E-002  0.000000000000000E+000
  8.715574274765817E-002  6.536680706074363E-002  4.357787137382908E-002
  2.178893568691454E-002  0.000000000000000E+000  8.715574274765817E-002
  6.536680706074363E-002  4.357787137382908E-002  2.178893568691454E-002
  0.000000000000000E+000  8.715574274765817E-002  6.536680706074363E-002
  4.357787137382908E-002  2.178893568691454E-002  0.000000000000000E+000
  8.715574274765817E-002  6.536680706074363E-002  4.357787137382908E-002
  2.178893568691454E-002  0.000000000000000E+000  8.715574274765817E-002
  6.536680706074363E-002  4.357787137382908E-002  2.178893568691454E-002
  0.000000000000000E+000  8.715574274765817E-002  6.536680706074363E-002
  4.357787137382908E-002  2.178893568691454E-002  0.000000000000000E+000
  8.715574274765817E-002  6.536680706074363E-002  4.357787137382908E-002
  2.178893568691454E-002  0.000000000000000E+000  8.715574274765817E-002
  6.536680706074363E-002  4.357787137382908E-002  2.178893568691454E-002
  0.000000000000000E+000  8.715574274765817E-002  6.536680706074363E-002
  4.357787137382908E-002  2.178893568691454E-002  0.000000000000000E+000
  8.715574274765817E-002  6.536680706074363E-002  4.357787137382908E-002
  2.178893568691454E-002  0.000000000000000E+000  8.715574274765817E-002
  6.536680706074363E-002  4.357787137382908E-002  2.178893568691454E-002
  0.000000000000000E+000
  0.732555357499059       0.985404758049460        1.12238681180687     
   1.19467222172868        1.05616594642714        1.48345375046687     
   1.72660565649519        1.85530786069692        1.22546340722586     
   1.74109145969496        2.04451811915940        2.20899601874642     
   1.30219240183582        1.85485352972358        2.18264973941774     
   2.36140853679994        1.33513291504668        1.90291956120366     
   2.24025270290336        2.42433731746877        1.34842886939636     
   1.92213202979369        2.26307441089754        2.44907655540527     
   1.35199028338155        1.92725327643159        2.26912993433254     
   2.45561306192731        1.34842886939636        1.92213202979369     
   2.26307441089755        2.44907655540527        1.33513291504668     
   1.90291956120367        2.24025270290336        2.42433731746877     
   1.30219240183582        1.85485352972358        2.18264973941775     
   2.36140853679994        1.22546340722586        1.74109145969496     
   2.04451811915940        2.20899601874642        1.05616594642714     
   1.48345375046688        1.72660565649519        1.85530786069692     
  0.732555357499059       0.985404758049460        1.12238681180687     
   1.19467222172868     
 Zone I=   31 J=   14 K=1  T="NearWake"
 DATAPACKING=BLOCK
 VARLOCATION=([4]=CELLCENTERED)
  -7.67528539764312       -7.42528539764312       -7.17470968726902     
  -6.92415245328711       -6.67358795267274       -6.42301017079352     
  -6.17246831546876       -5.92193766470757       -5.67144635841061     
  -5.42098815999392       -5.17057905338704       -4.92022433488440     
  -4.66993830200946       -4.41973417712863       -4.16963062433061     
  -3.91964951743156       -3.66981868885001       -3.42017250483355     
  -3.17075419203511       -2.92161805282349       -2.67283271079042     
  -2.42448488070365       -2.17668366441993       -1.92956425607011     
  -1.68328811594732       -1.43803152221291       -1.19394239953962     
 -0.951028066102513      -0.708754567303982      -0.465502413876984     
 -0.196951952315525       -7.67528539764312       -7.42528539764312     
  -7.17559036073380       -6.92530941392884       -6.67512643985549     
  -6.42479686718250       -6.17448496936655       -5.92413093369077     
  -5.67378328826318       -5.42342940521729       -5.17308713632831     
  -4.92275742431110       -4.67245013183246       -4.42217075721819     
  -4.17192806993461       -3.92173039042744       -3.67158820959401     
  -3.42151325705747       -3.17151957454611       -2.92162323567850     
  -2.67184234492413       -2.42219541784938       -2.17269710356527     
  -1.92334657884203       -1.67409780475733       -1.42478165820521     
  -1.17490354103813      -0.923187975737368      -0.666664555366840     
 -0.393970291518399      -3.447226816458836E-002  -7.67528539764312     
  -7.42528539764312       -7.17629705403427       -6.92662700426628     
  -6.67712883316508       -6.42743711461600       -6.17776423063408     
  -5.92802368067936       -5.67827602332969       -5.42850166987687     
  -5.17872096042360       -4.92893152776628       -4.67914239402750     
  -4.42935585935401       -4.17957752516909       -3.92981070199544     
  -3.68005919000559       -3.43032499378665       -3.18060821491060     
  -2.93090451595282       -2.68120176219397       -2.43147291868181     
  -2.18166276266968       -1.93166103180757       -1.68124611998789     
  -1.42995960778311       -1.17680233815839      -0.919427196224035     
 -0.651647939325237      -0.353775258267492       7.472438268337850E-002
  -7.67528539764312       -7.42528539764312       -7.17630630823543     
  -6.92664061717522       -6.67714886941540       -6.42746649075837     
  -6.17780522172835       -5.92807680265525       -5.67834135073301     
  -5.42857716392962       -5.17880353946245       -4.92901566200713     
  -4.67922031388329       -4.42941640195014       -4.17960564400813     
  -3.92978624400533       -3.67995576696287       -3.43010831821217     
  -3.18023416099227       -2.93031658145425       -2.68032794543234     
  -2.43022180223967       -2.17991870275635       -1.92927814892709     
  -1.67804036994393       -1.42569620210269       -1.17116958110804     
 -0.911966357130340      -0.641510981391793      -0.338699118069203     
  8.690031360362226E-002  -7.67528539764312       -7.42528539764312     
  -7.17630144325298       -6.92662163918997       -6.67711309468874     
  -6.42741064768589       -6.17772848627234       -5.92797701318431     
  -5.67821731831751       -5.42842644859581       -5.17862373421515     
  -4.92880329494010       -4.67897141594191       -4.42912602293709     
  -4.17926808193054       -3.92939487689234       -3.67950320003855     
  -3.42958643566834       -3.17963436543120       -2.92963008437858     
  -2.67954621193871       -2.42933707094276       -2.17892452420064     
  -1.92816965794811       -1.67681367027662       -1.42434560570339     
  -1.16967955954444      -0.910289882892899      -0.639498633561666     
 -0.335771241761160       8.815898346846869E-002  -7.67528539764312     
  -7.42528539764312       -7.17629831645836       -6.92660962605639     
  -6.67709132766271       -6.42737624555212       -6.17768110950384     
  -5.92791504947171       -5.67814036162251       -5.42833348737211     
  -5.17851427145318       -4.92867661001346       -4.67882703160518     
  -4.42896345315429       -4.17908703788825       -3.92919521602093     
  -3.67928503854983       -3.42935016967702       -3.17938073758096     
  -2.92936020023466       -2.67926153616950       -2.42903934933090     
  -2.17861560668450       -1.92785114501513       -1.67648626772029     
  -1.42400792687277       -1.16932574704710      -0.909904127153548     
 -0.639037531226046      -0.335082001118081       8.834288670341536E-002
  -7.67528539764312       -7.42528539764312       -7.17629689005599     
  -6.92660435900948       -6.67708216340557       -6.42736190461870     
  -6.17766166493977       -5.92788990216005       -5.67810956143749     
  -5.42829682913754       -5.17847184870536       -4.92862846492360     
  -4.67877336347889       -4.42890449487657       -4.17902312830654     
  -3.92912675661911       -3.67921251232851       -3.42927411831963     
  -3.17930175296596       -2.92927889585775       -2.67917851368146     
  -2.42895514621455       -2.17853062409330       -1.92776553996313     
  -1.67639978643182       -1.42391961776164       -1.16923339565424     
 -0.909802908428312      -0.638915519728122      -0.334898907112855     
  8.839168226499240E-002  -7.67528539764312       -7.42528539764312     
  -7.17629689005599       -6.92660435900948       -6.67708216340557     
  -6.42736190461870       -6.17766166493977       -5.92788990216005     
  -5.67810956143749       -5.42829682913754       -5.17847184870536     
  -4.92862846492360       -4.67877336347889       -4.42890449487657     
  -4.17902312830654       -3.92912675661911       -3.67921251232851     
  -3.42927411831963       -3.17930175296596       -2.92927889585775     
  -2.67917851368146       -2.42895514621455       -2.17853062409330     
  -1.92776553996313       -1.67639978643182       -1.42391961776164     
  -1.16923339565424      -0.909802908428312      -0.638915519728122     
 -0.334898907112855       8.839168226499219E-002  -7.67528539764312     
  -7.42528539764312       -7.17629831645836       -6.92660962605639     
  -6.67709132766271       -6.42737624555212       -6.17768110950384     
  -5.92791504947171       -5.67814036162251       -5.42833348737211     
  -5.17851427145318       -4.92867661001346       -4.67882703160518     
  -4.42896345315429       -4.17908703788825       -3.92919521602093     
  -3.67928503854983       -3.42935016967702       -3.17938073758096     
  -2.92936020023466       -2.67926153616950       -2.42903934933090     
  -2.17861560668450       -1.92785114501513       -1.67648626772029     
  -1.42400792687277       -1.16932574704710      -0.909904127153548     
 -0.639037531226046      -0.335082001118081       8.834288670341536E-002
  -7.67528539764312       -7.42528539764312       -7.17630144325298     
  -6.92662163918997       -6.67711309468874       -6.42741064768589     
  -6.17772848627234       -5.92797701318431       -5.67821731831751     
  -5.42842644859581       -5.17862373421515       -4.92880329494010     
  -4.67897141594191       -4.42912602293709       -4.17926808193054     
  -3.92939487689234       -3.67950320003855       -3.42958643566834     
  -3.17963436543120       -2.92963008437858       -2.67954621193871     
  -2.42933707094276       -2.17892452420064       -1.92816965794811     
  -1.67681367027662       -1.42434560570339       -1.16967955954444     
 -0.910289882892899      -0.639498633561666      -0.335771241761160     
  8.815898346846855E-002  -7.67528539764312       -7.42528539764312     
  -7.17630630823543       -6.92664061717522       -6.67714886941540     
  -6.42746649075837       -6.17780522172835       -5.92807680265525     
  -5.67834135073301       -5.42857716392962       -5.17880353946245     
  -4.92901566200713       -4.67922031388329       -4.42941640195014     
  -4.17960564400813       -3.92978624400533       -3.67995576696287     
  -3.43010831821217       -3.18023416099227       -2.93031658145425     
  -2.68032794543234       -2.43022180223967       -2.17991870275635     
  -1.92927814892709       -1.67804036994393       -1.42569620210269     
  -1.17116958110804      -0.911966357130340      -0.641510981391793     
 -0.338699118069203       8.690031360362188E-002  -7.67528539764312     
  -7.42528539764312       -7.17629705403427       -6.92662700426628     
  -6.67712883316508       -6.42743711461600       -6.17776423063408     
  -5.92802368067936       -5.67827602332969       -5.42850166987687     
  -5.17872096042360       -4.92893152776628       -4.67914239402750     
  -4.42935585935401       -4.17957752516909       -3.92981070199544     
  -3.68005919000559       -3.43032499378665       -3.18060821491060     
  -2.93090451595282       -2.68120176219397       -2.43147291868181     
  -2.18166276266968       -1.93166103180757       -1.68124611998789     
  -1.42995960778311       -1.17680233815839      -0.919427196224034     
 -0.651647939325236      -0.353775258267492       7.472438268337830E-002
  -7.67528539764312       -7.42528539764312       -7.17559036073380     
  -6.92530941392884       -6.67512643985549       -6.42479686718250     
  -6.17448496936655       -5.92413093369077       -5.67378328826318     
  -5.42342940521729       -5.17308713632831       -4.92275742431110     
  -4.67245013183246       -4.42217075721819       -4.17192806993461     
  -3.92173039042744       -3.67158820959401       -3.42151325705747     
  -3.17151957454610       -2.92162323567850       -2.67184234492413     
  -2.42219541784938       -2.17269710356527       -1.92334657884203     
  -1.67409780475733       -1.42478165820521       -1.17490354103813     
 -0.923187975737367      -0.666664555366837      -0.393970291518399     
 -3.447226816458929E-002  -7.67528539764312       -7.42528539764312     
  -7.17470968726902       -6.92415245328711       -6.67358795267274     
  -6.42301017079352       -6.17246831546876       -5.92193766470757     
  -5.67144635841061       -5.42098815999392       -5.17057905338704     
  -4.92022433488440       -4.66993830200946       -4.41973417712863     
  -4.16963062433061       -3.91964951743156       -3.66981868885001     
  -3.42017250483355       -3.17075419203511       -2.92161805282349     
  -2.67283271079042       -2.42448488070365       -2.17668366441993     
  -1.92956425607011       -1.68328811594732       -1.43803152221291     
  -1.19394239953962      -0.951028066102512      -0.708754567303981     
 -0.465502413876986      -0.196951952315526     
  0.000000000000000E+000  0.000000000000000E+000  6.055937553221839E-004
  2.339325016427318E-003  4.390338793141318E-003  7.357874544803184E-003
  1.085499796961521E-002  1.505588315231918E-002  1.980074928514024E-002
  2.509750863513031E-002  3.085412723224643E-002  3.701894513462213E-002
  4.350930247183194E-002  5.024737353798422E-002  5.714259180711505E-002
  6.409991702816031E-002  7.101554056387470E-002  7.777811356588660E-002
  8.426681717162438E-002  9.034985528713765E-002  9.588131735465655E-002
  0.100696923040202       0.104608012957209       0.107393818493739     
  0.108795721120859       0.108510712427028       0.106173561116444     
  0.101733361438631       9.716808975570254E-002  9.658203131971776E-002
  5.737717026491176E-002  0.290581825739480       0.290581825739480     
  0.291249029799782       0.287729331809980       0.285074018167925     
  0.279617855404633       0.273742914444519       0.266228027170894     
  0.257852953824287       0.248352346282574       0.238014946577954     
  0.226863302027552       0.215065991427652       0.202734706961593     
  0.190021842286969       0.177074618433657       0.164055195607391     
  0.151131649654229       0.138482554779494       0.126298506005430     
  0.114787839431864       0.104186440235436       9.477452972152171E-002
  8.690585037067397E-002  8.106250093538497E-002  7.795208438624113E-002
  7.869706879843100E-002  8.530134732949533E-002  0.101835464841498     
  0.140495122914231       0.206831026415132        1.14543974346790     
   1.14543974346790        1.14569754770793        1.14541153325773     
   1.14554545141988        1.14534152846709        1.14524980345923     
   1.14502479280436        1.14479811783989        1.14449962351486     
   1.14416655772740        1.14378068230383        1.14335378725482     
   1.14288343325794        1.14237641609418        1.14183717709205     
   1.14127449190215        1.14069891567178        1.14012526182974     
   1.13957285434887        1.13906748046316        1.13864336088237     
   1.13834658984408        1.13823927988664        1.13840555569576     
   1.13895973316500        1.14006182288884        1.14195937079311     
   1.14499064859335        1.14973974566336        1.15062430910610     
   2.51489251828899        2.51489251828899        2.51499150656247     
   2.51490409685616        2.51497933144482        2.51494613902009     
   2.51496383159457        2.51494862131365        2.51494527112470     
   2.51493096542428        2.51491829490718        2.51490189572321     
   2.51488595898394        2.51487013674260        2.51485682300579     
   2.51484749112401        2.51484461996216        2.51485075390436     
   2.51486897820469        2.51490259350066        2.51495505972469     
   2.51502973038038        2.51512985954589        2.51525840979687     
   2.51541795417382        2.51561088722955        2.51584159311492     
   2.51612702579022        2.51648325101343        2.51696936011664     
   2.51576861965621        4.31935253268844        4.31935253268844     
   4.31939444457040        4.31936389241054        4.31939786349857     
   4.31939149654379        4.31940595207246        4.31940991725805     
   4.31942008195093        4.31942818128563        4.31943874176852     
   4.31944980241354        4.31946268286758        4.31947703371753     
   4.31949332431363        4.31951157386526        4.31953196412302     
   4.31955450059335        4.31957913973403        4.31960567072871     
   4.31963370280321        4.31966261531149        4.31969165058947     
   4.31972001120667        4.31974699245478        4.31977219071700     
   4.31979610594512        4.31982243548449        4.31985402628080     
   4.31990190638170        4.31946077963594        6.45395112957464     
   6.45395112957464        6.45396905407344        6.45395866321146     
   6.45397337770988        6.45397285946054        6.45398038541876     
   6.45398418414920        6.45399043175889        6.45399605497628     
   6.45400263724138        6.45400939944983        6.45401671153008     
   6.45402433688645        6.45403230642469        6.45404048351929     
   6.45404877840550        6.45405704149722        6.45406511513889     
   6.45407280639675        6.45407989589201        6.45408613381037     
   6.45409128062001        6.45409514807542        6.45409763841165     
   6.45409879389379        6.45409894596258        6.45409931919326     
   6.45410078815719        6.45410584521108        6.45396131888778     
   8.79463319744677        8.79463319744677        8.79463824089252     
   8.79463574174660        8.79463986402855        8.79464000247566     
   8.79464222978467        8.79464348767387        8.79464536017143     
   8.79464705200481        8.79464895605919        8.79465086499673     
   8.79465286044372        8.79465487232469        8.79465689769823     
   8.79465889366650        8.79466083092201        8.79466266844296     
   8.79466436679109        8.79466588217143        8.79466716898207     
   8.79466817892873        8.79466887049095        8.79466921821756     
   8.79466922051269        8.79466890898331        8.79466838032361     
   8.79466793272803        8.79466777255459        8.79466841764259     
   8.79463421131883        11.2053668025532        11.2053668025532     
   11.2053617591075        11.2053642582534        11.2053601359714     
   11.2053599975243        11.2053577702153        11.2053565123261     
   11.2053546398286        11.2053529479952        11.2053510439408     
   11.2053491350033        11.2053471395563        11.2053451276753     
   11.2053431023018        11.2053411063335        11.2053391690780     
   11.2053373315570        11.2053356332089        11.2053341178286     
   11.2053328310179        11.2053318210713        11.2053311295090     
   11.2053307817824        11.2053307794873        11.2053310910167     
   11.2053316196764        11.2053320672720        11.2053322274454     
   11.2053315823574        11.2053657886812        13.5460488704254     
   13.5460488704254        13.5460309459266        13.5460413367885     
   13.5460266222901        13.5460271405395        13.5460196145812     
   13.5460158158508        13.5460095682411        13.5460039450237     
   13.5459973627586        13.5459906005502        13.5459832884699     
   13.5459756631136        13.5459676935753        13.5459595164807     
   13.5459512215945        13.5459429585028        13.5459348848611     
   13.5459271936033        13.5459201041080        13.5459138661896     
   13.5459087193800        13.5459048519246        13.5459023615883     
   13.5459012061062        13.5459010540374        13.5459006808067     
   13.5458992118428        13.5458941547889        13.5460386811122     
   15.6806474673116        15.6806474673116        15.6806055554296     
   15.6806361075895        15.6806021365014        15.6806085034562     
   15.6805940479275        15.6805900827419        15.6805799180491     
   15.6805718187144        15.6805612582315        15.6805501975865     
   15.6805373171324        15.6805229662825        15.6805066756864     
   15.6804884261347        15.6804680358770        15.6804454994066     
   15.6804208602660        15.6803943292713        15.6803662971968     
   15.6803373846885        15.6803083494105        15.6802799887933     
   15.6802530075452        15.6802278092830        15.6802038940549     
   15.6801775645155        15.6801459737192        15.6800980936183     
   15.6805392203641        17.4851074817110        17.4851074817110     
   17.4850084934375        17.4850959031438        17.4850206685552     
   17.4850538609799        17.4850361684054        17.4850513786863     
   17.4850547288753        17.4850690345757        17.4850817050928     
   17.4850981042768        17.4851140410161        17.4851298632574     
   17.4851431769942        17.4851525088760        17.4851553800378     
   17.4851492460956        17.4851310217953        17.4850974064993     
   17.4850449402753        17.4849702696196        17.4848701404541     
   17.4847415902031        17.4845820458262        17.4843891127704     
   17.4841584068851        17.4838729742098        17.4835167489866     
   17.4830306398834        17.4842313803438        18.8545602565321     
   18.8545602565321        18.8543024522921        18.8545884667423     
   18.8544545485801        18.8546584715329        18.8547501965408     
   18.8549752071956        18.8552018821601        18.8555003764851     
   18.8558334422726        18.8562193176962        18.8566462127452     
   18.8571165667421        18.8576235839058        18.8581628229080     
   18.8587255080978        18.8593010843282        18.8598747381703     
   18.8604271456511        18.8609325195368        18.8613566391176     
   18.8616534101559        18.8617607201134        18.8615944443042     
   18.8610402668350        18.8599381771112        18.8580406292069     
   18.8550093514066        18.8502602543366        18.8493756908939     
   19.7094181742605        19.7094181742605        19.7087509702002     
   19.7122706681900        19.7149259818321        19.7203821445954     
   19.7262570855555        19.7337719728291        19.7421470461757     
   19.7516476537174        19.7619850534221        19.7731366979724     
   19.7849340085723        19.7972652930384        19.8099781577130     
   19.8229253815663        19.8359448043926        19.8488683503458     
   19.8615174452205        19.8737014939946        19.8852121605681     
   19.8958135597646        19.9052254702785        19.9130941496293     
   19.9189374990646        19.9220479156138        19.9213029312016     
   19.9146986526705        19.8981645351585        19.8595048770858     
   19.7931689735849        20.0000000000000        20.0000000000000     
   19.9993944062447        19.9976606749836        19.9956096612069     
   19.9926421254552        19.9891450020304        19.9849441168477     
   19.9801992507149        19.9749024913649        19.9691458727677     
   19.9629810548654        19.9564906975282        19.9497526264620     
   19.9428574081929        19.9359000829718        19.9289844594361     
   19.9222218864341        19.9157331828284        19.9096501447129     
   19.9041186826454        19.8993030769598        19.8953919870428     
   19.8926061815063        19.8912042788791        19.8914892875730     
   19.8938264388836        19.8982666385614        19.9028319102443     
   19.9034179686803        19.9426228297351     
 -6.536680706074363E-003 -6.536680706074363E-003  2.068704266905159E-003
  7.219929649468850E-003  1.449895725900193E-002  2.077064214356053E-002
  2.739445306639829E-002  3.348769627536631E-002  3.934378494781054E-002
  4.467339275161677E-002  4.950267944235193E-002  5.370933603053997E-002
  5.725952106240418E-002  6.008605578739484E-002  6.215022527765237E-002
  6.341041170734824E-002  6.383792888962372E-002  6.340893698793046E-002
  6.210806908123023E-002  5.992587801007709E-002  5.685885029007010E-002
  5.290726968612804E-002  4.807248436482107E-002  4.235162870256818E-002
  3.572838548804946E-002  2.817133617397067E-002  1.963478396784194E-002
  9.926563736924469E-003 -1.020891704619925E-003 -2.451500664283173E-002
 -4.157178304037532E-002 -6.536680706074363E-003 -6.536680706074363E-003
 -3.623231561414807E-002 -4.930606488298290E-002 -6.959892781130164E-002
 -8.502542583154690E-002 -0.101857920521418      -0.116781382636621     
 -0.131493335119025      -0.145035233754921      -0.157854681445017     
 -0.169667498735115      -0.180589511926334      -0.190546822469326     
 -0.199589779160019      -0.207734435377569      -0.215050814127236     
 -0.221622709313212      -0.227574422009953      -0.233063647122569     
 -0.238293334789894      -0.243515058086212      -0.249038716362481     
 -0.255239172931520      -0.262553683601943      -0.271451615172807     
 -0.282328115578187      -0.295065161079246      -0.307466167602042     
 -0.316858610503349      -0.262388518279657      -6.536680706074363E-003
 -6.536680706074363E-003 -2.724447375207846E-002 -3.539390861108441E-002
 -4.850902796223162E-002 -5.826720119727701E-002 -6.909314347835507E-002
 -7.893866176607985E-002 -8.894602142202515E-002 -9.862928492651067E-002
 -0.108299905383097      -0.117858438548868      -0.127404629012046     
 -0.136934714520169      -0.146495463598781      -0.156108756057267     
 -0.165811001419147      -0.175634871984085      -0.185619991219916     
 -0.195809148053194      -0.206251761863093      -0.217003193093326     
 -0.228124212653801      -0.239675084557418      -0.251697884795749     
 -0.264163789463087      -0.276820664611619      -0.288715524273691     
 -0.296559480694764      -0.287509486445503      -0.149320439221906     