 Title = "Wing and Wake"
 VARIABLES = "X" "Y" "Z" "GAM"
 Zone I=    5 J=   14 K=1  T="Blade"
 DATAPACKING=BLOCK
 VARLOCATION=([4]=CELLCENTERED)
  -5.74619469809175       -5.49714602356881       -5.24809734904587     
  -4.99904867452294       -4.75000000000000       -5.74619469809175     
  -5.49714602356881       -5.24809734904587       -4.99904867452294     
  -4.75000000000000       -5.74619469809175       -5.49714602356881     
  -5.24809734904587       -4.99904867452294       -4.75000000000000     
  -5.74619469809175       -5.49714602356881       -5.24809734904587     
  -4.99904867452294       -4.75000000000000       -5.74619469809175     
  -5.49714602356881       -5.24809734904587       -4.99904867452294     
  -4.75000000000000       -5.74619469809175       -5.49714602356881     
  -5.24809734904587       -4.99904867452294       -4.75000000000000     
  -5.74619469809175       -5.49714602356881       -5.24809734904587     
  -4.99904867452294       -4.75000000000000       -5.74619469809175     
  -5.49714602356881       -5.24809734904587       -4.99904867452294     
  -4.75000000000000       -5.74619469809175       -5.49714602356881     
  -5.24809734904587       -4.99904867452294       -4.75000000000000     
  -5.74619469809175       -5.49714602356881       -5.24809734904587     
  -4.99904867452294       -4.75000000000000       -5.74619469809175     
  -5.49714602356881       -5.24809734904587       -4.99904867452294     
  -4.75000000000000       -5.74619469809175       -5.49714602356881     
  -5.24809734904587       -4.99904867452294       -4.75000000000000     
  -5.74619469809175       -5.49714602356881       -5.24809734904587     
  -4.99904867452294       -4.75000000000000       -5.74619469809175     
  -5.49714602356881       -5.24809734904587       -4.99904867452294     
  -4.75000000000000     
  0.000000000000000E+000  0.000000000000000E+000  0.000000000000000E+000
  0.000000000000000E+000  0.000000000000000E+000  0.290581825739480     
  0.290581825739480       0.290581825739480       0.290581825739480     
  0.290581825739480        1.14543974346790        1.14543974346790     
   1.14543974346790        1.14543974346790        1.14543974346790     
   2.51489251828899        2.51489251828899        2.51489251828899     
   2.51489251828899        2.51489251828899        4.31935253268844     
   4.31935253268844        4.31935253268844        4.31935253268844     
   4.31935253268844        6.45395112957464        6.45395112957464     
   6.45395112957464        6.45395112957464        6.45395112957464     
   8.79463319744677        8.79463319744677        8.79463319744677     
   8.79463319744677        8.79463319744677        11.2053668025532     
   11.2053668025532        11.2053668025532        11.2053668025532     
   11.2053668025532        13.5460488704254        13.5460488704254     
   13.5460488704254        13.5460488704254        13.5460488704254     
   15.6806474673116        15.6806474673116        15.6806474673116     
   15.6806474673116        15.6806474673116        17.4851074817110     
   17.4851074817110        17.4851074817110        17.4851074817110     
   17.4851074817110        18.8545602565321        18.8545602565321     
   18.8545602565321        18.8545602565321        18.8545602565321     
   19.7094181742605        19.7094181742605        19.7094181742605     
   19.7094181742605        19.7094181742605        20.0000000000000     
   20.0000000000000        20.0000000000000        20.0000000000000     
   20.0000000000000     
  8.715574274765817E-002  6.536680706074363E-002  4.357787137382908E-002
  2.178893568691454E-002  0.000000000000000E+000  8.715574274765817E-002
  6.536680706074363E-002  4.357787137382908E-002  2.178893568691454E-002
  0.000000000000000E+000  8.715574274765817E-002  6.536680706074363E-002
  4.357787137382908E-002  2.178893568691454E-002  0.000000000000000E+000
  8.715574274765817E-002  6.536680706074363E-002  4.357787137382908E-002
  2.178893568691454E-002  0.000000000000000E+000  8.715574274765817E-002
  6.536680706074363E-002  4.357787137382908E-002  2.178893568691454E-002
  0.000000000000000E+000  8.715574274765817E-002  6.536680706074363E-002
  4.357787137382908E-002  2.178893568691454E-002  0.000000000000000E+000
  8.715574274765817E-002  6.536680706074363E-002  4.357787137382908E-002
  2.178893568691454E-002  0.000000000000000E+000  8.715574274765817E-002
  6.536680706074363E-002  4.357787137382908E-002  2.178893568691454E-002
  0.000000000000000E+000  8.715574274765817E-002  6.536680706074363E-002
  4.357787137382908E-002  2.178893568691454E-002  0.000000000000000E+000
  8.715574274765817E-002  6.536680706074363E-002  4.357787137382908E-002
  2.178893568691454E-002  0.000000000000000E+000  8.715574274765817E-002
  6.536680706074363E-002  4.357787137382908E-002  2.178893568691454E-002
  0.000000000000000E+000  8.715574274765817E-002  6.536680706074363E-002
  4.357787137382908E-002  2.178893568691454E-002  0.000000000000000E+000
  8.715574274765817E-002  6.536680706074363E-002  4.357787137382908E-002
  2.178893568691454E-002  0.000000000000000E+000  8.715574274765817E-002
  6.536680706074363E-002  4.357787137382908E-002  2.178893568691454E-002
  0.000000000000000E+000
  0.713097558439439       0.957107993738891        1.08762514668722     
   1.15477079497862        1.02508940191030        1.43686155254217     
   1.66851960362543        1.78819327467980        1.18277625976669     
   1.67661057787725        1.96364477129923        2.11514701900939     
   1.24901689848794        1.77445218213904        2.08175009389403     
   2.24430956283638        1.27440877413855        1.81121265208877     
   2.12534085018220        2.29123708174779        1.28360645129072     
   1.82436045891757        2.14074631909766        2.30763531616689     
   1.28592278730352        1.82765190330509        2.14458123543460     
   2.31169556413634        1.28360645129072        1.82436045891757     
   2.14074631909766        2.30763531616689        1.27440877413855     
   1.81121265208877        2.12534085018220        2.29123708174779     
   1.24901689848794        1.77445218213904        2.08175009389403     
   2.24430956283638        1.18277625976669        1.67661057787725     
   1.96364477129923        2.11514701900940        1.02508940191030     
   1.43686155254217        1.66851960362543        1.78819327467980     
  0.713097558439439       0.957107993738891        1.08762514668722     
   1.15477079497862     
 Zone I=   20 J=   14 K=1  T="NearWake"
 DATAPACKING=BLOCK
 VARLOCATION=([4]=CELLCENTERED)
  -4.67528539764312       -4.42528539764312       -4.17478279521570     
  -3.92430960526108       -3.67386771720111       -3.42345418363641     
  -3.17313301111739       -2.92289743686532       -2.67279886445620     
  -2.42286291963914       -2.17314734761534       -1.92371345999426     
  -1.67464917692841       -1.42606181415660       -1.17808010257043     
 -0.930820823728480      -0.684258411372046      -0.437782608206585     
 -0.183047219686299       4.924279654639460E-002  -4.67528539764312     
  -4.42528539764312       -4.17571633284748       -3.92552330331440     
  -3.67551013983400       -3.42534449063200       -3.17526207963833     
  -2.92516382550347       -2.67513842214036       -2.42516119267420     
  -2.17527388553328       -1.92547295832279       -1.67576645760016     
  -1.42610680093585       -1.17634468358825      -0.926002988366008     
 -0.673561532029729      -0.413239214283390      -0.111240042882986     
  4.801717488986885E-002  -4.67528539764312       -4.42528539764312     
  -4.17635541297613       -3.92669443291398       -3.67727008693549     
  -3.42762391619251       -3.17803908262714       -2.92837874073572     
  -2.67873565273418       -2.42906036002846       -2.17937378658009     
  -1.92963056236457       -1.67977740614309       -1.42966271185420     
  -1.17895778495970      -0.926839818331557      -0.671017118441885     
 -0.403708757447933      -7.119510213407217E-002  2.209708687683579E-002
  -4.67528539764312       -4.42528539764312       -4.17635013451565     
  -3.92667055524934       -3.67722752835582       -3.42754812813888     
  -3.17792291892784       -2.92819986512837       -2.67847233639121     
  -2.42867723131035       -2.17882906529752       -1.92886781517902     
  -1.67872749187705       -1.42823834241558       -1.17704989849340     
 -0.924299444665489      -0.667594255133497      -0.398834870758259     
 -6.086532759160240E-002  1.467646760473530E-002  -4.67528539764312     
  -4.42528539764312       -4.17633533736497       -3.92662964319528     
  -3.67716010047397       -3.42744516900411       -3.17778488602733     
  -2.92802060831699       -2.67825086229908       -2.42840946786864     
  -2.17851357348002       -1.92850232459024       -1.67831104241230     
  -1.42776914134678       -1.17652389947915      -0.923704172197713     
 -0.666894522510110      -0.397926707870208      -5.894654280442749E-002
  1.262012499561428E-002  -4.67528539764312       -4.42528539764312     
  -4.17632892266794       -3.92661108775066       -3.67713107852362     
  -3.42740185369468       -3.17772915247558       -2.92795111740805     
  -2.67816907163889       -2.42831556197380       -2.17840885724222     
  -1.92838757561433       -1.67818717620386       -1.42763633687078     
  -1.17638123889325      -0.923548187645052      -0.666716137292087     
 -0.397700730223714      -5.848635703808572E-002  1.210622143601955E-002
  -4.67528539764312       -4.42528539764312       -4.17632708919436     
  -3.92660513736608       -3.67712208107788       -3.42738844899027     
  -3.17771222693319       -2.92793028381558       -2.67814491652039     
  -2.42828817216321       -2.17837863945856       -1.92835470891167     
  -1.67815183402250       -1.42759843959442       -1.17634038519216     
 -0.923503292005714      -0.666664649400208      -0.397635863414553     
 -5.835700172692374E-002  1.197533680946232E-002  -4.67528539764312     
  -4.42528539764312       -4.17632708919436       -3.92660513736608     
  -3.67712208107788       -3.42738844899027       -3.17771222693319     
  -2.92793028381558       -2.67814491652039       -2.42828817216321     
  -2.17837863945856       -1.92835470891167       -1.67815183402250     
  -1.42759843959442       -1.17634038519216      -0.923503292005714     
 -0.666664649400208      -0.397635863414553      -5.835700172692387E-002
  1.197533680946236E-002  -4.67528539764312       -4.42528539764312     
  -4.17632892266794       -3.92661108775066       -3.67713107852362     
  -3.42740185369468       -3.17772915247558       -2.92795111740805     
  -2.67816907163889       -2.42831556197380       -2.17840885724222     
  -1.92838757561433       -1.67818717620386       -1.42763633687078     
  -1.17638123889325      -0.923548187645052      -0.666716137292087     
 -0.397700730223714      -5.848635703808569E-002  1.210622143601956E-002
  -4.67528539764312       -4.42528539764312       -4.17633533736497     
  -3.92662964319528       -3.67716010047397       -3.42744516900411     
  -3.17778488602733       -2.92802060831699       -2.67825086229908     
  -2.42840946786864       -2.17851357348002       -1.92850232459024     
  -1.67831104241230       -1.42776914134678       -1.17652389947915     
 -0.923704172197713      -0.666894522510110      -0.397926707870208     
 -5.894654280442755E-002  1.262012499561425E-002  -4.67528539764312     
  -4.42528539764312       -4.17635013451565       -3.92667055524934     
  -3.67722752835582       -3.42754812813888       -3.17792291892784     
  -2.92819986512837       -2.67847233639121       -2.42867723131035     
  -2.17882906529752       -1.92886781517902       -1.67872749187705     
  -1.42823834241558       -1.17704989849340      -0.924299444665489     
 -0.667594255133496      -0.398834870758259      -6.086532759160260E-002
  1.467646760473523E-002  -4.67528539764312       -4.42528539764312     
  -4.17635541297613       -3.92669443291398       -3.67727008693549     
  -3.42762391619251       -3.17803908262714       -2.92837874073572     
  -2.67873565273418       -2.42906036002846       -2.17937378658009     
  -1.92963056236457       -1.67977740614309       -1.42966271185420     
  -1.17895778495970      -0.926839818331557      -0.671017118441885     
 -0.403708757447933      -7.119510213407222E-002  2.209708687683556E-002
  -4.67528539764312       -4.42528539764312       -4.17571633284748     
  -3.92552330331440       -3.67551013983400       -3.42534449063200     
  -3.17526207963833       -2.92516382550347       -2.67513842214036     
  -2.42516119267420       -2.17527388553329       -1.92547295832279     
  -1.67576645760016       -1.42610680093585       -1.17634468358825     
 -0.926002988366008      -0.673561532029728      -0.413239214283390     
 -0.111240042882987       4.801717488986809E-002  -4.67528539764312     
  -4.42528539764312       -4.17478279521570       -3.92430960526108     
  -3.67386771720111       -3.42345418363641       -3.17313301111739     
  -2.92289743686532       -2.67279886445620       -2.42286291963914     
  -2.17314734761534       -1.92371345999426       -1.67464917692841     
  -1.42606181415660       -1.17808010257042      -0.930820823728480     
 -0.684258411372046      -0.437782608206586      -0.183047219686300     
  4.924279654639538E-002
  0.000000000000000E+000  0.000000000000000E+000  5.613528190168917E-004
  2.060402509276880E-003  3.869314616084427E-003  6.392761452580924E-003
  9.305804434431644E-003  1.267713424066993E-002  1.632404110105209E-002
  2.016263477203925E-002  2.401863006113535E-002  2.771574797667298E-002
  3.102214346838061E-002  3.366601759326970E-002  3.533359482383375E-002
  3.574529844369558E-002  3.482451988135911E-002  3.451074200223445E-002
  2.096567285871352E-002  2.873518167443941E-002  0.290581825739480     
  0.290581825739480       0.291198682890909       0.287918467979017     
  0.285525788850610       0.280622840011605       0.275489077855086     
  0.269055751931621       0.262130559263343       0.254575322559615     
  0.246796154317053       0.238998758982195       0.231593137213964     
  0.225049051405447       0.220071099988027       0.217736187904974     
  0.220060141928607       0.231565440765357       0.251071794915504     
  0.306010269907595        1.14543974346790        1.14543974346790     
   1.14567840933576        1.14541778448923        1.14555086727703     
   1.14538249564277        1.14532876704743        1.14517282321457     
   1.14504102957161        1.14488231367377        1.14474448332748     
   1.14463266523626        1.14458500734087        1.14463728725810     
   1.14484303317223        1.14527167327476        1.14605198481357     
   1.14746901645900        1.14817129780555        1.15227299171363     
   2.51489251828899        2.51489251828899        2.51498450031233     
   2.51491774737976        2.51499370583957        2.51498245332807     
   2.51501837063844        2.51503336151648        2.51506462740867     
   2.51509513599605        2.51513531332994        2.51518160020350     
   2.51523700711300        2.51530093905317        2.51537468763332     
   2.51546170565599        2.51557877469349        2.51576993421063     
   2.51566827199947        2.51663393672973        4.31935253268844     
   4.31935253268844        4.31939009367049        4.31937176913653     
   4.31940334178810        4.31940591083799        4.31942412033229     
   4.31943549917694        4.31945129312309        4.31946565901041     
   4.31948103338169        4.31949571226985        4.31950995592069     
   4.31952318126137        4.31953552540104        4.31954775189415     
   4.31956349637667        4.31959184590681        4.31954301073020     
   4.31982406978246        6.45395112957464        6.45395112957464     
   6.45396568521292        6.45396034332254        6.45397195308629     
   6.45397352611394        6.45397998513160        6.45398390262740     
   6.45398887768484        6.45399303941516        6.45399714662580     
   6.45400069926847        6.45400381933387        6.45400639534829     
   6.45400853764872        6.45401052866878        6.45401344269126     
   6.45401990088954        6.45400323716019        6.45410112011688     
   8.79463319744677        8.79463319744677        8.79463697734012     
   8.79463574939276        8.79463865252862        8.79463906054982     
   8.79464060541336        8.79464149776062        8.79464260313477     
   8.79464348337350        8.79464432528182        8.79464502105096     
   8.79464560924044        8.79464607421431        8.79464645072740     
   8.79464681153021        8.79464741157581        8.79464887283104     
   8.79464490709246        8.79466973607066        11.2053668025532     
   11.2053668025532        11.2053630226599        11.2053642506072     
   11.2053613474714        11.2053609394502        11.2053593945866     
   11.2053585022394        11.2053573968652        11.2053565166265     
   11.2053556747182        11.2053549789490        11.2053543907596     
   11.2053539257857        11.2053535492726        11.2053531884698     
   11.2053525884242        11.2053511271690        11.2053550929075     
   11.2053302639293        13.5460488704254        13.5460488704254     
   13.5460343147871        13.5460396566775        13.5460280469137     
   13.5460264738861        13.5460200148684        13.5460160973726     
   13.5460111223152        13.5460069605848        13.5460028533742     
   13.5459993007315        13.5459961806661        13.5459936046517     
   13.5459914623513        13.5459894713312        13.5459865573087     
   13.5459800991105        13.5459967628398        13.5458988798831     
   15.6806474673116        15.6806474673116        15.6806099063295     
   15.6806282308635        15.6805966582119        15.6805940891620     
   15.6805758796677        15.6805645008231        15.6805487068769     
   15.6805343409896        15.6805189666183        15.6805042877302     
   15.6804900440793        15.6804768187386        15.6804644745990     
   15.6804522481058        15.6804365036233        15.6804081540932     
   15.6804569892698        15.6801759302175        17.4851074817110     
   17.4851074817110        17.4850154996877        17.4850822526202     
   17.4850062941604        17.4850175466719        17.4849816293616     
   17.4849666384835        17.4849353725913        17.4849048640039     
   17.4848646866701        17.4848183997965        17.4847629928870     
   17.4846990609468        17.4846253123667        17.4845382943440     
   17.4844212253065        17.4842300657894        17.4843317280005     
   17.4833660632703        18.8545602565321        18.8545602565321     
   18.8543215906642        18.8545822155108        18.8544491327230     
   18.8546175043572        18.8546712329526        18.8548271767854     
   18.8549589704284        18.8551176863262        18.8552555166725     
   18.8553673347637        18.8554149926591        18.8553627127419     
   18.8551569668278        18.8547283267252        18.8539480151864     
   18.8525309835410        18.8518287021944        18.8477270082864     
   19.7094181742605        19.7094181742605        19.7088013171091     
   19.7120815320210        19.7144742111494        19.7193771599884     
   19.7245109221449        19.7309442480684        19.7378694407367     
   19.7454246774404        19.7532038456829        19.7610012410178     
   19.7684068627860        19.7749509485945        19.7799289000120     
   19.7822638120950        19.7799398580714        19.7684345592346     
   19.7489282050845        19.6939897300924        20.0000000000000     
   20.0000000000000        19.9994386471810        19.9979395974907     
   19.9961306853839        19.9936072385474        19.9906941955656     
   19.9873228657593        19.9836759588989        19.9798373652280     
   19.9759813699389        19.9722842520233        19.9689778565316     
   19.9663339824067        19.9646664051762        19.9642547015563     
   19.9651754801186        19.9654892579978        19.9790343271413     
   19.9712648183256     
 -6.536680706074363E-003 -6.536680706074363E-003  7.002381659309371E-004
  4.966204667337162E-003  1.079363232000565E-002  1.559795389652131E-002
  2.038472644755847E-002  2.441815032535614E-002  2.784042799282128E-002
  3.036556193363197E-002  3.191143898311884E-002  3.228105179499133E-002
  3.130179000415620E-002  2.874023798982228E-002  2.431260077795696E-002
  1.764544837678886E-002  8.096805643891765E-003 -6.476055775144278E-003
 -2.511163079545804E-002  5.080958968438473E-002 -6.536680706074363E-003
 -6.536680706074363E-003 -3.613253334901441E-002 -4.921687339699918E-002
 -6.948735821843237E-002 -8.498736475387832E-002 -0.101925731157403     
 -0.117078093300075      -0.132133946620176      -0.146215454611049     
 -0.159810857610215      -0.172722426313977      -0.185140247285031     
 -0.197071606790725      -0.208582425244490      -0.219513311637156     
 -0.229026036792624      -0.233800203284286      -0.213421255210515     
 -1.846419926452193E-002 -6.536680706074363E-003 -6.536680706074363E-003
 -2.759085128581232E-002 -3.603215499545704E-002 -4.959712516583595E-002
 -5.985876726983892E-002 -7.131695749364496E-002 -8.190920968835527E-002
 -9.281976123786216E-002 -0.103583024820711      -0.114553209695397     
 -0.125672178692846      -0.137090314368833      -0.148842636014713     
 -0.160961834391784      -0.173236987085099      -0.184664970437075     
 -0.190767019595217      -0.170806081704019       4.686650917057214E-002
 -6.536680706074363E-003 -6.536680706074363E-003 -2.605712276930642E-002
 -3.327813293398788E-002 -4.522442374319002E-002 -5.392949315204668E-002
 -6.375234296574736E-002 -7.276387970349579E-002 -8.213717568284426E-002
 -9.145846105821306E-002 -0.101097644798009      -0.111022613877426     
 -0.121393874269695      -0.132243461848422      -0.143569484018418     
 -0.155071933289510      -0.165560930571309      -0.170136078522543     
 -0.146352100830627       7.275503691153068E-002 -6.536680706074363E-003
 -6.536680706074363E-003 -2.556655584760652E-002 -3.235948858087877E-002
 -4.374154308280767E-002 -5.188047361614206E-002 -6.110025202187520E-002
 -6.950990501540448E-002 -7.828170651511368E-002 -8.701528667420928E-002
 -9.608401388259542E-002 -0.105460193033362      -0.115304967468836     
 -0.125649368386784      -0.136488635473586      -0.147518689649096     
 -0.157543765967717      -0.161640291593456      -0.137034269074442     
  8.211012250823724E-002 -6.536680706074363E-003 -6.536680706074363E-003
 -2.539011683771254E-002 -3.202856064334494E-002 -4.320685471251692E-002
 -5.113997834393987E-002 -6.013890304556791E-002 -6.832568326663145E-002
 -7.687208125420736E-002 -8.538253058191289E-002 -9.423217835556212E-002
 -0.103396061725739      -0.113037478393269      -0.123189834361359     
 -0.133850741588879      -0.144718354893001      -0.154598145860865     
 -0.158562024980742      -0.133747488823061       8.539677079266277E-002
 -6.536680706074363E-003 -6.536680706074363E-003 -2.532948596253747E-002
 -3.191597675119662E-002 -4.302567203111048E-002 -5.089001920721308E-002
 -5.981521933725739E-002 -6.792783747454700E-002 -7.639938066917609E-002
 -8.483597263968724E-002 -9.361340078284866E-002 -0.102707704716000     
 -0.112282959241540      -0.122373380562310      -0.132977298099487     
 -0.143793430259662      -0.153627370637305      -0.157549371115006     
 -0.132672389758438       8.647636029067648E-002 -6.536680706074363E-003
 -6.536680706074363E-003 -2.532948596253753E-002 -3.191597675119668E-002
 -4.302567203111047E-002 -5.089001920721316E-002 -5.981521933725739E-002
 -6.792783747454699E-002 -7.639938066917620E-002 -8.483597263968734E-002
 -9.361340078284858E-002 -0.102707704716000      -0.112282959241540     
 -0.122373380562310      -0.132977298099487      -0.143793430259662     
 -0.153627370637305      -0.157549371115006      -0.132672389758438     
  8.647636029067654E-002 -6.536680706074363E-003 -6.536680706074363E-003
 -2.539011683771254E-002 -3.202856064334497E-002 -4.320685471251692E-002
 -5.113997834393987E-002 -6.013890304556796E-002 -6.832568326663156E-002
 -7.687208125420733E-002 -8.538253058191286E-002 -9.423217835556218E-002
 -0.103396061725739      -0.113037478393269      -0.123189834361359     
 -0.133850741588879      -0.144718354893001      -0.154598145860865     
 -0.158562024980742      -0.133747488823061       8.539677079266278E-002
 -6.536680706074363E-003 -6.536680706074363E-003 -2.556655584760657E-002
 -3.235948858087875E-002 -4.374154308280759E-002 -5.188047361614198E-002
 -6.110025202187544E-002 -6.950990501540465E-002 -7.828170651511357E-002
 -8.701528667420923E-002 -9.608401388259567E-002 -0.105460193033362     
 -0.115304967468835      -0.125649368386784      -0.136488635473586     
 -0.147518689649096      -0.157543765967717      -0.161640291593457     
 -0.137034269074442       8.211012250823729E-002 -6.536680706074363E-003
 -6.536680706074363E-003 -2.605712276930644E-002 -3.327813293398787E-002
 -4.522442374319004E-002 -5.392949315204675E-002 -6.375234296574755E-002
 -7.276387970349590E-002 -8.213717568284420E-002 -9.145846105821315E-002
 -0.101097644798009      -0.111022613877426      -0.121393874269695     
 -0.132243461848422      -0.143569484018418      -0.155071933289510     
 -0.165560930571309      -0.170136078522543      -0.146352100830627     
  7.275503691153083E-002 -6.536680706074363E-003 -6.536680706074363E-003
 -2.759085128581230E-002 -3.603215499545707E-002 -4.959712516583602E-002
 -5.985876726983889E-002 -7.131695749364493E-002 -8.190920968835524E-002
 -9.281976123786205E-002 -0.103583024820711      -0.114553209695397     
 -0.125672178692846      -0.137090314368833      -0.148842636014713     
 -0.160961834391784      -0.173236987085099      -0.184664970437076     
 -0.190767019595217      -0.170806081704019       4.686650917057240E-002
 -6.536680706074363E-003 -6.536680706074363E-003 -3.613253334901448E-002
 -4.921687339699927E-002 -6.948735821843244E-002 -8.498736475387800E-002
 -0.101925731157403      -0.117078093300075      -0.132133946620176     
 -0.146215454611049      -0.159810857610214      -0.172722426313976     
 -0.185140247285031      -0.197071606790724      -0.208582425244491     
 -0.219513311637157      -0.229026036792625      -0.233800203284287     
 -0.213421255210515      -1.846419926452148E-002 -6.536680706074363E-003
 -6.536680706074363E-003  7.002381659309623E-004  4.966204667337196E-003
  1.079363232000573E-002  1.559795389652122E-002  2.038472644755825E-002
  2.441815032535603E-002  2.784042799282110E-002  3.036556193363169E-002
  3.191143898311861E-002  3.228105179499091E-002  3.130179000415603E-002
  2.874023798982229E-002  2.431260077795714E-002  1.764544837678927E-002
  8.096805643892771E-003 -6.476055775144127E-003 -2.511163079545831E-002
  5.080958968438503E-002
   1.15477079497862        1.14907788096641        1.14276104921375     
   1.13572176412294        1.12784020016942        1.11896915097763     
   1.10892567638957        1.09747943126000        1.08433596959880     
   1.06911226722641        1.05129973883409        1.03020640715806     
   1.00486259147205       0.973858434038998       0.935043765751740     
  0.884911471366558       0.817122145994892       0.717952076931788     
  0.545687230928579        1.78819327467980        1.77851323084742     
   1.76774687130842        1.75571938109035        1.74221765493717     
   1.72697924614805        1.70967718973379        1.68989876312098     
   1.66711504942870        1.64063624387196        1.60954396139755     
   1.57258527955507        1.52799981794014        1.47322374154820     
   1.40435192360063        1.31507668024105        1.19436106594707     
   1.02014754055350       0.735561100336828        2.11514701900939     
   2.10144228339342        2.08617081947623        2.06908215631870     
   2.04987278178874        2.02817178256332        2.00352160552806     
   1.97535191638772        1.94294337235398        1.90537647195558     
   1.86145722279845        1.80960608475144        1.74768437980462     
   1.67270957966126        1.58035263084665        1.46395879974757     
   1.31238267385890        1.10391394579400       0.782326100572016     
   2.24430956283638        2.22731385359648        2.20843305002443     
   2.18738471869599        2.16383148377253        2.13736731139958     
   2.10749934788512        2.07362347682979        2.03499061728117     
   1.99065925364340        1.93942615290331        1.87972219649234     
   1.80944735323888        1.72569643953580        1.62426711239531     
   1.49868926620788        1.33806052524169        1.12094440580768     
  0.791278928221502        2.29123708174779        2.27226609673353     
   2.25129218411635        2.22803175318206        2.20214805155541     
   2.17323793467846        2.14081425119516        2.10428200377187     
   2.06290527298872        2.01576037746364        1.96166712793758     
   1.89908508255534        1.82594861530297        1.73939243491094     
   1.63525863329197        1.50712425988876        1.34413341106689     
   1.12488759619166       0.793323245359819        2.30763531616689     
   2.28776550886683        2.26586620772044        2.24165670248486     
   2.21480380361687        2.18490866014730        2.15148918053293     
   2.11395621316765        2.07158046516018        2.02344563356405     
   1.96837959004969        1.90485053854391        1.83080192530550     
   1.74337776595346        1.63842940476177        1.50954269403987     
   1.34586936362122        1.12601564997301       0.793911270808085     
   2.31169556413634        2.29157900258208        2.26942934601453     
   2.24496685122837        2.21785941458911        2.18770938772441     