 Title = "Wing and Wake"
 VARIABLES = "X" "Y" "Z" "GAM"
 Zone I=    5 J=   14 K=1  T="Blade"
 DATAPACKING=BLOCK
 VARLOCATION=([4]=CELLCENTERED)
  -9.49619469809175       -9.24714602356881       -8.99809734904587     
  -8.74904867452294       -8.50000000000000       -9.49619469809175     
  -9.24714602356881       -8.99809734904587       -8.74904867452294     
  -8.50000000000000       -9.49619469809175       -9.24714602356881     
  -8.99809734904587       -8.74904867452294       -8.50000000000000     
  -9.49619469809175       -9.24714602356881       -8.99809734904587     
  -8.74904867452294       -8.50000000000000       -9.49619469809175     
  -9.24714602356881       -8.99809734904587       -8.74904867452294     
  -8.50000000000000       -9.49619469809175       -9.24714602356881     
  -8.99809734904587       -8.74904867452294       -8.50000000000000     
  -9.49619469809175       -9.24714602356881       -8.99809734904587     
  -8.74904867452294       -8.50000000000000       -9.49619469809175     
  -9.24714602356881       -8.99809734904587       -8.74904867452294     
  -8.50000000000000       -9.49619469809175       -9.24714602356881     
  -8.99809734904587       -8.74904867452294       -8.50000000000000     
  -9.49619469809175       -9.24714602356881       -8.99809734904587     
  -8.74904867452294       -8.50000000000000       -9.49619469809175     
  -9.24714602356881       -8.99809734904587       -8.74904867452294     
  -8.50000000000000       -9.49619469809175       -9.24714602356881     
  -8.99809734904587       -8.74904867452294       -8.50000000000000     
  -9.49619469809175       -9.24714602356881       -8.99809734904587     
  -8.74904867452294       -8.50000000000000       -9.49619469809175     
  -9.24714602356881       -8.99809734904587       -8.74904867452294     
  -8.50000000000000     
  0.000000000000000E+000  0.000000000000000E+000  0.000000000000000E+000
  0.000000000000000E+000  0.000000000000000E+000  0.290581825739480     
  0.290581825739480       0.290581825739480       0.290581825739480     
  0.290581825739480        1.14543974346790        1.14543974346790     
   1.14543974346790        1.14543974346790        1.14543974346790     
   2.51489251828899        2.51489251828899        2.51489251828899     
   2.51489251828899        2.51489251828899        4.31935253268844     
   4.31935253268844        4.31935253268844        4.31935253268844     
   4.31935253268844        6.45395112957464        6.45395112957464     
   6.45395112957464        6.45395112957464        6.45395112957464     
   8.79463319744677        8.79463319744677        8.79463319744677     
   8.79463319744677        8.79463319744677        11.2053668025532     
   11.2053668025532        11.2053668025532        11.2053668025532     
   11.2053668025532        13.5460488704254        13.5460488704254     
   13.5460488704254        13.5460488704254        13.5460488704254     
   15.6806474673116        15.6806474673116        15.6806474673116     
   15.6806474673116        15.6806474673116        17.4851074817110     
   17.4851074817110        17.4851074817110        17.4851074817110     
   17.4851074817110        18.8545602565321        18.8545602565321     
   18.8545602565321        18.8545602565321        18.8545602565321     
   19.7094181742605        19.7094181742605        19.7094181742605     
   19.7094181742605        19.7094181742605        20.0000000000000     
   20.0000000000000        20.0000000000000        20.0000000000000     
   20.0000000000000     
  8.715574274765817E-002  6.536680706074363E-002  4.357787137382908E-002
  2.178893568691454E-002  0.000000000000000E+000  8.715574274765817E-002
  6.536680706074363E-002  4.357787137382908E-002  2.178893568691454E-002
  0.000000000000000E+000  8.715574274765817E-002  6.536680706074363E-002
  4.357787137382908E-002  2.178893568691454E-002  0.000000000000000E+000
  8.715574274765817E-002  6.536680706074363E-002  4.357787137382908E-002
  2.178893568691454E-002  0.000000000000000E+000  8.715574274765817E-002
  6.536680706074363E-002  4.357787137382908E-002  2.178893568691454E-002
  0.000000000000000E+000  8.715574274765817E-002  6.536680706074363E-002
  4.357787137382908E-002  2.178893568691454E-002  0.000000000000000E+000
  8.715574274765817E-002  6.536680706074363E-002  4.357787137382908E-002
  2.178893568691454E-002  0.000000000000000E+000  8.715574274765817E-002
  6.536680706074363E-002  4.357787137382908E-002  2.178893568691454E-002
  0.000000000000000E+000  8.715574274765817E-002  6.536680706074363E-002
  4.357787137382908E-002  2.178893568691454E-002  0.000000000000000E+000
  8.715574274765817E-002  6.536680706074363E-002  4.357787137382908E-002
  2.178893568691454E-002  0.000000000000000E+000  8.715574274765817E-002
  6.536680706074363E-002  4.357787137382908E-002  2.178893568691454E-002
  0.000000000000000E+000  8.715574274765817E-002  6.536680706074363E-002
  4.357787137382908E-002  2.178893568691454E-002  0.000000000000000E+000
  8.715574274765817E-002  6.536680706074363E-002  4.357787137382908E-002
  2.178893568691454E-002  0.000000000000000E+000  8.715574274765817E-002
  6.536680706074363E-002  4.357787137382908E-002  2.178893568691454E-002
  0.000000000000000E+000
  0.743888983103566        1.00068052983968        1.13960611490302     
   1.21242522201417        1.07293171201539        1.50686929339191     
   1.75337364959713        1.88292262159310        1.24632092250026     
   1.77044785253116        2.07827540669151        2.24396374832348     
   1.32677512601636        1.88954194000810        2.22264698434792     
   2.40296623239187        1.36288214873835        1.94210857839037     
   2.28547964362214        2.47137719517081        1.37821749174952     
   1.96420036125457        2.31162233615383        2.49956904591096     
   1.38243688130219        1.97024726527482        2.31874244523742     
   2.50721144505016        1.37813346371448        1.96408338088111     
   2.31149284486015        2.49944827278080        1.36276572257645     
   1.94194456059164        2.28529573256875        2.47120303572563     
   1.32670474210025        1.88943901214902        2.22252701980973     
   2.40284736344082        1.24634132579443        1.77046907918695     
   2.07829033531169        2.24396756290261        1.07302079913940     
   1.50698447280999        1.75349195411385        1.88302293753506     
  0.743975865687308        1.00078914039854        1.13971916367924     
   1.21252706051263     
 Zone I=   31 J=   14 K=1  T="NearWake"
 DATAPACKING=BLOCK
 VARLOCATION=([4]=CELLCENTERED)
  -8.42528539764312       -8.17528539764312       -7.92496863161561     
  -7.67458676826686       -7.42371533639365       -7.17269533690391     
  -6.92240897172203       -6.67179661291453       -6.42127881496407     
  -6.17077029840480       -5.92029189710068       -5.66986040625468     
  -5.41947142177144       -5.16914381313755       -4.91888284648324     
  -4.66870648560670       -4.41862976377000       -4.16867514494476     
  -3.91886797271505       -3.66924074720125       -3.41983305704773     
  -3.17069453443465       -2.92188700928819       -2.67348800224055     
  -2.42559433197574       -2.17832578943853       -1.93182665656867     
  -1.68626034342316       -1.44178441277409       -1.19845356387736     
 -0.956261982306099       -8.42528539764312       -8.17528539764312     
  -7.92550595429922       -7.67555515385251       -7.42484238109400     
  -7.17494218311189       -6.92432897680292       -6.67408421626992     
  -6.42362524390001       -6.17326487744834       -5.92285726172690     
  -5.67248343512083       -5.42210813136406       -5.17175873304562     
  -4.92142875586232       -4.67113112046057       -4.42086920928294     
  -4.17065296937816       -3.92049063282973       -3.67039388183212     
  -3.42037558467429       -3.17045173020348       -2.92064084606686     
  -2.67096455538394       -2.42144592242586       -2.17210581267214     
  -1.92295109447023       -1.67394304976083       -1.42491796193304     
  -1.17546698689663      -0.924478125398380       -8.42528539764312     
  -8.17528539764312       -7.92592338628648       -7.67660145056923     
  -7.42661665730053       -7.17779573319792       -6.92768511198246     
  -6.67809873559171       -6.42823273804938       -6.17847760178977     
  -5.92864855718854       -5.67884437926642       -5.42902002770475     
  -5.17920498008908       -4.92938964424883       -4.67958547802355     
  -4.42979269239112       -4.18001772593963       -3.93026341318956     
  -3.68053403160416       -3.43083166657779       -3.18115681719543     
  -2.93150538286771       -2.68186549749021       -2.43221020044690     
  -2.18248422834101       -1.93257754697365       -1.68227145133395     
  -1.43112462820377       -1.17823450342992      -0.921229946479483     
  -8.42528539764312       -8.17528539764312       -7.92593693530262     
  -7.67662476605626       -7.42662748652497       -7.17783056348118     
  -6.92773416303505       -6.67816820029913       -6.42832675196454     
  -6.17859354006086       -5.92878624846711       -5.67900157551006     
  -5.42919337525864       -5.17938948125176       -4.92957761307034     
  -4.67976654291770       -4.42995258138827       -4.18013783657195     
  -3.93031951553685       -3.68049520154311       -3.43065858302853     
  -3.18079986659457       -2.93090214087665       -2.68093775694395     
  -2.43086034049562       -2.18059108367069       -1.92999172273029     
  -1.67880998579584       -1.42656429112351       -1.17230308472992     
 -0.913154372929527       -8.42528539764312       -8.17528539764312     
  -7.92593875615265       -7.67661459361999       -7.42660374062563     
  -7.17778946709523       -6.92767437461993       -6.67808775209564     
  -6.42822701363873       -6.17847302453746       -5.92864362756843     
  -5.67883495700573       -5.42899982191539       -5.17916577119773     
  -4.92931937890618       -4.67946887448953       -4.42960950166080     
  -4.17974261996163       -3.92986448451237       -3.67997194712981     
  -3.43005802776214       -3.18011258041113       -2.93011869574758     
  -2.68004925794436       -2.42985905687862       -2.17947110364849     
  -1.92874938053472       -1.67744354941825       -1.42507217648611     
  -1.17068095376545      -0.911264634886916       -8.42528539764312     
  -8.17528539764312       -7.92594036905484       -7.67660796017152     
  -7.42659203566367       -7.17776271550724       -6.92763737879928     
  -6.67803682859408       -6.42816246756118       -6.17839410217887     
  -5.92854950211642       -5.67872521740827       -5.42887355090700     
  -5.17902243882504       -4.92915817364331       -4.67928923107306     
  -4.42941081301432       -4.17952450464091       -3.92962671313650     
  -3.67971458890238       -3.42978146438383       -3.17981758820777     
  -2.92980645926147       -2.67972136946715       -2.42951743247258     
  -2.17911780191307       -1.92838624827868       -1.67707161158551     
  -1.42469068858000       -1.17028623645461      -0.910816114287809     
  -8.42528539764312       -8.17528539764312       -7.92594102092868     
  -7.67660435796156       -7.42658658178353       -7.17774965988276     
  -6.92762048330895       -6.67801398601526       -6.42813390390431     
  -6.17835963151447       -5.92850889126798       -5.67867855703082     
  -5.42882073027088       -5.17896360714586       -4.92909340563890     
  -4.67921876295027       -4.42933489819446       -4.17944350942469     
  -3.92954106127002       -3.67962479112378       -3.42968809034635     
  -3.17972126130848       -2.92970782507964       -2.67962106190851     
  -2.42941601870755       -2.17901570887521       -1.92828365539148     
  -1.67696829581644       -1.42458580238691       -1.17017807833965     
 -0.910693175062222       -8.42528539764312       -8.17528539764312     
  -7.92594058811524       -7.67660335251004       -7.42658494310369     
  -7.17774784359317       -6.92761845816947       -6.67801174406763     
  -6.42813142916583       -6.17835690832106       -5.92850590298535     
  -5.67867528678311       -5.42881716111763       -5.17895972237165     
  -4.92908918905511       -4.67921419922962       -4.42932997324022     
  -4.17943821077649       -3.92953537853506       -3.67961871643220     
  -3.42968161881353       -3.17971439149429       -2.92970055942364     
  -2.67961340712305       -2.42940798610499       -2.17900731460709     
  -1.92827492057668       -1.67695924653951       -1.42457646955786     
  -1.17016849742412      -0.910683385810579       -8.42528539764312     
  -8.17528539764312       -7.92593933380539       -7.67660551610613     
  -7.42658799151673       -7.17775816077570       -6.92763221726872     
  -6.67803102157349       -6.42815595303874       -6.17838681468683     
  -5.92854136987389       -5.67871616339562       -5.42886349319548     
  -5.17901129095722       -4.92914584531286       -4.67927562899757     
  -4.42939584215643       -4.17950806982056       -3.92960872108179     
  -3.67969495081119       -3.42976009900241       -3.17979442544587     
  -2.92978144428375       -2.67969446716802       -2.42948863214962     
  -2.17908712188585       -1.92835374010538       -1.67703736347156     
  -1.42465482754917       -1.17024892889360      -0.910777564948420     
  -8.42528539764312       -8.17528539764312       -7.92593785114585     
  -7.67661237556155       -7.42659992738487       -7.17778500133001     
  -6.92766911622295       -6.67808161960043       -6.42821989224867     
  -6.17846478172814       -5.92863411076421       -5.67882398994897     
  -5.42898720237836       -5.17915126659699       -4.92930272233489     
  -4.67944975986354       -4.42958757880153       -4.17971748955967     
  -3.92983569349181       -3.67993898506849       -3.43002032535994     
  -3.18006951152360       -2.93006958500000       -2.67999339662248     
  -2.42979573027322       -2.17939963318782       -1.92866918335854     
  -1.67735421585028       -1.42497356174426       -1.17057327359571     
 -0.911148547505538       -8.42528539764312       -8.17528539764312     
  -7.92593691526290       -7.67662458058331       -7.42662690785328     
  -7.17782958232156       -6.92773267754226       -6.67816613920656     
  -6.42832402409852       -6.17859002857478       -5.92878181586556     
  -5.67899605245413       -5.42918655680206       -5.17938111513010     
  -4.92956738806296       -4.67975407118311       -4.42993737595265     
  -4.18011928017454       -3.93029681835473       -3.68046734261511     
  -3.43062422866289       -3.18075725559674       -2.93084892214772     
  -2.68087075897505       -2.43077524505498       -2.18048197063483     
  -1.92985045753582       -1.67862546173578       -1.42632167929481     
  -1.17198360819379      -0.912736843474223       -8.42528539764312     
  -8.17528539764312       -7.92592440554905       -7.67660372087324     
  -7.42662008729589       -7.17779918831215       -6.92768859174793     
  -6.67810222542730       -6.42823624331861       -6.17848111041381     
  -5.92865206352298       -5.67884787030906       -5.42902349053209     
  -5.17920839647093       -4.92939299228696       -4.67958872904306     
  -4.42979580974661       -4.18002066138868       -3.93026610276670     
  -3.68053638878046       -3.43083357226777       -3.18115810378905     
  -2.93150580843981       -2.68186470208065       -2.43220762807476     
  -2.18247897693488       -1.93256805657883       -1.68225479575430     
  -1.43109471078846       -1.17817677716329      -0.921103229949782     
  -8.42528539764312       -8.17528539764312       -7.92550749786608     
  -7.67555892375899       -7.42484849375828       -7.17494849530374     
  -6.92433569243208       -6.67409133709562       -6.42363286145548     
  -6.17327305386968       -5.92286610302177       -5.67249305658460     
  -5.42211868593327       -5.17177040700916       -4.92144178762562     
  -4.67114581182159       -4.42088594929310       -4.17067226249898     
  -3.92051314132445       -3.67042048487240       -3.42040746505060     
  -3.17049050153534       -2.92068874341756       -2.67102472461097     
  -2.42152286563637       -2.17220608385493       -1.92308439653863     
  -1.67412397277714       -1.42516871908083       -1.17582159035477     
 -0.924988719260342       -8.42528539764312       -8.17528539764312     
  -7.92497076500608       -7.67459143861206       -7.42372225901470     
  -7.17270275814266       -6.92241689005973       -6.67180509884155     
  -6.42128794366850       -6.17078016601259       -5.92030261529189     
  -5.66987211207760       -5.41948428125426       -5.16915803147090     
  -4.91889867855738       -4.66872425194901       -4.41864987154314     
  -4.16869811775790       -3.91889449251348       -3.66927171462035     
  -3.41986967951282       -3.17073845724488       -2.92194051418315     
  -2.67355431382618       -2.42567809914348       -2.17843385390361     
  -1.93196929165958       -1.68645324837005       -1.44205183560545     
  -1.19883276168681      -0.956806599096739     
  0.000000000000000E+000  0.000000000000000E+000  3.919475458676154E-004
  1.618241549911421E-003  2.297524316443262E-003  6.847584550658963E-003
  1.018128592055673E-002  1.441986934471122E-002  1.940570081927979E-002
  2.481515035044116E-002  3.084192010259331E-002  3.725609438207712E-002
  4.409365082710190E-002  5.122073461680932E-002  5.859072335425598E-002
  6.610251060591994E-002  7.367642435264279E-002  8.121475047967244E-002
  8.862197692865342E-002  9.579471755340864E-002  0.102626094594222     
  0.109002246833071       0.114801344617868       0.119889710512824     
  0.124117187688670       0.127310702292798       0.129263440785404     
  0.129729871022883       0.128380303058056       0.125058214512264     
  0.119243961970421       0.290581825739480       0.290581825739480     
  0.291054378415178       0.288424342364239       0.289587510274964     
  0.280070857204529       0.275230080430783       0.267740153021682     
  0.258565262566719       0.249278234361369       0.238290281255187     
  0.226908938227025       0.214538408261552       0.201694572296314     
  0.188298896609682       0.174596955283268       0.160674486000305     
  0.146707801338685       0.132834404441773       0.119215400188239     
  0.106004328368659       9.336321592866276E-002  8.145920628693568E-002
  7.047362983878051E-002  6.061279002491260E-002  5.212743696629740E-002
  4.534987380046631E-002  4.076942435655023E-002  3.917004648667165E-002
  4.197576095669405E-002  5.263173627104913E-002   1.14543974346790     
   1.14543974346790        1.14561069001415        1.14522448901746     
   1.14608174475750        1.14500980535565        1.14536147400986     
   1.14510115456499        1.14476648131798        1.14454260795981     
   1.14414699624302        1.14376748081210        1.14329987145198     
   1.14280287206427        1.14224722830111        1.14165204772299     
   1.14101284064509        1.14033990428776        1.13963876720741     
   1.13892110590780        1.13820002374918        1.13749377084433     
   1.13682553248405        1.13622589822417        1.13573495544603     
   1.13540620802504        1.13531091416286        1.13554352997630     
   1.13623735809525        1.13753975176979        1.13976185911548     
   2.51489251828899        2.51489251828899        2.51495537274063     
   2.51481908017533        2.51514479407749        2.51479960286406     
   2.51497557394745        2.51494373679223        2.51489473787083     
   2.51490431419175        2.51486623760334        2.51484793097368     
   2.51481370005058        2.51478398091095        2.51474948134389     
   2.51471672036871        2.51468445603441        2.51465590789674     
   2.51463252467101        2.51461722206236        2.51461275237069     
   2.51462249056877        2.51464988551945        2.51469842892299     
   2.51477126921394        2.51487117475794        2.51500012490384     
   2.51515849984755        2.51534684484491        2.51555666358564     
   2.51580620513317        4.31935253268844        4.31935253268844     
   4.31937674828343        4.31932304859100        4.31944764861804     
   4.31932210295680        4.31939542882905        4.31939170517709     
   4.31938179632264        4.31939739025252        4.31939686492217     
   4.31940589696463        4.31941111057212        4.31941993583935     
   4.31942888688003        4.31944005898797        4.31945272064099     
   4.31946755162892        4.31948447704647        4.31950371973221     
   4.31952523166720        4.31954892149756        4.31957446574007     
   4.31960130807928        4.31962858624870        4.31965523379649     
   4.31968000881153        4.31970141548131        4.31971819114703     
   4.31972695564495        4.31973068748433        6.45395112957464     
   6.45395112957464        6.45395972924739        6.45393830976118     
   6.45398453935227        6.45393937738719        6.45396873576731     
   6.45396971254007        6.45396815930667        6.45397674175132     
   6.45397949069985        6.45398601353325        6.45399129013058     
   6.45399795838260        6.45400466168595        6.45401202636809     
   6.45401966125526        6.45402765081374        6.45403580860207     
   6.45404404192817        6.45405216843630        6.45406000183591     
   6.45406730229668        6.45407378962683        6.45407913297217     
   6.45408299405349        6.45408504313700        6.45408493110871     
   6.45408240490362        6.45407659801717        6.45406834789803     
   8.79463319744677        8.79463319744677        8.79463390758921     
   8.79462658449437        8.79463721142352        8.79462590085366     
   8.79463375179425        8.79463436711309        8.79463426466018     
   8.79463684006933        8.79463790802730        8.79463994903849     
   8.79464166221920        8.79464370994542        8.79464573638402     
   8.79464788651396        8.79465005031441        8.79465223700057     
   8.79465439045099        8.79465647983377        8.79465845552843     
   8.79466027070343        8.79466186999034        8.79466319305365     
   8.79466417224137        8.79466474254578        8.79466484465892     
   8.79466441679913        8.79466341869587        8.79466166435565     
   8.79465934175211        11.2053668025532        11.2053668025532     
   11.2053611561982        11.2053629047399        11.2053479855609     
   11.2053592483406        11.2053512464234        11.2053505588610     
   11.2053505826764        11.2053479707377        11.2053468885794     
   11.2053448714417        11.2053432176753        11.2053412720254     
   11.2053393925395        11.2053374390569        11.2053355250391     
   11.2053336453039        11.2053318594619        11.2053302017473     
   11.2053287247162        11.2053274777116        11.2053265180108     
   11.2053259071948        11.2053257133932        11.2053260012713     
   11.2053268289521        11.2053282562634        11.2053303210431     
   11.2053332075841        11.2053367337050        13.5460488704254     
   13.5460488704254        13.5460343840380        13.5460489405214     
   13.5459972293687        13.5460420471588        13.5460121941343     
   13.5460107960300        13.5460118913426        13.5460028785250     
   13.5459997003750        13.5459927725583        13.5459871135142     
   13.5459800986816        13.5459730920435        13.5459654800823     
   13.5459576662986        13.5459495813168        13.5459414276968     
   13.5459333160619        13.5459254477763        13.5459180290672     
   13.5459113199066        13.5459056201204        13.5459012786876     
   13.5458986494108        13.5458980737575        13.5458999077382     
   13.5459044060199        13.5459124334501        13.5459231642635     
   15.6806474673116        15.6806474673116        15.6806159394867     
   15.6806607531170        15.6805287367923        15.6806533299241     
   15.6805787948806        15.6805813282697        15.6805899041037     
   15.6805729160442        15.6805719342219        15.6805613044503     
   15.6805543855805        15.6805437550229        15.6805328966444     
   15.6805197242747        15.6805049805806        15.6804880071433     
   15.6804689098625        15.6804475118428        15.6804239250448     
   15.6803983280386        15.6803711593584        15.6803431227870     
   15.6803152631300        15.6802888640172        15.6802654131237     
   15.6802466671438        15.6802341444062        15.6802314590979     
   15.6802359080104        17.4851074817110        17.4851074817110     
   17.4850362857118        17.4851620926259        17.4848274654277     
   17.4851710823126        17.4849931971143        17.4850230411248     
   17.4850697505923        17.4850576701234        17.4850929265048     
   17.4851080884351        17.4851387766841        17.4851645038544     
   17.4851944802389        17.4852221008876        17.4852484980829     
   17.4852703253996        17.4852859808564        17.4852923694285     
   17.4852865296370        17.4852648511589        17.4852236363793     
   17.4851591632320        17.4850681351308        17.4849478527624     
   17.4847968839821        17.4846163416865        17.4844088824541     
   17.4841889639197        17.4839481636262        18.8545602565321     
   18.8545602565321        18.8543807977361        18.8547559107118     
   18.8538895631764        18.8549596237591        18.8546058447595     
   18.8548639167439        18.8551959882925        18.8554169879155     
   18.8558093292982        18.8561851528750        18.8566485454096     
   18.8571407169463        18.8576907897780        18.8582795040486     
   18.8589111465802        18.8595751633568        18.8602656868283     
   18.8609705926327        18.8616761726996        18.8623633493346     
   18.8630077847830        18.8635772614897        18.8640293568685     
   18.8643071899691        18.8643347169034        18.8640115090646     
   18.8632021145173        18.8618028473955        18.8600857914481     
   19.7094181742605        19.7094181742605        19.7089374159883     
   19.7115561808852        19.7103847055405        19.7198994267334     
   19.7247382602420        19.7322261443495        19.7413986523909     
   19.7506830798362        19.7616680839248        19.7730461298756     
   19.7854129195070        19.7982525148743        19.8116433432313     
   19.8253397217199        19.8392557666252        19.8532149904104     
   19.8670796638488        19.8806883991658        19.8938872991204     
   19.9065138911855        19.9184004790979        19.9293650641669     
   19.9392005735946        19.9476554731481        19.9543969299345     
   19.9589359754247        19.9604913691545        19.9576475212731     
   19.9469802038333        20.0000000000000        20.0000000000000     
   19.9995998145104        19.9983624060038        19.9976746036214     
   19.9931223909410        19.9897866315523        19.9855456192201     
   19.9805570812321        19.9751445678937        19.9691143366242     
   19.9626962189396        19.9558541541996        19.9487218832294     
   19.9413458917780        19.9338271112597        19.9262449926446     
   19.9186969647124        19.9112781686263        19.9040915016748     
   19.8972431896672        19.8908462125091        19.8850211935238     
   19.8799001408854        19.8756308857482        19.8723832634425     
   19.8703596742386        19.8698000348814        19.8710280620154     
   19.8741982261260        19.8798478273747     
 -6.536680706074363E-003 -6.536680706074363E-003 -6.762274074827348E-004
  7.322555907522927E-003  1.222017479504134E-002  2.396649492069125E-002
  2.851216825585435E-002  3.627103766034852E-002  4.193723427596859E-002
  4.802974837655670E-002  5.316717659118472E-002  5.794971142231885E-002
  6.198013467160393E-002  6.538207293394377E-002  6.802350676384378E-002
  6.991712291973143E-002  7.101290400942299E-002  7.130550423638043E-002
  7.077955848399334E-002  6.943792295435496E-002  6.728731860281048E-002
  6.434548239226429E-002  6.063749432807165E-002  5.619767734199730E-002
  5.106871390684987E-002  4.530140564411742E-002  3.895719898057948E-002
  3.209509198964527E-002  2.478748761762059E-002  1.741820508590625E-002
  8.835749859397585E-003 -6.536680706074363E-003 -6.536680706074363E-003
 -2.497106812601992E-002 -4.757091250656923E-002 -5.521377646584265E-002
 -9.112947428036065E-002 -9.779788877716640E-002 -0.117707192269720     
 -0.129811607899212      -0.144581439314294      -0.156614792799068     
 -0.168624281154979      -0.179121620621834      -0.188861585992440     
 -0.197420747680925      -0.205032768879130      -0.211607648847679     
 -0.217259778257257      -0.222032108611787      -0.226046897473511     
 -0.229430168438270      -0.232356526743273      -0.235031891676461     
 -0.237711048477113      -0.240697924799609      -0.244359344148222     
 -0.249129902994458      -0.255506931571145      -0.263998558359596     
 -0.274948826178003      -0.289020519405057      -6.536680706074363E-003
 -6.536680706074363E-003 -1.924607871762582E-002 -3.414695777188767E-002
 -3.740097011814592E-002 -6.277330697783851E-002 -6.523766834158815E-002
 -7.880788761672584E-002 -8.654554140453512E-002 -9.697310833567224E-002
 -0.105873483939630      -0.115396396599206      -0.124502356946592     
 -0.133746040575366      -0.142882155662455      -0.152065417337731     
 -0.161250094723366      -0.170491539541864      -0.179795602837631     
 -0.189194578393848      -0.198709422680476      -0.208368735070107     
 -0.218198731148449      -0.228226663511127      -0.238475012106922     
 -0.248954752982565      -0.259647050018644      -0.270463409675128     
 -0.281149987078564      -0.291043861229450      -0.299317425363951     