 Title = "Wing and Wake"
 VARIABLES = "X" "Y" "Z" "GAM"
 Zone I=    5 J=   14 K=1  T="Blade"
 DATAPACKING=BLOCK
 VARLOCATION=([4]=CELLCENTERED)
  -7.74619469809175       -7.49714602356881       -7.24809734904587     
  -6.99904867452294       -6.75000000000000       -7.74619469809175     
  -7.49714602356881       -7.24809734904587       -6.99904867452294     
  -6.75000000000000       -7.74619469809175       -7.49714602356881     
  -7.24809734904587       -6.99904867452294       -6.75000000000000     
  -7.74619469809175       -7.49714602356881       -7.24809734904587     
  -6.99904867452294       -6.75000000000000       -7.74619469809175     
  -7.49714602356881       -7.24809734904587       -6.99904867452294     
  -6.75000000000000       -7.74619469809175       -7.49714602356881     
  -7.24809734904587       -6.99904867452294       -6.75000000000000     
  -7.74619469809175       -7.49714602356881       -7.24809734904587     
  -6.99904867452294       -6.75000000000000       -7.74619469809175     
  -7.49714602356881       -7.24809734904587       -6.99904867452294     
  -6.75000000000000       -7.74619469809175       -7.49714602356881     
  -7.24809734904587       -6.99904867452294       -6.75000000000000     
  -7.74619469809175       -7.49714602356881       -7.24809734904587     
  -6.99904867452294       -6.75000000000000       -7.74619469809175     
  -7.49714602356881       -7.24809734904587       -6.99904867452294     
  -6.75000000000000       -7.74619469809175       -7.49714602356881     
  -7.24809734904587       -6.99904867452294       -6.75000000000000     
  -7.74619469809175       -7.49714602356881       -7.24809734904587     
  -6.99904867452294       -6.75000000000000       -7.74619469809175     
  -7.49714602356881       -7.24809734904587       -6.99904867452294     
  -6.75000000000000     
  0.000000000000000E+000  0.000000000000000E+000  0.000000000000000E+000
  0.000000000000000E+000  0.000000000000000E+000  0.290581825739480     
  0.290581825739480       0.290581825739480       0.290581825739480     
  0.290581825739480        1.14543974346790        1.14543974346790     
   1.14543974346790        1.14543974346790        1.14543974346790     
   2.51489251828899        2.51489251828899        2.51489251828899     
   2.51489251828899        2.51489251828899        4.31935253268844     
   4.31935253268844        4.31935253268844        4.31935253268844     
   4.31935253268844        6.45395112957464        6.45395112957464     
   6.45395112957464        6.45395112957464        6.45395112957464     
   8.79463319744677        8.79463319744677        8.79463319744677     
   8.79463319744677        8.79463319744677        11.2053668025532     
   11.2053668025532        11.2053668025532        11.2053668025532     
   11.2053668025532        13.5460488704254        13.5460488704254     
   13.5460488704254        13.5460488704254        13.5460488704254     
   15.6806474673116        15.6806474673116        15.6806474673116     
   15.6806474673116        15.6806474673116        17.4851074817110     
   17.4851074817110        17.4851074817110        17.4851074817110     
   17.4851074817110        18.8545602565321        18.8545602565321     
   18.8545602565321        18.8545602565321        18.8545602565321     
   19.7094181742605        19.7094181742605        19.7094181742605     
   19.7094181742605        19.7094181742605        20.0000000000000     
   20.0000000000000        20.0000000000000        20.0000000000000     
   20.0000000000000     
  8.715574274765817E-002  6.536680706074363E-002  4.357787137382908E-002
  2.178893568691454E-002  0.000000000000000E+000  8.715574274765817E-002
  6.536680706074363E-002  4.357787137382908E-002  2.178893568691454E-002
  0.000000000000000E+000  8.715574274765817E-002  6.536680706074363E-002
  4.357787137382908E-002  2.178893568691454E-002  0.000000000000000E+000
  8.715574274765817E-002  6.536680706074363E-002  4.357787137382908E-002
  2.178893568691454E-002  0.000000000000000E+000  8.715574274765817E-002
  6.536680706074363E-002  4.357787137382908E-002  2.178893568691454E-002
  0.000000000000000E+000  8.715574274765817E-002  6.536680706074363E-002
  4.357787137382908E-002  2.178893568691454E-002  0.000000000000000E+000
  8.715574274765817E-002  6.536680706074363E-002  4.357787137382908E-002
  2.178893568691454E-002  0.000000000000000E+000  8.715574274765817E-002
  6.536680706074363E-002  4.357787137382908E-002  2.178893568691454E-002
  0.000000000000000E+000  8.715574274765817E-002  6.536680706074363E-002
  4.357787137382908E-002  2.178893568691454E-002  0.000000000000000E+000
  8.715574274765817E-002  6.536680706074363E-002  4.357787137382908E-002
  2.178893568691454E-002  0.000000000000000E+000  8.715574274765817E-002
  6.536680706074363E-002  4.357787137382908E-002  2.178893568691454E-002
  0.000000000000000E+000  8.715574274765817E-002  6.536680706074363E-002
  4.357787137382908E-002  2.178893568691454E-002  0.000000000000000E+000
  8.715574274765817E-002  6.536680706074363E-002  4.357787137382908E-002
  2.178893568691454E-002  0.000000000000000E+000  8.715574274765817E-002
  6.536680706074363E-002  4.357787137382908E-002  2.178893568691454E-002
  0.000000000000000E+000
  0.727910325670735       0.978710714157639        1.11423871276654     
   1.18540936217135        1.04882473001007        1.47253286741032     
   1.71310716870805        1.83985889481157        1.21550701521592     
   1.72616145381339        2.02594539295238        2.18764182513390     
   1.28981579415691        1.83626274288495        2.15948972550679     
   2.33475085990075        1.32087900797942        1.88151650398594     
   2.21360465253706        2.39369109797947        1.33307073060572     
   1.89908996121050        2.23441438829883        2.41615642946412     
   1.33628033594281        1.90369200141957        2.23983662598681     
   2.42198237636140        1.33307073060572        1.89908996121050     
   2.23441438829883        2.41615642946412        1.32087900797942     
   1.88151650398594        2.21360465253706        2.39369109797947     
   1.28981579415691        1.83626274288495        2.15948972550679     
   2.33475085990075        1.21550701521592        1.72616145381339     
   2.02594539295238        2.18764182513390        1.04882473001007     
   1.47253286741032        1.71310716870805        1.83985889481157     
  0.727910325670735       0.978710714157639        1.11423871276654     
   1.18540936217135     
 Zone I=   28 J=   14 K=1  T="NearWake"
 DATAPACKING=BLOCK
 VARLOCATION=([4]=CELLCENTERED)
  -6.67528539764312       -6.42528539764312       -6.17472576140628     
  -5.92418634890945       -5.67364703377155       -5.42310191406316     
  -5.17260252521362       -4.92212683846618       -4.67170626525906     
  -4.42133897511909       -4.17104643808354       -3.92084112341528     
  -3.67074653148907       -3.42078781022445       -3.17099907920686     
  -2.92142233999570       -2.67211176456034       -2.42313618190312     
  -2.17458358397777       -1.92656512747629       -1.67921793944201     
  -1.43270095005938       -1.18716890208029      -0.942689126125769     
 -0.698932446936118      -0.454603302739050      -0.191865252699455     
  2.072387858638840E-002  -6.67528539764312       -6.42528539764312     
  -6.17561839389819       -5.92535790599480       -5.67521184603281     
  -5.42491814241490       -5.17465461658952       -4.92435399590005     
  -4.67407208683672       -4.42379429449102       -4.17354321818996     
  -3.92332088073150       -3.67314151919504       -3.42301395688936     
  -3.17295228308608       -2.92297013346503       -2.67308407911934     
  -2.42331054116966       -2.17366389292827       -1.92414721322689     
  -1.67473066295257       -1.42529373204288       -1.17547770672639     
 -0.924312851123722      -0.669202342053996      -0.400511021313531     
 -6.035591398265387E-002  1.785331368874012E-002  -6.67528539764312     
  -6.42528539764312       -6.17630955427264       -5.92664261937788     
  -5.67716062585490       -5.42748049869013       -5.17782807712726     
  -4.92810826719108       -4.67838820981790       -4.42864489233235     
  -4.17890173141097       -3.92915507970402       -3.67941500742155     
  -3.42968243233767       -3.17996124482248       -2.93024970961742     
  -2.68054202828150       -2.43082090934578       -2.18104917890378     
  -1.93114921532491       -1.68096173034048       -1.43015216537914     
  -1.17798301383219      -0.922701270788942      -0.659615799423489     
 -0.373665102693442       2.835797908635832E-002 -2.919252165812570E-002
  -6.67528539764312       -6.42528539764312       -6.17631604129781     
  -5.92664922850544       -5.67716914976286       -5.42749080315749     
  -5.17784097277993       -4.92812048299169       -4.67839635577813     
  -4.42864155289633       -4.17887758256814       -3.92909619576401     
  -3.67930314356542       -3.42949285384620       -3.17966165821677     
  -2.92979788172372       -2.67988353265921       -2.42988598684909     
  -2.17974926100698       -1.92937265043861       -1.67856857829054     
  -1.42696634074901       -1.17377576931904      -0.917144999707869     
 -0.652127219991154      -0.362796093945401       4.350322398865078E-002
 -4.299610957617420E-002  -6.67528539764312       -6.42528539764312     
  -6.17630857844679       -5.92662468964984       -5.67712505025428     
  -5.42742239117763       -5.17774727317024       -4.92799791004045     
  -4.67824299509615       -4.42845359099447       -4.17865153415765     
  -3.92882727818949       -3.67898630235763       -3.42912218204842     
  -3.17923094629702       -2.92930060312130       -2.67931332541159     
  -2.42923697225961       -2.17901651537438       -1.92855240889418     
  -1.67765788510953       -1.42596112703362       -1.17266532335397     
 -0.915897639995184      -0.650648074237114      -0.360751340108526     
  4.590170747744329E-002 -4.714794883353234E-002  -6.67528539764312     
  -6.42528539764312       -6.17630404413894       -5.92660996830948     
  -5.67709968593864       -5.42738312268637       -5.17769415973673     
  -4.92792921986102       -4.67815866296128       -4.42835278501792     
  -4.17853420295498       -3.92869318073788       -3.67883563663538     
  -3.42895525152521       -3.17904840596299       -2.92910335078957     
  -2.67910256683598       -2.42901412534991       -2.17878310449419     
  -1.92830979870583       -1.67740683009599       -1.42570093361430     
  -1.17239224950542      -0.915601404173508      -0.650301782476360     
 -0.360268302403305       4.641831210919872E-002 -4.824368574348668E-002
  -6.67528539764312       -6.42528539764312       -6.17630223284085     
  -5.92660402494585       -5.67708983106836       -5.42736803234540     
  -5.17767415777499       -4.92790377176965       -4.67812803136217     
  -4.42831691372202       -4.17849339417419       -3.92864766646399     
  -3.67878581928271       -3.42890154691733       -3.17899131193772     
  -2.92904337881059       -2.67904023951877       -2.42894992186619     
  -2.17871741321558       -1.92824283338723       -1.67733851229377     
  -1.42563069130819       -1.17231863944738      -0.915521262746873     
 -0.650207673655100      -0.360137324754312       4.655994527833938E-002
 -4.853345565828891E-002  -6.67528539764312       -6.42528539764312     
  -6.17630223284085       -5.92660402494585       -5.67708983106836     
  -5.42736803234540       -5.17767415777499       -4.92790377176965     
  -4.67812803136217       -4.42831691372202       -4.17849339417419     
  -3.92864766646399       -3.67878581928271       -3.42890154691733     
  -3.17899131193772       -2.92904337881059       -2.67904023951877     
  -2.42894992186619       -2.17871741321558       -1.92824283338723     
  -1.67733851229377       -1.42563069130819       -1.17231863944738     
 -0.915521262746873      -0.650207673655100      -0.360137324754312     
  4.655994527833916E-002 -4.853345565828883E-002  -6.67528539764312     
  -6.42528539764312       -6.17630404413894       -5.92660996830948     
  -5.67709968593864       -5.42738312268637       -5.17769415973673     
  -4.92792921986102       -4.67815866296128       -4.42835278501792     
  -4.17853420295498       -3.92869318073788       -3.67883563663538     
  -3.42895525152521       -3.17904840596299       -2.92910335078957     
  -2.67910256683598       -2.42901412534991       -2.17878310449419     
  -1.92830979870583       -1.67740683009599       -1.42570093361430     
  -1.17239224950542      -0.915601404173508      -0.650301782476360     
 -0.360268302403306       4.641831210919874E-002 -4.824368574348668E-002
  -6.67528539764312       -6.42528539764312       -6.17630857844679     
  -5.92662468964984       -5.67712505025428       -5.42742239117763     
  -5.17774727317024       -4.92799791004045       -4.67824299509615     
  -4.42845359099447       -4.17865153415765       -3.92882727818949     
  -3.67898630235763       -3.42912218204842       -3.17923094629702     
  -2.92930060312130       -2.67931332541159       -2.42923697225961     
  -2.17901651537438       -1.92855240889418       -1.67765788510953     
  -1.42596112703362       -1.17266532335397      -0.915897639995184     
 -0.650648074237114      -0.360751340108526       4.590170747744314E-002
 -4.714794883353238E-002  -6.67528539764312       -6.42528539764312     
  -6.17631604129781       -5.92664922850544       -5.67716914976286     
  -5.42749080315749       -5.17784097277993       -4.92812048299169     
  -4.67839635577813       -4.42864155289633       -4.17887758256814     
  -3.92909619576401       -3.67930314356542       -3.42949285384620     
  -3.17966165821677       -2.92979788172372       -2.67988353265921     
  -2.42988598684909       -2.17974926100698       -1.92937265043861     
  -1.67856857829054       -1.42696634074901       -1.17377576931904     
 -0.917144999707869      -0.652127219991153      -0.362796093945401     
  4.350322398865041E-002 -4.299610957617445E-002  -6.67528539764312     
  -6.42528539764312       -6.17630955427264       -5.92664261937788     
  -5.67716062585490       -5.42748049869013       -5.17782807712726     
  -4.92810826719108       -4.67838820981790       -4.42864489233235     
  -4.17890173141097       -3.92915507970402       -3.67941500742155     
  -3.42968243233767       -3.17996124482248       -2.93024970961742     
  -2.68054202828150       -2.43082090934578       -2.18104917890378     
  -1.93114921532491       -1.68096173034048       -1.43015216537914     
  -1.17798301383219      -0.922701270788942      -0.659615799423489     
 -0.373665102693442       2.835797908635822E-002 -2.919252165812610E-002
  -6.67528539764312       -6.42528539764312       -6.17561839389819     
  -5.92535790599480       -5.67521184603281       -5.42491814241490     
  -5.17465461658952       -4.92435399590005       -4.67407208683672     
  -4.42379429449102       -4.17354321818996       -3.92332088073150     
  -3.67314151919504       -3.42301395688936       -3.17295228308608     
  -2.92297013346503       -2.67308407911934       -2.42331054116966     
  -2.17366389292828       -1.92414721322689       -1.67473066295257     
  -1.42529373204288       -1.17547770672639      -0.924312851123721     
 -0.669202342053994      -0.400511021313531      -6.035591398265489E-002
  1.785331368873885E-002  -6.67528539764312       -6.42528539764312     
  -6.17472576140628       -5.92418634890945       -5.67364703377155     
  -5.42310191406316       -5.17260252521362       -4.92212683846618     
  -4.67170626525906       -4.42133897511909       -4.17104643808354     
  -3.92084112341528       -3.67074653148907       -3.42078781022445     
  -3.17099907920686       -2.92142233999570       -2.67211176456034     
  -2.42313618190312       -2.17458358397777       -1.92656512747629     
  -1.67921793944201       -1.43270095005938       -1.18716890208029     
 -0.942689126125769      -0.698932446936117      -0.454603302739052     
 -0.191865252699455       2.072387858639036E-002
  0.000000000000000E+000  0.000000000000000E+000  5.953334072226284E-004
  2.274779294614043E-003  4.273329348678320E-003  7.144493657802057E-003
  1.051918634830120E-002  1.454977254472978E-002  1.907593609205200E-002
  2.409057305550084E-002  2.949141011614770E-002  3.521013693985234E-002
  4.114600719344205E-002  4.719780125740423E-002  5.324645704198527E-002
  5.916088323232588E-002  6.479156144807909E-002  6.996833372215289E-002
  7.449438211541998E-002  7.813948405479883E-002  8.063250708870244E-002
  8.165794372070832E-002  8.085953621295393E-002  7.811423446896751E-002
  7.424344602266801E-002  7.328970529870649E-002  4.335616342077481E-002
  5.960965969984754E-002  0.290581825739480       0.290581825739480     
  0.291237388771771       0.287771595584630       0.285174625692749     
  0.279838596746978       0.274120852984561       0.266829126476596     
  0.258743926452009       0.249618583894630       0.239755250282654     
  0.229197382641650       0.218137393037157       0.206717512775260     
  0.195126934310134       0.183559493223429       0.172238301967643     
  0.161415173020948       0.151387874571131       0.142521996011661     
  0.135293506138520       0.130365128257591       0.128727824227997     
  0.132083225975238       0.143803016668917       0.173115641061917     
  0.221271751745745       0.321099701288542        1.14543974346790     
   1.14543974346790        1.14569237031453        1.14541097254950     
   1.14554331707697        1.14534521310274        1.14525897048788     
   1.14504481752695        1.14483263854523        1.14455537190741     
   1.14425121075233        1.14390494414593        1.14353134567249     
   1.14313252216061        1.14272099603251        1.14230905565898     
   1.14191592777487        1.14156641485892        1.14129492552842     
   1.14114768231702        1.14118733436696        1.14149846706300     
   1.14219666620687        1.14344282151733        1.14550639809474     
   1.14885956317749        1.15019542553616        1.16180280273747     
   2.51489251828899        2.51489251828899        2.51498950291511     
   2.51490644087963        2.51498146261630        2.51495284079492     
   2.51497428072687        2.51496557210140        2.51496992552137     
   2.51496600692248        2.51496626962719        2.51496622997446     
   2.51497050304500        2.51497951951636        2.51499630055135     
   2.51502296564515        2.51506235042279        2.51511696294057     
   2.51518933504900        2.51528158419475        2.51539543336062     
   2.51553249166852        2.51569613119931        2.51589585675603     
   2.51615350466177        2.51652626909992        2.51592284382957     
   2.51911417904729        4.31935253268844        4.31935253268844     
   4.31939364838824        4.31936639133444        4.31940028625244     
   4.31939682648483        4.31941318531679        4.31942027980933     
   4.31943353704468        4.31944536737369        4.31945985612555     
   4.31947516551042        4.31949236932526        4.31951100127692     
   4.31953125397875        4.31955284995247        4.31957555510871     
   4.31959888185862        4.31962225762894        4.31964501339068     
   4.31966653883134        4.31968649173438        4.31970530551725     
   4.31972503220220        4.31975003617443        4.31979152766273     
   4.31955639033051        4.32049520796469        6.45395112957464     
   6.45395112957464        6.45396850472457        6.45395975631172     
   6.45397406416639        6.45397460801101        6.45398243617500     
   6.45398694588397        6.45399360643693        6.45399966340368     
   6.45400645016316        6.45401323467767        6.45402026860396     
   6.45402728203092        6.45403422683206        6.45404091437238     
   6.45404719283396        6.45405286175625        6.45405773334928     
   6.45406163712911        6.45406446940571        6.45406624731142     
   6.45406723279051        6.45406813678910        6.45407026862731     
   6.45407661417568        6.45399857210895        6.45431830449362     
   8.79463319744677        8.79463319744677        8.79463801393575     
   8.79463596834520        8.79463987662083        8.79464023238790     
   8.79464241843585        8.79464373380680        8.79464555017334     
   8.79464717018135        8.79464891759915        8.79465060522943     
   8.79465228926856        8.79465390066700        8.79465542677447     
   8.79465682428150        8.79465806217100        8.79465910136446     
   8.79465990899565        8.79466045915640        8.79466074367928     
   8.79466078316995        8.79466065343317        8.79466053045307     
   8.79466072459274        8.79466191863150        8.79464338761082     
   8.79472362991616        11.2053668025532        11.2053668025532     
   11.2053619860642        11.2053640316548        11.2053601233792     
   11.2053597676121        11.2053575815641        11.2053562661932     
   11.2053544498267        11.2053528298186        11.2053510824008     
   11.2053493947706        11.2053477107314        11.2053460993330     
   11.2053445732255        11.2053431757185        11.2053419378290     
   11.2053408986355        11.2053400910043        11.2053395408436     
   11.2053392563207        11.2053392168300        11.2053393465668     
   11.2053394695469        11.2053392754073        11.2053380813685     
   11.2053566123892        11.2052763700838        13.5460488704254     
   13.5460488704254        13.5460314952754        13.5460402436883     
   13.5460259358336        13.5460253919890        13.5460175638250     
   13.5460130541160        13.5460063935631        13.5460003365963     
   13.5459935498368        13.5459867653223        13.5459797313960     
   13.5459727179691        13.5459657731679        13.5459590856276     
   13.5459528071660        13.5459471382437        13.5459422666507     
   13.5459383628709        13.5459355305943        13.5459337526886     
   13.5459327672095        13.5459318632109        13.5459297313727     
   13.5459233858243        13.5460014278911        13.5456816955064     
   15.6806474673116        15.6806474673116        15.6806063516118     
   15.6806336086656        15.6805997137476        15.6806031735152     
   15.6805868146832        15.6805797201907        15.6805664629553     
   15.6805546326263        15.6805401438744        15.6805248344896     
   15.6805076306747        15.6804889987231        15.6804687460212     
   15.6804471500475        15.6804244448913        15.6804011181414     
   15.6803777423711        15.6803549866093        15.6803334611687     
   15.6803135082656        15.6802946944827        15.6802749677978     
   15.6802499638256        15.6802084723373        15.6804436096695     
   15.6795047920353        17.4851074817110        17.4851074817110     
   17.4850104970849        17.4850935591204        17.4850185373837     
   17.4850471592051        17.4850257192731        17.4850344278986     
   17.4850300744786        17.4850339930775        17.4850337303728     
   17.4850337700255        17.4850294969550        17.4850204804836     
   17.4850036994487        17.4849770343549        17.4849376495772     
   17.4848830370594        17.4848106649510        17.4847184158052     
   17.4846045666394        17.4844675083315        17.4843038688007     
   17.4841041432440        17.4838464953382        17.4834737309001     
   17.4840771561704        17.4808858209527        18.8545602565321     
   18.8545602565321        18.8543076296855        18.8545890274505     
   18.8544566829230        18.8546547868973        18.8547410295121     
   18.8549551824730        18.8551673614548        18.8554446280926     
   18.8557487892477        18.8560950558541        18.8564686543275     
   18.8568674778394        18.8572790039675        18.8576909443410     
   18.8580840722251        18.8584335851411        18.8587050744716     
   18.8588523176830        18.8588126656330        18.8585015329370     
   18.8578033337931        18.8565571784827        18.8544936019053     
   18.8511404368225        18.8498045744638        18.8381971972625     
   19.7094181742605        19.7094181742605        19.7087626112282     
   19.7122284044154        19.7148253743072        19.7201614032530     
   19.7258791470154        19.7331708735234        19.7412560735480     
   19.7503814161054        19.7602447497173        19.7708026173584     
   19.7818626069628        19.7932824872247        19.8048730656899     
   19.8164405067766        19.8277616980324        19.8385848269791     
   19.8486121254289        19.8574780039883        19.8647064938615     
   19.8696348717424        19.8712721757720        19.8679167740248     
   19.8561969833311        19.8268843589381        19.7787282482543     
   19.6789002987115        20.0000000000000        20.0000000000000     
   19.9994046665928        19.9977252207054        19.9957266706513     
   19.9928555063422        19.9894808136517        19.9854502274553     
   19.9809240639079        19.9759094269445        19.9705085898838     
   19.9647898630601        19.9588539928065        19.9528021987426     
   19.9467535429580        19.9408391167677        19.9352084385519     
   19.9300316662779        19.9255056178846        19.9218605159452     
   19.9193674929113        19.9183420562793        19.9191404637871     
   19.9218857655310        19.9257565539773        19.9267102947013     
   19.9566438365792        19.9403903403002     
 -6.536680706074363E-003 -6.536680706074363E-003  1.750821022663159E-003
  6.702561911633067E-003  1.365910481754849E-002  1.961435797571012E-002
  2.585086171121292E-002  3.152310119455064E-002  3.689660341506138E-002
  4.169002199377574E-002  4.591612253542748E-002  4.945020197722202E-002
  5.224822786381277E-002  5.423530549178836E-002  5.536086061421837E-002
  5.556983385135406E-002  5.481532788838243E-002  5.304966643809103E-002
  5.022418183883900E-002  4.628196758310628E-002  4.114995371365850E-002
  3.472723359624646E-002  2.687593732312144E-002  1.738089945548691E-002
  5.911645083109656E-003 -1.455770664938813E-002 -3.445007820717699E-002
  7.362501056032564E-002 -6.536680706074363E-003 -6.536680706074363E-003
 -3.621579361319169E-002 -4.929743526973489E-002 -6.959488459293967E-002
 -8.504956249847562E-002 -0.101922048987836      -0.116917285847633     
 -0.131732705168361      -0.145427982179216      -0.158461052908131     
 -0.170568381549285      -0.181887249997985      -0.192373624114734     
 -0.202114389253897      -0.211171295432317      -0.219669955402833     
 -0.227761924237086      -0.235652610031525      -0.243594494123316     
 -0.251892541521303      -0.260873725559389      -0.270802749622332     
 -0.281617151017686      -0.291666265406552      -0.297039318918687     
 -0.253609889972685      -2.993367427563328E-002 -6.536680706074363E-003
 -6.536680706074363E-003 -2.732634671583847E-002 -3.554315962770934E-002
 -4.876066855333450E-002 -5.863085152362649E-002 -6.959467020596119E-002
 -7.959922259102648E-002 -8.979434563951000E-002 -9.969638223383916E-002
 -0.109623310445255      -0.119481642196543      -0.129379459488151     
 -0.139322602416573      -0.149369908465140      -0.159557829448087     
 -0.169940563844418      -0.180571796409357      -0.191514549862867     
 -0.202833392899558      -0.214585513891410      -0.226783147922585     
 -0.239283988587207      -0.251432450022164      -0.260824023998119     
 -0.257892385946529      -0.173571364928580       5.049807127871084E-002
 -6.536680706074363E-003 -6.536680706074363E-003 -2.563775650346101E-002
 -3.251116782506232E-002 -4.391337457443766E-002 -5.200940949020397E-002
 -6.106152492924771E-002 -6.916147179021596E-002 -7.742958401760940E-002
 -8.543204960816513E-002 -9.349190500947022E-002 -0.101540196417110     
 -0.109698228820793      -0.117990253733704      -0.126491255303592     
 -0.135255716632750      -0.144355620804081      -0.153862365914522     
 -0.163854295534955      -0.174405379142069      -0.185568943683433     
 -0.197327120584717      -0.209458023807594      -0.221137636998574     
 -0.229635055911000      -0.224448658185346      -0.125673006770492     
  8.398943080056201E-002 -6.536680706074363E-003 -6.536680706074363E-003
 -2.504850686865976E-002 -3.141759145362910E-002 -4.213902402021091E-002
 -4.954604838713154E-002 -5.784770660966779E-002 -6.518398028407343E-002
 -7.266999591715628E-002 -7.989006721505378E-002 -8.717215398032235E-002
 -9.445713832744496E-002 -0.101872582915849      -0.109449549693269     
 -0.117268363873146      -0.125388128923384      -0.133884060500802     
 -0.142829277743810      -0.152301909923644      -0.162373530127650     
 -0.173092756754165      -0.184434975015611      -0.196170338552197     
 -0.207466827303344      -0.215585825041682      -0.209954801370396     
 -0.108135112876292       9.765094836237016E-002 -6.536680706074363E-003
 -6.536680706074363E-003 -2.482286097680351E-002 -3.099984261698209E-002
 -4.146269242548223E-002 -4.860808685023589E-002 -5.662470414871474E-002
 -6.367019475734030E-002 -7.085755474365037E-002 -7.777749700472610E-002
 -8.475959360999086E-002 -9.174805134253997E-002 -9.887247838838850E-002
 -0.106166163617800      -0.113711204295305      -0.121568354120624     
 -0.129814261560864      -0.138523378345808      -0.147775119817388     
 -0.157642411351580      -0.168175397672678      -0.179351264149662     
 -0.190942265825893      -0.202118558415361      -0.210142714587661     
 -0.204424561162842      -0.101890284009978       0.102927165520353     
 -6.536680706074363E-003 -6.536680706074363E-003 -2.474329100336699E-002
 -3.085355393553189E-002 -4.122679297314259E-002 -4.828207643235635E-002
 -5.620071547759962E-002 -6.314645836587890E-002 -7.023141567004008E-002