 Title = "Wing and Wake"
 VARIABLES = "X" "Y" "Z" "GAM"
 Zone I=    5 J=   14 K=1  T="Blade"
 DATAPACKING=BLOCK
 VARLOCATION=([4]=CELLCENTERED)
  -14.2461946980917       -13.9971460235688       -13.7480973490459     
  -13.4990486745229       -13.2500000000000       -14.2461946980917     
  -13.9971460235688       -13.7480973490459       -13.4990486745229     
  -13.2500000000000       -14.2461946980917       -13.9971460235688     
  -13.7480973490459       -13.4990486745229       -13.2500000000000     
  -14.2461946980917       -13.9971460235688       -13.7480973490459     
  -13.4990486745229       -13.2500000000000       -14.2461946980917     
  -13.9971460235688       -13.7480973490459       -13.4990486745229     
  -13.2500000000000       -14.2461946980917       -13.9971460235688     
  -13.7480973490459       -13.4990486745229       -13.2500000000000     
  -14.2461946980917       -13.9971460235688       -13.7480973490459     
  -13.4990486745229       -13.2500000000000       -14.2461946980917     
  -13.9971460235688       -13.7480973490459       -13.4990486745229     
  -13.2500000000000       -14.2461946980917       -13.9971460235688     
  -13.7480973490459       -13.4990486745229       -13.2500000000000     
  -14.2461946980917       -13.9971460235688       -13.7480973490459     
  -13.4990486745229       -13.2500000000000       -14.2461946980917     
  -13.9971460235688       -13.7480973490459       -13.4990486745229     
  -13.2500000000000       -14.2461946980917       -13.9971460235688     
  -13.7480973490459       -13.4990486745229       -13.2500000000000     
  -14.2461946980917       -13.9971460235688       -13.7480973490459     
  -13.4990486745229       -13.2500000000000       -14.2461946980917     
  -13.9971460235688       -13.7480973490459       -13.4990486745229     
  -13.2500000000000     
  0.000000000000000E+000  0.000000000000000E+000  0.000000000000000E+000
  0.000000000000000E+000  0.000000000000000E+000  0.290581825739480     
  0.290581825739480       0.290581825739480       0.290581825739480     
  0.290581825739480        1.14543974346790        1.14543974346790     
   1.14543974346790        1.14543974346790        1.14543974346790     
   2.51489251828899        2.51489251828899        2.51489251828899     
   2.51489251828899        2.51489251828899        4.31935253268844     
   4.31935253268844        4.31935253268844        4.31935253268844     
   4.31935253268844        6.45395112957464        6.45395112957464     
   6.45395112957464        6.45395112957464        6.45395112957464     
   8.79463319744677        8.79463319744677        8.79463319744677     
   8.79463319744677        8.79463319744677        11.2053668025532     
   11.2053668025532        11.2053668025532        11.2053668025532     
   11.2053668025532        13.5460488704254        13.5460488704254     
   13.5460488704254        13.5460488704254        13.5460488704254     
   15.6806474673116        15.6806474673116        15.6806474673116     
   15.6806474673116        15.6806474673116        17.4851074817110     
   17.4851074817110        17.4851074817110        17.4851074817110     
   17.4851074817110        18.8545602565321        18.8545602565321     
   18.8545602565321        18.8545602565321        18.8545602565321     
   19.7094181742605        19.7094181742605        19.7094181742605     
   19.7094181742605        19.7094181742605        20.0000000000000     
   20.0000000000000        20.0000000000000        20.0000000000000     
   20.0000000000000     
  8.715574274765817E-002  6.536680706074363E-002  4.357787137382908E-002
  2.178893568691454E-002  0.000000000000000E+000  8.715574274765817E-002
  6.536680706074363E-002  4.357787137382908E-002  2.178893568691454E-002
  0.000000000000000E+000  8.715574274765817E-002  6.536680706074363E-002
  4.357787137382908E-002  2.178893568691454E-002  0.000000000000000E+000
  8.715574274765817E-002  6.536680706074363E-002  4.357787137382908E-002
  2.178893568691454E-002  0.000000000000000E+000  8.715574274765817E-002
  6.536680706074363E-002  4.357787137382908E-002  2.178893568691454E-002
  0.000000000000000E+000  8.715574274765817E-002  6.536680706074363E-002
  4.357787137382908E-002  2.178893568691454E-002  0.000000000000000E+000
  8.715574274765817E-002  6.536680706074363E-002  4.357787137382908E-002
  2.178893568691454E-002  0.000000000000000E+000  8.715574274765817E-002
  6.536680706074363E-002  4.357787137382908E-002  2.178893568691454E-002
  0.000000000000000E+000  8.715574274765817E-002  6.536680706074363E-002
  4.357787137382908E-002  2.178893568691454E-002  0.000000000000000E+000
  8.715574274765817E-002  6.536680706074363E-002  4.357787137382908E-002
  2.178893568691454E-002  0.000000000000000E+000  8.715574274765817E-002
  6.536680706074363E-002  4.357787137382908E-002  2.178893568691454E-002
  0.000000000000000E+000  8.715574274765817E-002  6.536680706074363E-002
  4.357787137382908E-002  2.178893568691454E-002  0.000000000000000E+000
  8.715574274765817E-002  6.536680706074363E-002  4.357787137382908E-002
  2.178893568691454E-002  0.000000000000000E+000  8.715574274765817E-002
  6.536680706074363E-002  4.357787137382908E-002  2.178893568691454E-002
  0.000000000000000E+000
  0.756182990649331        1.01851067523400        1.16155868970619     
   1.23791201110266        1.09252412273546        1.53622939623348     
   1.79013508826599        1.92595421379604        1.27301373840050     
   1.81073332658005        2.12894255652990        2.30331519901896     
   1.35992160193687        1.93959254130575        2.28557490327454     
   2.47656637473651        1.40124083368523        2.00000557395356     
   2.35822008333584        2.55635537369042        1.41980681077930     
   2.02694675942654        2.39041321960213        2.59155307941940     
   1.42491888278998        2.03432931830368        2.39919822010827     
   2.60112837842035        1.41929124958217        2.02616860536503     
   2.38945083219321        2.59047437354695        1.40077570425268     
   1.99927136871201        2.35727582040828        2.55526168456589     
   1.36021128583370        1.93993498828082        2.28589286277823     
   2.47682080788520        1.27427688532880        1.81247917638277     
   2.13092672532135        2.30537402103137        1.09429333182535     
   1.53868232441749        1.79294671997222        1.92891109485076     
  0.757612308870456        1.02040164889456        1.16368682615251     
   1.24014582657996     
 Zone I=   31 J=   14 K=1  T="NearWake"
 DATAPACKING=BLOCK
 VARLOCATION=([4]=CELLCENTERED)
  -13.1752853976431       -12.9252853976431       -12.6749683963944     
  -12.4244194901258       -12.1737976653492       -11.9231586135387     
  -11.6725189800336       -11.4218848390335       -11.1712608262582     
  -10.9206458914730       -10.6700508305893       -10.4194576193823     
  -10.1689136050982       -9.91833395561593       -9.66788210582255     
  -9.41730607553641       -9.16699513467364       -8.91638736534465     
  -8.66638063246521       -8.41549708306089       -8.16613423468535     
  -7.91489590568164       -7.66524697476225       -7.41658287426736     
  -7.15879008617585       -6.91332956143189       -6.66179580861202     
  -6.41187812566662       -6.16195442608647       -5.91190253065532     
  -5.66217258623305       -13.1752853976431       -12.9252853976431     
  -12.6754951739436       -12.4253420082342       -12.1750308572598     
  -11.9246368359761       -11.6741915697106       -11.4237120273520     
  -11.1732086404627       -10.9226894231315       -10.6721581367065     
  -10.4216253369655       -10.1710782262195       -9.92056733258925     
  -9.66996634167103       -9.41962605020806       -9.16867637692280     
  -8.91912330594714       -8.66682569374227       -8.41939067393075     
  -8.16446931231374       -7.91935941342474       -7.66274419487810     
  -7.41771217380540       -7.16131905085919       -6.91449544825586     
  -6.66364312090050       -6.41323359757812       -6.16310014808533     
  -5.91275539933409       -5.66264011557029       -13.1752853976431     
  -12.9252853976431       -12.6759369919257       -12.4264432153291     
  -12.1768472323095       -11.9271760533775       -11.6774474257647     
  -11.4276736414747       -11.1778636482125       -10.9280239167319     
  -10.6781596819538       -10.4282747623533       -10.1783727517409     
  -9.92845659146900       -9.67852801697457       -9.42859238617802     
  -9.17864345980365       -8.92870236609105       -8.67872617542569     
  -8.42880992473675       -8.17874567358852       -7.92896965755424     
  -7.67859522599536       -7.42896822364430       -7.17914642938802     
  -6.92929344996996       -6.67931194944735       -6.42941761701987     
  -6.17950966050565       -5.92964350013212       -5.67977616124804     
  -13.1752853976431       -12.9252853976431       -12.6759524920115     
  -12.4264717042326       -12.1768903706504       -11.9272378375970     
  -11.6775327690620       -11.4277875517489       -11.1780109379992     
  -10.9282091070884       -10.6783869754058       -10.4285479484766     
  -10.1786951279538       -9.92883084748274       -9.67895601518024     
  -9.42907564101164       -9.17918128854487       -8.92929754407156     
  -8.67937153703174       -8.42951896349980       -8.17950182809079     
  -7.92978988989154       -7.67947579847473       -7.42996000498885     
  -7.18009562463986       -6.93027181026395       -6.68031003414673     
  -6.43046216904248       -6.18053358656404       -5.93065914471774     
  -5.68075342191408       -13.1752853976431       -12.9252853976431     
  -12.6759553166220       -12.4264692702784       -12.1768785225448     
  -11.9272146875272       -11.6774977529847       -11.4277408575592     
  -11.1779531385187       -10.9281409445134       -10.6783091867499     
  -10.4284612636260       -10.1786000249397       -9.92872796267793     
  -9.67884515266914       -9.42895785765336       -9.17905434956003     
  -8.92916542932998       -8.67922422777505       -8.42937382694521     
  -8.17931835182304       -7.92963824101546       -7.67921225607836     
  -7.42988191284482       -7.17981031407844       -6.93003799813877     
  -6.68001082189158       -6.43016611524725       -6.18020056950644     
  -5.93030796063066       -5.68037024270979       -13.1752853976431     
  -12.9252853976431       -12.6759578536527       -12.4264697587131     
  -12.1768742979584       -11.9272041891091       -11.6774800898515     
  -11.4277155623216       -11.1779200035385       -10.9280999407599     
  -10.6782603463484       -10.4284047331207       -10.1785358097462     
  -9.92865634896835       -9.67876576827527       -9.42887146982223     
  -9.17895925093602       -8.92906441095905       -8.67911088765970     
  -8.42925917161586       -8.17917798959402       -7.92951864150345     
  -7.67900701129872       -7.42982905329091       -7.17959947796206     
  -6.92987572467228       -6.67980615441250       -6.42996654928158     
  -6.17998057806480       -5.93008029510944       -5.68012742955347     
  -13.1752853976431       -12.9252853976431       -12.6759592454871     
  -12.4264706675253       -12.1768736128700       -11.9272012284908     
  -11.6774744320709       -11.4277069516174       -11.1779082867699     
  -10.9280850421496       -10.6782422137715       -10.4283833780104     
  -10.1785111704057       -9.92862852348050       -9.67873451833171     
  -9.42883714966832       -9.17892099375724       -8.92902353106151     
  -8.67906437917376       -8.42921208384912       -8.17911902540594     
  -7.92946988246243       -7.67891402441093       -7.42981675936161     
  -7.17950619800007       -6.92980831203550       -6.67971959427174     
  -6.42988351581974       -6.17988927359453       -5.92998665454217     
  -5.68002831936682       -13.1752853976431       -12.9252853976431     
  -12.6759591506685       -12.4264705856116       -12.1768736214261     
  -11.9272013886567       -11.6774747964524       -11.4277075663522     
  -11.1779091934677       -10.9280862770421       -10.6782438095068     
  -10.4283853582604       -10.1785135579921       -9.92863131972871     
  -9.67873773819942       -9.42884074806450       -9.17892499436547     
  -8.92902778639118       -8.67906897368841       -8.42921666805888     
  -8.17912380261632       -7.92947434925294       -7.67891773612175     
  -7.42981918665802       -7.17950906898777       -6.92981088869488     
  -6.67972194300743       -6.42988550904857       -6.17989083325220     
  -5.92998766239303       -5.68002863096937       -13.1752853976431     
  -12.9252853976431       -12.6759576324097       -12.4264695407505     
  -12.1768742605320       -11.9272044809249       -11.6774808465899     
  -11.4277169102361       -11.1779220635659       -10.9281028265929     
  -10.6782641684353       -10.4284095867384       -10.1785417931056     
  -9.92866351664227       -9.67877421024671       -9.42888114336480     
  -9.17897027353400       -8.92907650922993       -8.67912431999019     
  -8.42927319658369       -8.17919312134862       -7.92953378028001     
  -7.67902098239666       -7.42984023216738       -7.17961281867419     
  -6.92988931100731       -6.67982015865035       -6.42998066014512     
  -6.17999458091539       -5.93009382375558       -5.68013997155615     
  -13.1752853976431       -12.9252853976431       -12.6759550931535     
  -12.4264689156035       -12.1768781588313       -11.9272144403957     
  -11.6774977550695       -11.4277412476390       -11.1779540635528     
  -10.9281425581334       -10.6783116523541       -10.4284647467582     
  -10.1786047071756       -9.92873400885354       -9.67885277122546     
  -9.42896717466208       -9.17906563610005       -8.92917867290826     
  -8.67923986038240       -8.42939151316982       -8.17933876980079     
  -7.92966084814572       -7.67923587186942       -7.42990450941656     
  -7.17983891345578       -6.93007091756518       -6.68004881235086     
  -6.43020952208171       -6.18024986987466       -5.93036332576776     
  -5.68043143871435       -13.1752853976431       -12.9252853976431     
  -12.6759523691649       -12.4264711966438       -12.1768893798140     
  -11.9272363265006       -11.6775307386114       -11.4277850301688     
  -11.1780079751078       -10.9282057716825       -10.6783833510545     
  -10.4285441357192       -10.1786912360831       -9.92882700719684     
  -9.67895235609107       -9.42907233249313       -9.17917847809627     
  -8.92929546572258       -8.67937035948034       -8.42951905366434     
  -8.17950337507159       -7.92979360618280       -7.67948075646365     
  -7.42996605851347       -7.18010722047926       -6.93029042726972     
  -6.68033782637344       -6.43050292757189       -6.18059253375568     
  -5.93074245829390       -5.68086813683968       -13.1752853976431     
  -12.9252853976431       -12.6759369498329       -12.4264424603277     
  -12.1768453755362       -11.9271728401441       -11.6774426878435     
  -11.4276672676361       -11.1778555675003       -10.9280140845115     
  -10.6781480595037       -10.4282613241328       -10.1783574420656     
  -9.92843937275525       -9.67850875051119       -9.42857100531054     
  -9.17861965108455       -8.92867601736210       -8.67869671395972     
  -8.42877711338365       -8.17870876696290       -7.92892799169300     
  -7.67854741457311       -7.42891457143842       -7.17908108458517     
  -6.92921671245468       -6.67922008949740       -6.42931003092954     
  -6.17938927609816       -5.92952505339083       -5.67975828168051     
  -13.1752853976431       -12.9252853976431       -12.6754933800574     
  -12.4253361633774       -12.1750203421145       -11.9246216077076     
  -11.6741717919994       -11.4236879607664       -11.1731805946423     
  -10.9226577393760       -10.6721231419018       -10.4215874064266     
  -10.1710376047916       -9.92052440492135       -9.66992122441384     
  -9.41957881412352       -9.16862796783424       -8.91907097182973     
  -8.66677577321156       -8.41932949200405       -8.16442265926742     
  -7.91928282286022       -7.66270715654943       -7.41763737010125     
  -7.16127525884886       -6.91443021527530       -6.66358168953340     
  -6.41317586588657       -6.16304550016653       -5.91271604313349     
  -5.66261030143571       -13.1752853976431       -12.9252853976431     
  -12.6749683913285       -12.4244196493343       -12.1737983225646     
  -11.9231601429179       -11.6725217453277       -11.4218891800867     
  -11.1712670527422       -10.9206542709540       -10.6700615963340     
  -10.4194709229016       -10.1689295838449       -9.91835256426928     
  -9.66790333505807       -9.41732959681000       -9.16702050957389     
  -8.91641418838666       -8.66640677310028       -8.41552384190356     
  -8.16615333445452       -7.91491512463506       -7.66524365420303     
  -7.41657096796077       -7.15876169265251       -6.91328201565285     
  -6.66172159075455       -6.41176593790357       -6.16178705930035     
  -5.91166007802873       -5.66183088814877     
  0.000000000000000E+000  0.000000000000000E+000  3.795581042402517E-004
  1.482334226431701E-003  3.356290806730278E-003  6.001301419319947E-003
  9.402655021073248E-003  1.353130048786981E-002  1.835194301173175E-002
  2.381600755565341E-002  2.989021804730610E-002  3.647945207737904E-002
  4.362173413751339E-002  5.103178886894789E-002  5.909356301636954E-002
  6.690044326028582E-002  7.573599383527879E-002  8.376563062166444E-002
  9.196274839050532E-002  0.102941894246663       0.106107566656740     
  0.122077405217743       0.124007468106182       0.135011576814401     
  0.143147823545251       0.154220533548236       0.161413321463877     
  0.169203745802174       0.176010709222209       0.182350619183757     
  0.187335961165278       0.290581825739480       0.290581825739480     
  0.290949976054979       0.289528526223461       0.286633312087242     
  0.282275325646175       0.276514426992249       0.269425042924658     
  0.261072513971467       0.251577646117147       0.240928310157085     
  0.229489884411470       0.216731369567100       0.204188315154924     
  0.189102361399143       0.176868172882197       0.158886240022240     
  0.148801875589417       0.125890785367828       0.123794351234065     
  8.595824439494623E-002  0.107696822237189       3.950374566890694E-002
  8.454590755016828E-002  2.953949366592135E-002  2.635920430090564E-002
  1.176237719624239E-002 -3.719853654292499E-003 -1.492904339925516E-002
 -2.696828900955829E-002 -3.555126736921595E-002   1.14543974346790     
   1.14543974346790        1.14556955709972        1.14555531208435     
   1.14551472404635        1.14543175866181        1.14530127771665     
   1.14512071252408        1.14488680070230        1.14459963966622     
   1.14425265954369        1.14385435634041        1.14338137541480     
   1.14287835506521        1.14224984051620        1.14168763381748     
   1.14080754060616        1.14036925354025        1.13889016693299     
   1.13923781049188        1.13589512292726        1.14000816994563     
   1.12856398830097        1.14334462416319        1.12624031799589     
   1.13480012364603        1.12959917456475        1.12949648639904     
   1.12807136037546        1.12707485898132        1.12608708227609     
   2.51489251828899        2.51489251828899        2.51494376257662     
   2.51494749975667        2.51495226887194        2.51495352704900     
   2.51495013243968        2.51494159659448        2.51492725687114     
   2.51490751270942        2.51488067337027        2.51484984235010     
   2.51480790172067        2.51476980384556        2.51470387264296     
   2.51467688588066        2.51454977235411        2.51461243470128     
   2.51426562136025        2.51474772150837        2.51352105249639     
   2.51580724199269        2.51109152423945        2.51766778646773     
   2.51112836688348        2.51502174150111        2.51336677965074     
   2.51365834481258        2.51350865005008        2.51345532800006     
   2.51336196935246        4.31935253268844        4.31935253268844     
   4.31937471922034        4.31937682438248        4.31938005991690     
   4.31938284457525        4.31938485419322        4.31938599523317     
   4.31938612955106        4.31938548885488        4.31938350115818     
   4.31938135815394        4.31937643205093        4.31937430648497     
   4.31936314181015        4.31936797565231        4.31933643598895     
   4.31937837669464        4.31926524275600        4.31947306098985     
   4.31901764945404        4.31994428837747        4.31807536330722     
   4.32071934677313        4.31817103340029        4.31973286253495     
   4.31912300832470        4.31924931572305        4.31922174129042     
   4.31922358696650        4.31921158116243        6.45395112957464     
   6.45395112957464        6.45396028974189        6.45396086557789     
   6.45396195395127        6.45396293433079        6.45396368762628     
   6.45396418811185        6.45396440318222        6.45396443944295     
   6.45396409606438        6.45396383819939        6.45396267981551     
   6.45396273610726        6.45395952081971        6.45396251503889     
   6.45395187734680        6.45396930563223        6.45392784352628     
   6.45400905172639        6.45383633846960        6.45419500522500     
   6.45347106140013        6.45449530046040        6.45352036189356     
   6.45412227109118        6.45389710699171        6.45394642689093     
   6.45394092906897        6.45394512521921        6.45394463772689     
   8.79463319744677        8.79463319744677        8.79463495602042     
   8.79463439476587        8.79463395078517        8.79463344983349     
   8.79463285384234        8.79463214895695        8.79463132231771     
   8.79463039762630        8.79462931929870        8.79462820451942     
   8.79462679471437        8.79462563399778        8.79462355896966     
   8.79462301813495        8.79461887589818        8.79462193282314     
   8.79460964118364        8.79462912931965        8.79458253561853     
   8.79467423683606        8.79448348421312        8.79474805165398     
   8.79449612304359        8.79465202245928        8.79459492932348     
   8.79460738917592        8.79460668716343        8.79460807370670     
   8.79460856886025        11.2053668025532        11.2053668025532     
   11.2053626225285        11.2053609945871        11.2053591734439     
   11.2053573104223        11.2053554218509        11.2053534950404     
   11.2053515196901        11.2053494479847        11.2053473154789     
   11.2053449802896        11.2053426894179        11.2053398620525     
   11.2053376803453        11.2053336030935        11.2053329037901     
   11.2053244571904        11.2053314314231        11.2053054077729     
   11.2053469355856        11.2052460458742        11.2054359855884     
   11.2051536393891        11.2054164062432        11.2052534857230     
   11.2053125167681        11.2052974717041        11.2052981649450     
   11.2052957724893        11.2052952941246        13.5460488704254     
   13.5460488704254        13.5460373527682        13.5460344299586     
   13.5460309515508        13.5460274915241        13.5460241380773     
   13.5460208822765        13.5460177267124        13.5460145326071     
   13.5460114706751        13.5460080395720        13.5460051996612     
   13.5460007808564        13.5459992731912        13.5459910614420     
   13.5459961375798        13.5459723448690        13.5460074465706     
   13.5459180327446        13.5460844627588        13.5457132468378     
   13.5464363922487        13.5453851974728        13.5463757617976     
   13.5457619048789        13.5459887731118        13.5459336111355     
   13.5459371906649        13.5459290585870        13.5459269873349     
   15.6806474673116        15.6806474673116        15.6806229427968     
   15.6806182225434        15.6806123953437        15.6806069620941     
   15.6806022074242        15.6805981836232        15.6805949954105     
   15.6805923745926        15.6805908547736        15.6805891967713     
   15.6805899891022        15.6805875765817        15.6805938038435     
   15.6805834329557        15.6806090395867        15.6805600561501     
   15.6806662427079        15.6804486362362        15.6808972613671     
   15.6799538094882        15.6818242106339        15.6791357712820     
   15.6817143588716        15.6801307292821        15.6807457511255     
   15.6806084383238        15.6806332294272        15.6806232717668     
   15.6806295907757        17.4851074817110        17.4851074817110     
   17.4850537084102        17.4850470427290        17.4850394609821     
   17.4850354006879        17.4850359716107        17.4850416271875     
   17.4850530042761        17.4850696761740        17.4850933090308     
   17.4851207673713        17.4851591512154        17.4851934393196     
   17.4852553520265        17.4852779043140        17.4854005463670     
   17.4853325284377        17.4856746829645        17.4851853381682     
   17.4864086719351        17.4841098882294        17.4888333018119     
   17.4822056572741        17.4888076251519        17.4848926818201     
   17.4865823473831        17.4862992692097        17.4864869959310     
   17.4865766949165        17.4867288989398        18.8545602565321     
   18.8545602565321        18.8544274856521        18.8544385406183     
   18.8544763012684        18.8545566466087        18.8546847525229     
   18.8548630921133        18.8550949304500        18.8553801999112     
   18.8557252982557        18.8561219198559        18.8565933850299     
   18.8570949322945        18.8577221734126        18.8582831408057     
   18.8591624542297        18.8596002259485        18.8610792531100     
   18.8607343057299        18.8640755389347        18.8599790291432     
   18.8714190976978        18.8566356098575        18.8738236261641     
   18.8653056663583        18.8706285528983        18.8708845374225     
   18.8726479297322        18.8743812836068        18.8782351432517     
   19.7094181742605        19.7094181742605        19.7090465452178     
   19.7104691538776        19.7133700465426        19.7177370619982     
   19.7235092270771        19.7306110384949        19.7389762247353     
   19.7484830456854        19.7591429914422        19.7705897321978     
   19.7833544112733        19.7958997331377        19.8109853714527     
   19.8232164442662        19.8411863489635        19.8512728319971     
   19.8741404247226        19.8762847312785        19.9139810082872     
   19.8924331306920        19.9603078779303        19.9155724285400     
   19.9703321285269        19.9736294192425        19.9881781697841     
   20.0036051017567        20.0148002009081        20.0267364951307     
   20.0352327936617        20.0000000000000        20.0000000000000     
   19.9996169292455        19.9985066785731        19.9966238565468     
   19.9939684633549        19.9905553215281        19.9864137030510     
   19.9815790956310        19.9761002310835        19.9700104106046     
   19.9634047696414        19.9562449832257        19.9488160460766     
   19.9407334665951        19.9329024114037        19.9240416751026     
   19.9159751318055        19.9077506555972        19.8967003371500     
   19.8935175646575        19.8774187653764        19.8754614614603     
   19.8642959319897        19.8560618122662        19.8448354933629     
   19.8374401433863        19.8293786175700        19.8221925963710     
   19.8153190665779        19.8095775028035     
 -6.536680706074363E-003 -6.536680706074363E-003  1.900900758832315E-004
  7.594387648389447E-003  1.534588169747874E-002  2.323174965499088E-002
  3.109585726309605E-002  3.881540444580769E-002  4.628957837499750E-002
  5.343239431459346E-002  6.016942901003506E-002  6.643824459728323E-002
  7.216351859265019E-002  7.736388328197752E-002  8.180240604850142E-002
  8.596140290145016E-002  8.866280881284544E-002  9.230138723837082E-002
  9.224840499579311E-002  9.707155637736110E-002  9.050484151497916E-002
  0.103979037272920       8.169539301479126E-002  0.107025899443628     
  8.745581620573936E-002  8.825409976408674E-002  8.500902129278322E-002
  7.867210499142821E-002  7.384962908875511E-002  6.761011546525196E-002
  6.206158234269272E-002 -6.536680706074363E-003 -6.536680706074363E-003
 -2.635168491784618E-002 -4.503998238738151E-002 -6.283663549460711E-002
 -7.980617588253358E-002 -9.594740986306401E-002 -0.111228193592864     
 -0.125603653444783      -0.139014420650498      -0.151410868367173     
 -0.162733510214933      -0.172886199727431      -0.182052986036062     
 -0.189348365629230      -0.197346550295546      -0.199136002032114     
 -0.210884683883135      -0.198182992639961      -0.228831442756132     
 -0.178454818906980      -0.255944571696463      -0.145184509336488     
 -0.249597365185878      -0.172221667703563      -0.203167415725225     
 -0.187994124050986      -0.178376361282128      -0.173738111836387     
 -0.163360841247864      -0.156918647719198      -6.536680706074363E-003
 -6.536680706074363E-003 -2.006117700396220E-002 -3.203966268704615E-002
 -4.307195560487398E-002 -5.345860321476300E-002 -6.337244724593548E-002
 -7.292145391384354E-002 -8.217809099515865E-002 -9.119135354633366E-002
 -9.999926392648677E-002 -0.108624218174039      -0.117092963992496     
 -0.125407615457525      -0.133595531494504      -0.141644385144307     
 -0.149547216631852      -0.157419427501302      -0.164769764178090     
 -0.173020232587086      -0.178189984780515      -0.188937249107310     
 -0.189234238424117      -0.191804284732197      -0.209814228629298     
 -0.214151747513529      -0.223450013527487      -0.228938378675657     
 -0.236425304272088      -0.242003698684441      -0.247507128000830     