 Title = "Wing and Wake"
 VARIABLES = "X" "Y" "Z" "GAM"
 Zone I=    5 J=   14 K=1  T="Blade"
 DATAPACKING=BLOCK
 VARLOCATION=([4]=CELLCENTERED)
  -11.7461946980917       -11.4971460235688       -11.2480973490459     
  -10.9990486745229       -10.7500000000000       -11.7461946980917     
  -11.4971460235688       -11.2480973490459       -10.9990486745229     
  -10.7500000000000       -11.7461946980917       -11.4971460235688     
  -11.2480973490459       -10.9990486745229       -10.7500000000000     
  -11.7461946980917       -11.4971460235688       -11.2480973490459     
  -10.9990486745229       -10.7500000000000       -11.7461946980917     
  -11.4971460235688       -11.2480973490459       -10.9990486745229     
  -10.7500000000000       -11.7461946980917       -11.4971460235688     
  -11.2480973490459       -10.9990486745229       -10.7500000000000     
  -11.7461946980917       -11.4971460235688       -11.2480973490459     
  -10.9990486745229       -10.7500000000000       -11.7461946980917     
  -11.4971460235688       -11.2480973490459       -10.9990486745229     
  -10.7500000000000       -11.7461946980917       -11.4971460235688     
  -11.2480973490459       -10.9990486745229       -10.7500000000000     
  -11.7461946980917       -11.4971460235688       -11.2480973490459     
  -10.9990486745229       -10.7500000000000       -11.7461946980917     
  -11.4971460235688       -11.2480973490459       -10.9990486745229     
  -10.7500000000000       -11.7461946980917       -11.4971460235688     
  -11.2480973490459       -10.9990486745229       -10.7500000000000     
  -11.7461946980917       -11.4971460235688       -11.2480973490459     
  -10.9990486745229       -10.7500000000000       -11.7461946980917     
  -11.4971460235688       -11.2480973490459       -10.9990486745229     
  -10.7500000000000     
  0.000000000000000E+000  0.000000000000000E+000  0.000000000000000E+000
  0.000000000000000E+000  0.000000000000000E+000  0.290581825739480     
  0.290581825739480       0.290581825739480       0.290581825739480     
  0.290581825739480        1.14543974346790        1.14543974346790     
   1.14543974346790        1.14543974346790        1.14543974346790     
   2.51489251828899        2.51489251828899        2.51489251828899     
   2.51489251828899        2.51489251828899        4.31935253268844     
   4.31935253268844        4.31935253268844        4.31935253268844     
   4.31935253268844        6.45395112957464        6.45395112957464     
   6.45395112957464        6.45395112957464        6.45395112957464     
   8.79463319744677        8.79463319744677        8.79463319744677     
   8.79463319744677        8.79463319744677        11.2053668025532     
   11.2053668025532        11.2053668025532        11.2053668025532     
   11.2053668025532        13.5460488704254        13.5460488704254     
   13.5460488704254        13.5460488704254        13.5460488704254     
   15.6806474673116        15.6806474673116        15.6806474673116     
   15.6806474673116        15.6806474673116        17.4851074817110     
   17.4851074817110        17.4851074817110        17.4851074817110     
   17.4851074817110        18.8545602565321        18.8545602565321     
   18.8545602565321        18.8545602565321        18.8545602565321     
   19.7094181742605        19.7094181742605        19.7094181742605     
   19.7094181742605        19.7094181742605        20.0000000000000     
   20.0000000000000        20.0000000000000        20.0000000000000     
   20.0000000000000     
  8.715574274765817E-002  6.536680706074363E-002  4.357787137382908E-002
  2.178893568691454E-002  0.000000000000000E+000  8.715574274765817E-002
  6.536680706074363E-002  4.357787137382908E-002  2.178893568691454E-002
  0.000000000000000E+000  8.715574274765817E-002  6.536680706074363E-002
  4.357787137382908E-002  2.178893568691454E-002  0.000000000000000E+000
  8.715574274765817E-002  6.536680706074363E-002  4.357787137382908E-002
  2.178893568691454E-002  0.000000000000000E+000  8.715574274765817E-002
  6.536680706074363E-002  4.357787137382908E-002  2.178893568691454E-002
  0.000000000000000E+000  8.715574274765817E-002  6.536680706074363E-002
  4.357787137382908E-002  2.178893568691454E-002  0.000000000000000E+000
  8.715574274765817E-002  6.536680706074363E-002  4.357787137382908E-002
  2.178893568691454E-002  0.000000000000000E+000  8.715574274765817E-002
  6.536680706074363E-002  4.357787137382908E-002  2.178893568691454E-002
  0.000000000000000E+000  8.715574274765817E-002  6.536680706074363E-002
  4.357787137382908E-002  2.178893568691454E-002  0.000000000000000E+000
  8.715574274765817E-002  6.536680706074363E-002  4.357787137382908E-002
  2.178893568691454E-002  0.000000000000000E+000  8.715574274765817E-002
  6.536680706074363E-002  4.357787137382908E-002  2.178893568691454E-002
  0.000000000000000E+000  8.715574274765817E-002  6.536680706074363E-002
  4.357787137382908E-002  2.178893568691454E-002  0.000000000000000E+000
  8.715574274765817E-002  6.536680706074363E-002  4.357787137382908E-002
  2.178893568691454E-002  0.000000000000000E+000  8.715574274765817E-002
  6.536680706074363E-002  4.357787137382908E-002  2.178893568691454E-002
  0.000000000000000E+000
  0.752896617700320        1.01372567954781        1.15566345338605     
   1.23110000834455        1.08723597454019        1.52828987328474     
   1.78020238407048        1.91439402125770        1.26565054260838     
   1.79959949972095        2.11493979547591        2.28697191440634     
   1.35056763352274        1.92543848854930        2.26777129860918     
   2.45580133599016        1.39025585329581        1.98339225566202     
   2.33733944273478        2.53202888936311        1.40781177629845     
   2.00881590776987        2.36763987955633        2.56504147258314     
   1.41265103754740        2.01579323208216        2.37592446782805     
   2.57404343046673        1.40742254981028        2.00824270928818     
   2.36695055497573        2.56429549036656        1.38980771931743     
   1.98271837513720        2.33651286730231        2.53111800179972     
   1.35050285700245        1.92530419284488        2.26756537994787     
   2.45553408352086        1.26615084764915        1.80027304391967     
   2.11568007381325        2.28770574400635        1.08807471670633     
   1.52943855247843        1.78149708307135        1.91572025948980     
  0.753604373333316        1.01465172691727        1.15669227773590     
   1.23215876296702     
 Zone I=   31 J=   14 K=1  T="NearWake"
 DATAPACKING=BLOCK
 VARLOCATION=([4]=CELLCENTERED)
  -10.6752853976431       -10.4252853976431       -10.1749761173296     
  -9.92443899087060       -9.67384228662895       -9.42321753422989     
  -9.17264546683951       -8.92199852851782       -8.67155958811488     
  -8.42080989685455       -8.17070906119003       -7.91962602318598     
  -7.67005051553533       -7.41873181708549       -7.16615226599025     
  -6.91750180047619       -6.66666248467078       -6.41645091277507     
  -6.16611192790642       -5.91582056076723       -5.66563321165990     
  -5.41550143249076       -5.16548317927067       -4.91556790394396     
  -4.66579272916297       -4.41617272355024       -4.16674299002457     
  -3.91753500967469       -3.66858982288837       -3.41994530354876     
  -3.17160619566316       -10.6752853976431       -10.4252853976431     
  -10.1755073291309       -9.92537155312532       -9.67508786277276     
  -9.42471792897343       -9.17431780531330       -8.92387747738399     
  -8.67339510596500       -8.42305983109192       -8.17226728319878     
  -7.92234976921608       -7.67095646225889       -7.42095736051701     
  -7.16946708378282       -6.91986822898643       -6.66943647176547     
  -6.41897130595601       -6.16861968592608       -5.91819599138258     
  -5.66784259454469       -5.41748472414171       -5.16717796620583     
  -4.91689939337604       -4.66667155096535       -4.41649467467487     
  -4.16638340427961       -3.91634892816605       -3.66641063298546     
  -3.41659546100832       -3.16695222734075       -10.6752853976431     
  -10.4252853976431       -10.1759430747337       -9.92645553223141     
  -9.67686895393100       -9.42720594134180       -9.17749356637927     
  -8.92772915861277       -8.67794289764098       -8.42811629986174     
  -8.17827185323088       -7.92842680711824       -7.67852427682832     
  -7.42843125661025       -7.17916476111405       -6.92902306623433     
  -6.67918780920440       -6.42922845232014       -6.17934134169671     
  -5.92944262553783       -5.67956867140177       -5.42970664026820     
  -5.17986517766960       -4.93004425688680       -4.68024770100461     
  -4.43047731521266       -4.18073505508588       -3.93102116254036     
  -3.68133385787672       -3.43166741927700       -3.18200980679402     
  -10.6752853976431       -10.4252853976431       -10.1759576316294     
  -9.92648128065216       -9.67690689144220       -9.42725882784727     
  -9.17756585241719       -8.92782374175435       -8.67806535697902     
  -8.42826724161886       -8.17846086922297       -7.92863940455460     
  -7.67878777193212       -7.42872743767086       -7.17947835764292     
  -6.92940108851050       -6.67961068907225       -6.42971841856354     
  -6.17986380513589       -5.93000173551183       -5.68014637121813     
  -5.43029481667550       -5.18044739831977       -4.93060437589668     
  -4.68076472477122       -4.43092734533009       -4.18108970212996     
  -3.93124780269331       -3.68139506883984       -3.43152063664841     
  -3.18160632414119       -10.6752853976431       -10.4252853976431     
  -10.1759598869548       -9.92647742996883       -9.67689259130657     
  -9.42723212074343       -9.17752551347541       -8.92777063795596     
  -8.67799690425601       -8.42818918201767       -8.17836015082015     
  -7.92853978867953       -7.67863993420533       -7.42862493657318     
  -7.17929958631343       -6.92923687631163       -6.67941088260678     
  -6.42951186040248       -6.17963060646956       -5.92974800654973     
  -5.67986284188155       -5.42997941171832       -5.18009341534994     
  -4.93020671324211       -4.68031673674005       -4.43042252935933     
  -4.18052097567635       -3.93060801491126       -3.68067690309549     
  -3.43071672197774       -3.18070914972365       -10.6752853976431     
  -10.4252853976431       -10.1759619413411       -9.92647675940763     
  -9.67688633262319       -9.42721876129168       -9.17750333299056     
  -8.92774031257292       -8.67795457448167       -8.42814120109329     
  -8.17829190274401       -7.92847782725911       -7.67853118259538     
  -7.42856272647511       -7.17916897591769       -6.92912189406274     
  -6.67926924388585       -6.42936456736575       -6.17946550872667     
  -5.92957030122867       -5.67966863174894       -5.42976942799867     
  -5.17986605362342       -4.92996162773732       -4.68005310574285     
  -4.43013998563417       -4.18021922079524       -3.93028706940342     
  -3.68033703411941       -3.43035848277973       -3.18033331550408     
  -10.6752853976431       -10.4252853976431       -10.1759630394305     
  -9.92647696055330       -9.67688438452801       -9.42721399559734     
  -9.17749481666659       -8.92772845096310       -8.67793709959759     
  -8.42812168267540       -8.17826203325039       -7.92845249656434     
  -7.67848028601083       -7.42853807744036       -7.17910799589524     
  -6.92907027683142       -6.67920531726718       -6.42929871832750     
  -6.17939225109702       -5.92949229472148       -5.67958450838454     
  -5.42967990495766       -5.17977089426538       -4.92986115394289     
  -4.67994746681558       -4.43002951893993       -4.18010428093622     
  -3.93016810399457       -3.68021453372858       -3.43023297290874     
  -3.18020530983394       -10.6752853976431       -10.4252853976431     
  -10.1759629398052       -9.92647684148824       -9.67688427137533     
  -9.42721387876447       -9.17749468208363       -8.92772821650894     
  -8.67793675636978       -8.42812102192416       -8.17826111016528     
  -7.92845098225978       -7.67847809067595       -7.42853469240698     
  -7.17910428860090       -6.92906598436288       -6.67920046849910     
  -6.42929325554701       -6.17938613288011       -5.92948546768556     
  -5.67957691760460       -5.42967149168198       -5.17976159759452     
  -4.92985091128276       -4.67993621486137       -4.43001719464293     
  -4.18009082264106       -3.93015345258341       -3.68019863359347     
  -3.43021577190587       -3.18018675326688       -10.6752853976431     
  -10.4252853976431       -10.1759617540359       -9.92647656598059     
  -9.67688619747286       -9.42721866983924       -9.17750325918876     
  -8.92774006780025       -8.67795414003360       -8.42814007276586     
  -8.17829021212645       -7.92847474326452       -7.67852648506403     
  -7.42855505509529       -7.17916048629343       -6.92911189906250     
  -6.67925777515581       -6.42935144689759       -6.17945058335668     
  -5.92955337834457       -5.67964949895523       -5.42974784607352     
  -5.17984175698584       -4.92993432269485       -4.68002246988309     
  -4.43010566765564       -4.18018084146670       -3.93024422344612     
  -3.68028929254645       -3.43030539178063       -3.18027436611710     
  -10.6752853976431       -10.4252853976431       -10.1759598272618     
  -9.92647743514719       -9.67689272246333       -9.42723238048574     
  -9.17752589686714       -8.92777099169654       -8.67799722997125     
  -8.42818900879308       -8.17835964180732       -7.92853806208976     
  -7.67863685448162       -7.42861892669205       -7.17929279330658     
  -6.92922856042355       -6.67940103478518       -6.42950029727198     
  -6.17961714601920       -5.92973242411860       -5.67984487313067     
  -5.42995873951061       -5.18006965322370       -4.93017938185885     
  -4.68028523138374       -4.43038607583473       -4.18047857280753     
  -3.93055836061739       -3.68061830112339       -3.43064695406222     
  -3.18062519928180       -10.6752853976431       -10.4252853976431     
  -10.1759578317574       -9.92648159017428       -9.67690729973201     
  -9.42725934069541       -9.17756648444702       -8.92782447815210     
  -8.67806622495567       -8.42826810875157       -8.17846188088165     
  -7.92864009457729       -7.67878829569504       -7.42872697215785     
  -7.17947739534943       -6.92939927323611       -6.67960789688296     
  -6.42971459942033       -6.17985888505861       -5.92999568833713     
  -5.68013921980230       -5.43028667691732       -5.18043852539194     
  -4.93059523693111       -4.68075609732169       -4.43092044279929     
  -4.18108631343335       -3.93125038754635       -3.68140665782588     
  -3.43154416801996       -3.18164236262760       -10.6752853976431     
  -10.4252853976431       -10.1759435194847       -9.92645607648241     
  -9.67686947537165       -9.42720642330744       -9.17749402880682     
  -8.92772973273381       -8.67794362861678       -8.42811743543291     
  -8.17827352068359       -7.92842901323333       -7.67852748240735     
  -7.42843601298892       -7.17916903812093       -6.92902690939874     
  -6.67919070476999       -6.42923022168710       -6.17934161754757     
  -5.92944102752394       -5.67956471049358       -5.42969972836702     
  -5.17985459600049       -4.93002915371734       -4.68022711446083     
  -4.43045027262887       -4.18070085492325       -3.93098010467550     
  -3.68128932886735       -3.43163394818736       -3.18207553274319     
  -10.6752853976431       -10.4252853976431       -10.1755070932324     
  -9.92537000944889       -9.67508494533683       -9.42471390448620     
  -9.17431301795136       -8.92387242360099       -8.67339012440056     
  -8.42305532335982       -8.17226402080411       -7.92234686797715     
  -7.67095724413660       -7.42096388260588       -7.16947362247990     
  -6.91987457386521       -6.66944253503313       -6.41897674909690     
  -6.16862441448655       -5.91819985661222       -5.66784542312566     
  -5.41748632136027       -5.16717808843478       -4.91689775000528     
  -4.66666777363231       -4.41648828406838       -4.16637375546539     
  -3.91633517113846       -3.66639158123742       -3.41656896883539     
  -3.16691134849422       -10.6752853976431       -10.4252853976431     
  -10.1749768232644       -9.92444074064124       -9.67384546753913     
  -9.42322250306375       -9.17265257746219       -8.92200799147315     
  -8.67157169398422       -8.42082456197687       -8.17072616148816     
  -7.91964588829550       -7.67006955594617       -7.41875100895304     
  -7.16617206430601       -6.91752233893582       -6.66668370224430     
  -6.41647282290256       -6.16613438224404       -5.91584336289136     
  -5.66565597210619       -5.41552355782820       -5.16550370963582     
  -4.91558534393805       -4.66580473409993       -4.41617564811992     
  -4.16673115714515       -3.91749964990102       -3.66851769283851     
  -3.41981767716454       -3.17140086580598     
  0.000000000000000E+000  0.000000000000000E+000  3.709886018991225E-004
  1.447570015240793E-003  3.283250600206116E-003  5.835029815298719E-003
  9.198750828122840E-003  1.300325647858027E-002  1.804167051703143E-002
  2.231298702163219E-002  2.986961786191736E-002  3.261408651530119E-002
  4.511783899585718E-002  4.372466020834708E-002  6.014049805912089E-002
  6.632185569513924E-002  7.521666951984152E-002  8.418089812421789E-002
  9.288781594822565E-002  0.101809541686521       0.110480404616996     
  0.119069969172656       0.127352011377937       0.135333838000766     
  0.142904244399037       0.150015661076450       0.156588024777040     
  0.162551402992938       0.167810396823689       0.172207973268634     
  0.175336630078216       0.290581825739480       0.290581825739480     
  0.290941498257607       0.289538346911537       0.286641102889576     
  0.282485002988610       0.276472021157855       0.270500342056703     
  0.260286351766048       0.255637864436389       0.236457830133213     
  0.242411509395188       0.202352374086157       0.228535348907867     
  0.179845197908752       0.179477221893425       0.160166387413055     
  0.144126692980618       0.129374286410511       0.112791564996820     
  9.755392566273996E-002  8.189059110048375E-002  6.699787770026625E-002
  5.240934047020471E-002  3.853948846173315E-002  2.532856662955514E-002
  1.296033976821247E-002  1.501634009221145E-003 -8.881167680856113E-003
 -1.790465085217636E-002 -2.467034469064044E-002   1.14543974346790     
   1.14543974346790        1.14556495196257        1.14554938584821     
   1.14549974545387        1.14543603787614        1.14525281485979     
   1.14520497742767        1.14467733961735        1.14506238712183     
   1.14329106282802        1.14595958195506        1.13967620738151     
   1.14776038955698        1.13861862241680        1.14325946091534     
   1.14045659326180        1.14020425180195        1.13929337100063     
   1.13843052584348        1.13747839455193        1.13649105464765     
   1.13546659321250        1.13441412468260        1.13334688496840     
   1.13227955514075        1.13123498971038        1.13024234996598     
   1.12934249681157        1.12858783410308        1.12803903558423     
   2.51489251828899        2.51489251828899        2.51494051387581     
   2.51494242528898        2.51494237314972        2.51494813093608     
   2.51492437045619        2.51495790723549        2.51483987849626     
   2.51504896586974        2.51452127544283        2.51558927151038     
   2.51338020504862        2.51652782987389        2.51332356680709     
   2.51524171037574        2.51441342491269        2.51451202241148     
   2.51442551006053        2.51435915817701        2.51428207652601     
   2.51420507544359        2.51413041258230        2.51405831905320     
   2.51399163448632        2.51393168605055        2.51388098299456     
   2.51384128678527        2.51381424195625        2.51379998447934     
   2.51379387946952        4.31935253268844        4.31935253268844     
   4.31937249033812        4.31937324855254        4.31937390479714     
   4.31937769007675        4.31937124453042        4.31938778478600     
   4.31934803017622        4.31943443951199        4.31924039087183     
   4.31966283623604        4.31880855625896        4.32004711890049     
   4.31882559206829        4.31958726979666        4.31929252160528     
   4.31934698150316        4.31934092466442        4.31934126798544     
   4.31934067886336        4.31934077552579        4.31934303035609     
   4.31934662207722        4.31935219613817        4.31935946209092     
   4.31936852971741        4.31937906643079        4.31939057112202     
   4.31940183891802        4.31940964546881        6.45395112957464     
   6.45395112957464        6.45395887948362        6.45395854376774     
   6.45395822009598        6.45395917235109        6.45395628030066     
   6.45396229145000        6.45394696016350        6.45397992325833     
   6.45390595597066        6.45406820766464        6.45373958495105     
   6.45421543356048        6.45375302284761        6.45404619769006     
   6.45393946496739        6.45396280099082        6.45396527654249     
   6.45396964951998        6.45397407663327        6.45397861533758     
   6.45398389139252        6.45398938698280        6.45399522560843     
   6.45400113644025        6.45400700399661        6.45401254865946     
   6.45401743544268        6.45402108905423        6.45402222813510     
   8.79463319744677        8.79463319744677        8.79463413409674     
   8.79463284090465        8.79463149090352        8.79463041882931     
   8.79462826777446        8.79462838883672        8.79462286117686     
   8.79462989348562        8.79460894736667        8.79464969797856     
   8.79456207249613        8.79468472244752        8.79456508447787     
   8.79464140827956        8.79461441329210        8.79462064903893     
   8.79462185582438        8.79462342618628        8.79462510186179     
   8.79462678049168        8.79462866383926        8.79463058509354     
   8.79463257698385        8.79463455706770        8.79463649192876     
   8.79463830645220        8.79463991767842        8.79464118917164     
   8.79464182802521        11.2053668025532        11.2053668025532     
   11.2053621981015        11.2053598313297        11.2053572821193     
   11.2053542236166        11.2053519702917        11.2053471769809     
   11.2053477480636        11.2053354122806        11.2053509561027     
   11.2053041160217        11.2053868457645        11.2052570794915     
   11.2053786626087        11.2053004413075        11.2053275617691     
   11.2053205030235        11.2053190903414        11.2053171411952     
   11.2053153489839        11.2053136166922        11.2053118749713     
   11.2053102531312        11.2053087715338        11.2053075214281     
   11.2053065711183        11.2053060214807        11.2053059934852     
   11.2053066728958        11.2053084636775        13.5460488704254     
   13.5460488704254        13.5460372773712        13.5460335900012     
   13.5460295807762        13.5460239742605        13.5460218067316     
   13.5460103329801        13.5460197255826        13.5459802711613     
   13.5460474473487        13.5458772901335        13.5461993961972     
   13.5457136035729        13.5461777376171        13.5458809393689     
   13.5459867297259        13.5459609636420        13.5459568210164     
   13.5459503723138        13.5459441174062        13.5459376888543     
   13.5459306752021        13.5459235413783        13.5459162673440     
   13.5459091608149        13.5459024292325        13.5458964392446     
   13.5458916479930        13.5458887881123        13.5458894303743     
   15.6806474673116        15.6806474673116        15.6806234397141     
   15.6806181696331        15.6806126035425        15.6806034665435     
   15.6806039678504        15.6805808843722        15.6806133233954     
   15.6805187230495        15.6807039225371        15.6802708645580     
   15.6811160060384        15.6798629320725        15.6810858212655     
   15.6803172572892        15.6806091051845        15.6805489747972     
   15.6805503353035        15.6805441537120        15.6805388987784     
   15.6805322800929        15.6805231602508        15.6805121467399     
   15.6804987060748        15.6804830902856        15.6804652859861     
   15.6804457289882        15.6804251537738        15.6804051591451     
   15.6803898099930        17.4851074817110        17.4851074817110     
   17.4850552138342        17.4850484432069        17.4850432014985     
   17.4850316414660        17.4850489178170        17.4850081990326     
   17.4851180722131        17.4848997991290        17.4854172208120     
   17.4843373088692        17.4865346203522        17.4833701054715     
   17.4865756203318        17.4846478932589        17.4854724408121     
   17.4853657670045        17.4854458495967        17.4855038889253     
   17.4855727860272        17.4856405330510        17.4857055609990     
   17.4857672737329        17.4858231590819        17.4858719015650     
   17.4859113127656        17.4859398836114        17.4859562950138     
   17.4859604089567        17.4859559760195        18.8545602565321     
   18.8545602565321        18.8544305779837        18.8544411411252     
   18.8544854653048        18.8545434516460        18.8547203235464     
   18.8547611901391        18.8552808663214        18.8548870884261     
   18.8566479349994        18.8539696983100        18.8602376583058     
   18.8521406156031        18.8612823721262        18.8566333924090     
   18.8594337128539        18.8596795673501        18.8605863145931     
   18.8614439618099        18.8623923725662        18.8633768322619     
   18.8644010794025        18.8654573433075        18.8665358579501     
   18.8676276503241        18.8687216936599        18.8698146286098     
   18.8709332192025        18.8722599232667        18.8752077369474     
   19.7094181742605        19.7094181742605        19.7090539199097     
   19.7104540026696        19.7133492452121        19.7175034264775     
   19.7235137154119        19.7294808681064        19.7396888659421     
   19.7443275873383        19.7634963298221        19.7575327691885     
   19.7975648877780        19.7713838178880        19.8200686609029     
   19.8204333175172        19.8397418240746        19.8557762394893     
   19.8705250817920        19.8871017292880        19.9023334241596     
   19.9179885170582        19.9328720135149        19.9474484455499     
   19.9613034762064        19.9744945195655        19.9868358844709     
   19.9982566757847        20.0085856792402        20.0175341900965     
   20.0242086324688        20.0000000000000        20.0000000000000     
   19.9996244169906        19.9985411146983        19.9966978838233     
   19.9941377926576        19.9907647054590        19.9869502093231     
   19.9819001176849        19.9776168324353        19.9700448514433     
   19.9672853225096        19.9547559139540        19.9561357462226     
   19.9397018427971        19.9335045957286        19.9245895037810     
   19.9156022881099        19.9068677251180        19.8979132519197     
   19.8892029340756        19.8805653772405        19.8722241138344     
   19.8641683740075        19.8565040296735        19.8492706006011     
   19.8425353560970        19.8363483891531        19.8307746246716     
   19.8259278359712        19.8221650590764     
 -6.536680706074363E-003 -6.536680706074363E-003  4.872998770279625E-005
  7.278989326707177E-003  1.483045847539870E-002  2.246833192831119E-002
  3.006751216383130E-002  3.745659023108706E-002  4.457838355461506E-002
  5.142717637904076E-002  5.724848529602031E-002  6.467377718559325E-002
  6.724186332757165E-002  7.682824251764986E-002  7.838091447490468E-002
  8.203830995032473E-002  8.496630851681709E-002  8.615748818536881E-002
  8.723239996298186E-002  8.714263946051670E-002  8.648249411662474E-002
  8.492626363024357E-002  8.268397667449012E-002  7.967931604805631E-002
  7.601250927061906E-002  7.169460461297814E-002  6.680024089931098E-002
  6.138901783974627E-002  5.556445582682353E-002  4.949859410712215E-002
  4.362768881324202E-002 -6.536680706074363E-003 -6.536680706074363E-003
 -2.632863677731115E-002 -4.497933028519301E-002 -6.275401077873204E-002
 -7.963427063031048E-002 -9.579764508206857E-002 -0.110914499169614     
 -0.125012053867635      -0.139452004597707      -0.148532255828620     
 -0.166250119181764      -0.165201780533406      -0.183639286518193     
 -0.188981324705411      -0.199697725547965      -0.204730650744961     
 -0.208542084384326      -0.212717493091412      -0.214260364197794     
 -0.215480461299165      -0.215034577143598      -0.213902827228760     
 -0.211648052728266      -0.208715627962493      -0.205063840809537     
 -0.200973431486321      -0.196595132970021      -0.192235046560283     
 -0.188298876369716      -0.185741948060679      -6.536680706074363E-003
 -6.536680706074363E-003 -2.008679052336742E-002 -3.208918184309637E-002
 -4.316635402557430E-002 -5.356150918648597E-002 -6.354981889091954E-002
 -7.303296747861431E-002 -8.243564974270032E-002 -9.115909800299384E-002
 -0.100224099757407      -0.108121594557286      -0.116909878345782     
 -0.116808539979616      -0.139767167449417      -0.141714878138892     
 -0.153491214240408      -0.160020892833689      -0.169244987039886     
 -0.177032271270913      -0.185486419665202      -0.193566918808674     
 -0.201794408589181      -0.209902134373469      -0.218006516337616     
 -0.226017040401509      -0.233922385778747      -0.241633445500727     
 -0.249040469538673      -0.255951182064936      -0.262023547175046     