 Title = "Wing and Wake"
 VARIABLES = "X" "Y" "Z" "GAM"
 Zone I=    5 J=   14 K=1  T="Blade"
 DATAPACKING=BLOCK
 VARLOCATION=([4]=CELLCENTERED)
  -11.4961946980917       -11.2471460235688       -10.9980973490459     
  -10.7490486745229       -10.5000000000000       -11.4961946980917     
  -11.2471460235688       -10.9980973490459       -10.7490486745229     
  -10.5000000000000       -11.4961946980917       -11.2471460235688     
  -10.9980973490459       -10.7490486745229       -10.5000000000000     
  -11.4961946980917       -11.2471460235688       -10.9980973490459     
  -10.7490486745229       -10.5000000000000       -11.4961946980917     
  -11.2471460235688       -10.9980973490459       -10.7490486745229     
  -10.5000000000000       -11.4961946980917       -11.2471460235688     
  -10.9980973490459       -10.7490486745229       -10.5000000000000     
  -11.4961946980917       -11.2471460235688       -10.9980973490459     
  -10.7490486745229       -10.5000000000000       -11.4961946980917     
  -11.2471460235688       -10.9980973490459       -10.7490486745229     
  -10.5000000000000       -11.4961946980917       -11.2471460235688     
  -10.9980973490459       -10.7490486745229       -10.5000000000000     
  -11.4961946980917       -11.2471460235688       -10.9980973490459     
  -10.7490486745229       -10.5000000000000       -11.4961946980917     
  -11.2471460235688       -10.9980973490459       -10.7490486745229     
  -10.5000000000000       -11.4961946980917       -11.2471460235688     
  -10.9980973490459       -10.7490486745229       -10.5000000000000     
  -11.4961946980917       -11.2471460235688       -10.9980973490459     
  -10.7490486745229       -10.5000000000000       -11.4961946980917     
  -11.2471460235688       -10.9980973490459       -10.7490486745229     
  -10.5000000000000     
  0.000000000000000E+000  0.000000000000000E+000  0.000000000000000E+000
  0.000000000000000E+000  0.000000000000000E+000  0.290581825739480     
  0.290581825739480       0.290581825739480       0.290581825739480     
  0.290581825739480        1.14543974346790        1.14543974346790     
   1.14543974346790        1.14543974346790        1.14543974346790     
   2.51489251828899        2.51489251828899        2.51489251828899     
   2.51489251828899        2.51489251828899        4.31935253268844     
   4.31935253268844        4.31935253268844        4.31935253268844     
   4.31935253268844        6.45395112957464        6.45395112957464     
   6.45395112957464        6.45395112957464        6.45395112957464     
   8.79463319744677        8.79463319744677        8.79463319744677     
   8.79463319744677        8.79463319744677        11.2053668025532     
   11.2053668025532        11.2053668025532        11.2053668025532     
   11.2053668025532        13.5460488704254        13.5460488704254     
   13.5460488704254        13.5460488704254        13.5460488704254     
   15.6806474673116        15.6806474673116        15.6806474673116     
   15.6806474673116        15.6806474673116        17.4851074817110     
   17.4851074817110        17.4851074817110        17.4851074817110     
   17.4851074817110        18.8545602565321        18.8545602565321     
   18.8545602565321        18.8545602565321        18.8545602565321     
   19.7094181742605        19.7094181742605        19.7094181742605     
   19.7094181742605        19.7094181742605        20.0000000000000     
   20.0000000000000        20.0000000000000        20.0000000000000     
   20.0000000000000     
  8.715574274765817E-002  6.536680706074363E-002  4.357787137382908E-002
  2.178893568691454E-002  0.000000000000000E+000  8.715574274765817E-002
  6.536680706074363E-002  4.357787137382908E-002  2.178893568691454E-002
  0.000000000000000E+000  8.715574274765817E-002  6.536680706074363E-002
  4.357787137382908E-002  2.178893568691454E-002  0.000000000000000E+000
  8.715574274765817E-002  6.536680706074363E-002  4.357787137382908E-002
  2.178893568691454E-002  0.000000000000000E+000  8.715574274765817E-002
  6.536680706074363E-002  4.357787137382908E-002  2.178893568691454E-002
  0.000000000000000E+000  8.715574274765817E-002  6.536680706074363E-002
  4.357787137382908E-002  2.178893568691454E-002  0.000000000000000E+000
  8.715574274765817E-002  6.536680706074363E-002  4.357787137382908E-002
  2.178893568691454E-002  0.000000000000000E+000  8.715574274765817E-002
  6.536680706074363E-002  4.357787137382908E-002  2.178893568691454E-002
  0.000000000000000E+000  8.715574274765817E-002  6.536680706074363E-002
  4.357787137382908E-002  2.178893568691454E-002  0.000000000000000E+000
  8.715574274765817E-002  6.536680706074363E-002  4.357787137382908E-002
  2.178893568691454E-002  0.000000000000000E+000  8.715574274765817E-002
  6.536680706074363E-002  4.357787137382908E-002  2.178893568691454E-002
  0.000000000000000E+000  8.715574274765817E-002  6.536680706074363E-002
  4.357787137382908E-002  2.178893568691454E-002  0.000000000000000E+000
  8.715574274765817E-002  6.536680706074363E-002  4.357787137382908E-002
  2.178893568691454E-002  0.000000000000000E+000  8.715574274765817E-002
  6.536680706074363E-002  4.357787137382908E-002  2.178893568691454E-002
  0.000000000000000E+000
  0.752320453251322        1.01288821739461        1.15463215802529     
   1.22990689345288        1.08631288819348        1.52690492283026     
   1.77846919579183        1.91237303240965        1.26437784165036     
   1.79767564578975        2.11251906602763        2.28414183082351     
   1.34897111388820        1.92302355925751        2.26473281655960     
   2.45225275473044        1.38839905349887        1.98058496062054     
   2.33380997682390        2.52791159589535        1.40579481131462     
   2.00576778930286        2.36380966633948        2.56057620863733     
   1.41059182137788        2.01268181668824        2.37201531923436     
   2.56948665835914        1.40543183363018        2.00523493256149     
   2.36317142387523        2.55988946292796        1.38797335339298     
   1.97994761148016        2.33303211489708        2.52705990293624     
   1.34888864868517        1.92286809146551        2.26450718777019     
   2.45197035099597        1.26481036565886        1.79825508795355     
   2.11315178363160        2.28476314830838        1.08705914503963     
   1.52792469623415        1.77961495013396        1.91354048474177     
  0.752954303874087        1.01371599642647        1.15554960646870     
   1.23084728634238     
 Zone I=   31 J=   14 K=1  T="NearWake"
 DATAPACKING=BLOCK
 VARLOCATION=([4]=CELLCENTERED)
  -10.4252853976431       -10.1752853976431       -9.92497649790738     
  -9.67444668397005       -9.42383865829427       -9.17325512411147     
  -8.92260870852012       -8.67213491601770       -8.42139540130888     
  -8.17122638324406       -7.92017744827159       -7.67052221653165     
  -7.41917228426410       -7.16687427306206       -6.91800628716386     
  -6.66720295135904       -6.41695788955496       -6.16659167418418     
  -5.91627964980457       -5.66605928272343       -5.41589574628947     
  -5.16583799777859       -4.91587987321609       -4.66605509772182     
  -4.41637960230553       -4.16688695778760       -3.91760877457145     
  -3.66858685622153       -3.41986639935782       -3.17149255694348     
  -2.92347014172235       -10.4252853976431       -10.1752853976431     
  -9.92550889788624       -9.67537951493251       -9.42509098632880     
  -9.17474308350960       -8.92432506361920       -8.67389886041190     
  -8.42350310715936       -8.17286566655147       -7.92274279809624     
  -7.67164854002577       -7.42137635864276       -7.17019122971004     
  -6.92040689200682       -6.67000381975435       -6.41953318401918     
  -6.16917193541552       -5.91874687088159       -5.66838634376415     
  -5.41802350498867       -5.16770861424284       -4.91742157736601     
  -4.66718321902203       -4.41699417324173       -4.16686797589163     
  -3.91681464143185       -3.66685050118026       -3.41699556331492     
  -3.16728060865373       -2.91775550702012       -10.4252853976431     
  -10.1752853976431       -9.92594389133323       -9.67645848677173     
  -9.42687006547789       -9.17721475126530       -8.92749367645570     
  -8.67774630594796       -8.42794310888191       -8.17813619220266     
  -7.92828998529177       -7.67844591796150       -7.42832148419789     
  -7.17911107443994       -6.92895187041034       -6.67913734410636     
  -6.42917871389424       -6.17929936176572       -5.92940190873852     
  -5.67953022106513       -5.42966748906446       -5.17982480759002     
  -4.93000112361467       -4.68020128731035       -4.43042717679675     
  -4.18068163951646       -3.93096580566867       -3.68127946122938     
  -3.43161912906275       -3.18197663488798       -2.93233368399030     
  -10.4252853976431       -10.1752853976431       -9.92595832425951     
  -9.67648395656631       -9.42690714701272       -9.17726699539567     
  -8.92756387679044       -8.67784032116613       -8.42806144019808     
  -8.17828841248825       -7.92846288959409       -7.67866435341689     
  -7.42856538879970       -7.17937438876405       -6.92927692420113     
  -6.67950593590245       -6.42961162029917       -6.17976576208227     
  -5.92990554942797       -5.68005500697613       -5.43020596183683     
  -5.18036187855953       -4.93052154770702       -4.68068507919582     
  -4.43085113736579       -4.18101780804217       -3.93118140326341     
  -3.68133613476591       -3.43147254226499       -3.18157563278953     
  -2.93161644123906       -10.4252853976431       -10.1752853976431     
  -9.92596052144741       -9.67647990447478       -9.42689258109566     
  -9.17723952243189       -8.92752333119489       -8.67778433019389     
  -8.42799454019362       -8.17819956778337       -7.92837247632045     
  -7.67852981781958       -7.42846581860891       -7.17920799660821     
  -6.92912126225672       -6.67931706811556       -6.42941494450877     
  -6.17954359616763       -5.92966304218389       -5.67978366029647     
  -5.42990347683355       -5.18002179656495       -4.93013865520988     
  -4.68025268369625       -4.43036250651558       -4.18046557211650     
  -3.93055801414585       -3.68063386341400       -3.43068371249403     
  -3.18069269473954       -2.93063134817590       -10.4252853976431     
  -10.1752853976431       -9.92596249955545       -9.67647898597159     
  -9.42688607240415       -9.17722522615113       -8.92750119546888     
  -8.67775080596643       -8.42795488094941       -8.17814071716569     
  -7.92831811806429       -7.67843240079258       -7.42840667666423     
  -7.17908770649664       -6.92901339863540       -6.67918403165048     
  -6.42927526423596       -6.17938647099122       -5.92949295503531     
  -5.67959709731330       -5.42970095368661       -5.17980180034617     
  -4.92990075503777       -4.67999605559256       -4.43008673037846     
  -4.18017032386897       -3.93024328648181       -3.68029992783475     
  -3.43033117723218       -3.18032247389195       -2.93024443087085     
  -10.4252853976431       -10.1752853976431       -9.92596354139243     
  -9.67647901597929       -9.42688394238852       -9.17721985094013     
  -8.92749264142550       -8.67773700507563       -8.42793883820460     
  -8.17811492301284       -7.92829599456760       -7.67838673294108     
  -7.42838292796937       -7.17903136429337       -6.92896479810647     
  -6.67912379137498       -6.42921258706713       -6.17931649285587     
  -5.92941800750464       -5.67951598316777       -5.42961429845572     
  -5.17970941339857       -4.92980293284051       -4.67989296049751     
  -4.42997869516323       -4.18005771151972       -3.93012655255399     
  -3.68017958125558       -3.43020777524544       -3.18019658539944     
  -2.93011654622338       -10.4252853976431       -10.1752853976431     
  -9.92596342584596       -9.67647885449466       -9.42688374515910     
  -9.17721960677280       -8.92749228292507       -8.67773651264438     
  -8.42793802701786       -8.17811382353937       -7.92829431117711     
  -7.67838437424052       -7.42837941293342       -7.17902750373417     
  -6.92896036255090       -6.67911880405238       -6.42920699475427     
  -6.17931025598752       -5.92941107622392       -5.67950830630813     
  -5.42960582179335       -5.17970008115445       -4.92979268820807     
  -4.67988174659456       -4.42996645600346       -4.18004439315301     
  -3.93011210428421       -3.68016395689594       -3.43019093417646     
  -3.18017849273414       -2.93009716775128       -10.4252853976431     
  -10.1752853976431       -9.92596227752685       -9.67647869825542     
  -9.42688574630421       -9.17722483923361       -8.92750059093253     
  -8.67774993689802       -8.42795329683208       -8.17813848721448     
  -7.92831448781355       -7.67842714221736       -7.42839850912010     
  -7.17907862445250       -6.92900279651628       -6.67917192468647     
  -6.42926148157312       -6.17937086093439       -5.92947533128307     
  -5.67957725565159       -5.42967866684465       -5.17977681860721     
  -4.92987280539798       -4.67996484177613       -4.43005193345199     
  -4.18013160396424       -3.93020028572335       -3.68025227466811     
  -3.43027849142095       -3.18026436889284       -2.93018049047344     
  -10.4252853976431       -10.1752853976431       -9.92596044130623     
  -9.67647985007407       -9.42689257900313       -9.17723956276768     
  -8.92752328134248       -8.67778415918940       -8.42799381712810     
  -8.17819838856565       -7.92837002195516       -7.67852592969346     
  -7.42845901952791       -7.17920021554349       -6.92911182710634     
  -6.67930593185503       -6.42940189908303       -6.17952842413359     
  -5.92964548267416       -5.67976340871487       -5.42988017561867     
  -5.17999502072136       -4.93010789431948       -4.68021731644302     
  -4.43032176720848       -4.18041850715728       -3.93050342687977     
  -3.68057024685281       -3.43060916829542       -3.18060482794077     
  -2.93052703378257       -10.4252853976431       -10.1752853976431     
  -9.92595854519172       -9.67648431632627       -9.42690762933678     
  -9.17726760104170       -8.92756458198005       -8.67784114008125     
  -8.42806223641912       -8.17828930878136       -7.92846343039721     
  -7.67866467596099       -7.42856473310433       -7.17937312084556     
  -6.92927469771897       -6.67950260603899       -6.42960708653366     
  -6.17975988088928       -5.92989819760825       -5.68004606688163     
  -5.43019535197940       -5.18034957352739       -4.93050762071382     
  -4.68066975756357       -4.43083488017449       -4.18100140124671     
  -3.93116605150531       -3.68132348256973       -3.43146444916063     
  -3.18157330082467       -2.93161777231011       -10.4252853976431     
  -10.1752853976431       -9.92594440142174       -9.67645920251407     
  -9.42687089318766       -9.17721568315362       -8.92749480148112     
  -8.67774768388396       -8.42794494848915       -8.17813865564306     
  -7.92829306455638       -7.67845008755587       -7.42832727830097     
  -7.17911658263963       -6.92895714021316       -6.67914197203895     
  -6.42918258410797       -6.17930220074547       -5.92940344826532     
  -5.67953010693016       -5.42966529799707       -5.17982001221134     
  -4.92999308480170       -4.68018924555396       -4.43041027796688     
  -4.18065903140131       -3.93093690681881       -3.68124466416990     
  -3.43158181407922       -3.18195102456552       -2.93240607989540     
  -10.4252853976431       -10.1752853976431       -9.92550884988177     
  -9.67537849289847       -9.42508896659951       -9.17474035710944     
  -8.92432206422656       -8.67389597111876       -8.42350076226519     
  -8.17286456860489       -7.92274237117402       -7.67165157317199     
  -7.42138505345608       -7.17019998526798       -6.92041584722418     
  -6.67001278400113       -6.41954197146864       -6.16918050675641     
  -5.91875515429575       -5.66839427056431       -5.41803099117972     
  -5.16771555737719       -4.91742784587495       -4.66718863858954     
  -4.41699849037063       -4.16687081367702       -3.91681544429046     
  -3.66684845625638       -3.41698950850696       -3.16726852904292     
  -2.91773166013791       -10.4252853976431       -10.1752853976431     
  -9.92497731322185       -9.67444867646742       -9.42384220669527     
  -9.17326061252991       -8.92261641444490       -8.67214516765389     
  -8.42140821480700       -8.17124179141870       -7.92019566178528     
  -7.67054043503045       -7.41919104009154       -7.16689387746428     
  -6.91802678609393       -6.66722438689378       -6.41698034225990     
  -6.16661512985865       -5.91630407733315       -5.66608454989266     
  -5.41592161651534       -5.16586403940070       -4.91590536524824     
  -4.66607885285809       -4.41639970454466       -4.16690032829774     
  -3.91761050903714       -3.66856922698923       -3.41981760301913     
  -3.17139585995132       -2.92330604635141     
  0.000000000000000E+000  0.000000000000000E+000  3.711624334601637E-004
  1.444737589132856E-003  3.254253727508681E-003  5.858455592834013E-003
  9.013370112302483E-003  1.327942041462292E-002  1.713388611910993E-002
  2.381362816262244E-002  2.647442349148960E-002  3.792796819429647E-002
  3.675797125638088E-002  5.235967732809312E-002  5.823708771344772E-002
  6.687110115677553E-002  7.558114399067392E-002  8.415393268635693E-002
  9.297920874973213E-002  0.101632057718254       0.110259613333994     
  0.118644057044306       0.126784187540391       0.134567194877535     
  0.141941301586195       0.148824849588840       0.155150155118143     
  0.160836835304048       0.165788654531166       0.169844274729767     
  0.172593031623979       0.290581825739480       0.290581825739480     
  0.290939908801908       0.289517850437796       0.286738114631740     
  0.282227892812372       0.277272789815595       0.268788765024933     
  0.264352201860900       0.247758985101014       0.252157352914794     
  0.216531770089713       0.239416115269413       0.194255677956168     
  0.193494231328553       0.174824312717098       0.159293651288903     
  0.144698219714845       0.128333729704031       0.113094698869710     
  9.737078398577774E-002  8.228399570442818E-002  6.741347775191048E-002
  5.316214978527798E-002  3.948522594115939E-002  2.656637412587706E-002
  1.446819183536306E-002  3.320933103394184E-003 -6.733714768944013E-003
 -1.538638256153430E-002 -2.170704759057077E-002   1.14543974346790     
   1.14543974346790        1.14556457429292        1.14554402387277     
   1.14551388690184        1.14539125140933        1.14536368686595     
   1.14494022778051        1.14527692133397        1.14374834060293     
   1.14612369501371        1.14051190044126        1.14779611955152     
   1.13954931229513        1.14373634114582        1.14121305933956     
   1.14095747684427        1.14012587960570        1.13931691202260     
   1.13842804959533        1.13749591598545        1.13652452922426     
   1.13551810067959        1.13448931645117        1.13344903401886     
   1.13241599788794        1.13141266541077        1.13047102545810     
   1.12963324857957        1.12895424343815        1.12849757771123     
   2.51489251828899        2.51489251828899        2.51494008874561     
   2.51493998063094        2.51494639094254        2.51493175649854     
   2.51496077500519        2.51486603979529        2.51504599199126     
   2.51459020344255        2.51553439135125        2.51357126927262     
   2.51638911556291        2.51351330075823        2.51523545018782     
   2.51449512839526        2.51457692522629        2.51450051257326     
   2.51443642592494        2.51436473061267        2.51429105701083     
   2.51421965101924        2.51414970755293        2.51408449655141     
   2.51402515302065        2.51397442466068        2.51393434070851     
   2.51390722482425        2.51389461864368        2.51389663686794     
   2.51390796885019        4.31935253268844        4.31935253268844     
   4.31937218632611        4.31937206357617        4.31937515567956     
   4.31937107787998        4.31938477181053        4.31935249701350     
   4.31942648330376        4.31925837254157        4.31963143592523     
   4.31887282201904        4.31997972891421        4.31888526092842     
   4.31956875424312        4.31930625866882        4.31935349595898     
   4.31934980914389        4.31934997633337        4.31935038283655     
   4.31935098036850        4.31935391114498        4.31935807966704     
   4.31936431137583        4.31937230152357        4.31938226644371     
   4.31939397598671        4.31940714860913        4.31942105903301     
   4.31943429623306        4.31944318054378        6.45395112957464     
   6.45395112957464        6.45395869693094        6.45395797240346     
   6.45395855411742        6.45395643978615        6.45396124263492     
   6.45394858529428        6.45397665842314        6.45391237618339     
   6.45405551024288        6.45376370107809        6.45418855141315     
   6.45377469037915        6.45403782769053        6.45394304349183     
   6.45396363843274        6.45396684343563        6.45397108675160     
   6.45397581326622        6.45398051282112        6.45398603510628     
   6.45399177318492        6.45399790963895        6.45400416828659     
   6.45401046698341        6.45401655867736        6.45402218205883     
   6.45402693032687        6.45403017240281        6.45403049715601     
   8.79463319744677        8.79463319744677        8.79463403409905     
   8.79463257665988        8.79463140901052        8.79462946119427     
   8.79462927281551        8.79462443829291        8.79463020565864     
   8.79461177139756        8.79464755011367        8.79456953493941     
   8.79467892199787        8.79457185606613        8.79464040875561     
   8.79461646507151        8.79462202044624        8.79462339894511     
   8.79462494091506        8.79462668653996        8.79462840377075     
   8.79463034275207        8.79463231740745        8.79463437259538     
   8.79463642453854        8.79463844649656        8.79464037019376     
   8.79464212862852        8.79464362283842        8.79464470580935     
   8.79464505499664        11.2053668025532        11.2053668025532     
   11.2053621461505        11.2053597448477        11.2053568253189     
   11.2053544096647        11.2053499878085        11.2053499048346     
   11.2053389317237        11.2053519644033        11.2053102967912     
   11.2053832348622        11.2052672851593        11.2053758598626     
   11.2053057235487        11.2053297262685        11.2053234753268     
   11.2053219106955        11.2053200562536        11.2053182243888     
   11.2053164877939        11.2053147047725        11.2053130325937     
   11.2053114706713        11.2053101110249        11.2053090092805     
   11.2053082542665        11.2053079412071        11.2053081995598     
   11.2053092212470        11.2053114287535        13.5460488704254     
   13.5460488704254        13.5460372541556        13.5460336960367     
   13.5460285246285        13.5460256465638        13.5460154776403     
   13.5460222683510        13.5459878552506        13.5460453749889     
   13.5458946422305        13.5461797306496        13.5457457684707     
   13.5461607802613        13.5458945245980        13.5459883322525     
   13.5459655751677        13.5459608193358        13.5459547043175     
   13.5459483117475        13.5459419076665        13.5459348171822     
   13.5459276091340        13.5459201881967        13.5459128648726     
   13.5459057996464        13.5458993130283        13.5458937645844     
   13.5458896754875        13.5458878314071        13.5458899187139     
   15.6806474673116        15.6806474673116        15.6806234667501     
   15.6806187339975        15.6806103750504        15.6806086004385     
   15.6805884943677        15.6806135540234        15.6805315867875     
   15.6806908905564        15.6803076529250        15.6810568548207     
   15.6799367059205        15.6810316260224        15.6803420886271     
   15.6806016103551        15.6805491863267        15.6805483916700     
   15.6805427954182        15.6805368956773        15.6805302153372     
   15.6805208730384        15.6805097984893        15.6804962562003     
   15.6804805256032        15.6804624721902        15.6804424140323     
   15.6804208183364        15.6803986983027        15.6803779574250     
   15.6803632316201        17.4851074817110        17.4851074817110     
   17.4850553283182        17.4850501748900        17.4850380427412     
   17.4850462745832        17.4850101912840        17.4850968422236     
   17.4849078938157        17.4853534056178        17.4843976881196     
   17.4863487553279        17.4835153410261        17.4863910136704     
   17.4846603513836        17.4853964588031        17.4853069774433     
   17.4853767608509        17.4854325610860        17.4854957960755     
   17.4855598755522        17.4856210119544        17.4856796538670     
   17.4857326786027        17.4857788374663        17.4858154784800     
   17.4858406087812        17.4858520313709        17.4858482304846     
   17.4858288249974        17.4857979355514        18.8545602565321     
   18.8545602565321        18.8544306641072        18.8544458131289     
   18.8544702003157        18.8545864487248        18.8546070415287     
   18.8550224806448        18.8546770896549        18.8561950875265     
   18.8538099484462        18.8594064200906        18.8521098336778     
   18.8603552219660        18.8561605034126        18.8586802149788     
   18.8589289291006        18.8597551432868        18.8605575275953     
   18.8614404046052        18.8623664963573        18.8633328744635     
   18.8643358875811        18.8653646407480        18.8664110005690     
   18.8674616923022        18.8685051043485        18.8695337524922     
   18.8705701789600        18.8717869030894        18.8745578949705     
   19.7094181742605        19.7094181742605        19.7090552609618     
   19.7104736165205        19.7132504119096        19.7177573857282     
   19.7227080752233        19.7311861458712        19.7356137890210     
   19.7521962906707        19.7477876650433        19.7833890045306     
   19.7605037925672        19.8056598141453        19.8064170193846     
   19.8250842599804        19.8406095237030        19.8552007728968     
   19.8715591386673        19.8867919296153        19.9025077962659     
   19.9175855827484        19.9324448628387        19.9466828479699     
   19.9603428108057        19.9732399008189        19.9853089644173     
   19.9964164466050        20.0064159961260        20.0149935515209     
   20.0212239887219        20.0000000000000        20.0000000000000     
   19.9996239979239        19.9985435434190        19.9967264458926     
   19.9941136484410        19.9909494856856        19.9866726152560     
   19.9828071169453        19.9761129749587        19.9734388912632     
   19.9619616903870        19.9631200729765        19.9475029520602     
   19.9416126025666        19.9329618971158        19.9242330782982     
   19.9156378795734        19.9067862917130        19.8981020174422     
   19.8894366414224        19.8810060513905        19.8728090412964     
   19.8649548434513        19.8574901164136        19.8504885830048     
   19.8440055618729        19.8381021158152        19.8328449385823     
   19.8283534437341        19.8249899290146     
 -6.536680706074363E-003 -6.536680706074363E-003  2.165804321994057E-005
  7.228270518159676E-003  1.473013212649163E-002  2.234789029669854E-002
  2.986195355047899E-002  3.724378573617385E-002  4.428880326602259E-002
  5.081976488495261E-002  5.790514096910822E-002  6.215464264568138E-002
  7.064598411990274E-002  7.412113981356412E-002  7.790806395441727E-002
  8.153281230447931E-002  8.341122268145526E-002  8.514625493669006E-002
  8.574142028507747E-002  8.574569091207475E-002  8.485231540459430E-002
  8.324814695032211E-002  8.085942007736759E-002  7.777418229630462E-002
  7.400000764739607E-002  6.960205758958378E-002  6.462929366117921E-002
  5.915959928324899E-002  5.329222212632776E-002  4.720688733766093E-002
  4.132069326453770E-002 -6.536680706074363E-003 -6.536680706074363E-003
 -2.631666933009223E-002 -4.498205948143421E-002 -6.269722504575151E-002
 -7.968022196296211E-002 -9.561352766360817E-002 -0.110836122851599     
 -0.125592910483489      -0.136989829312836      -0.153401873610731     
 -0.157074647213520      -0.172330399550570      -0.182865919206603     
 -0.192667828263853      -0.199670729854617      -0.204674534533979     
 -0.210055236974062      -0.212935498236920      -0.215386709204936     
 -0.216208181504617      -0.216264208159799      -0.215167219757219     
 -0.213313684619989      -0.210669487121556      -0.207487327741321     
 -0.203900367754733      -0.200163882996787      -0.196549325166382     
 -0.193503275787001      -0.191970719091828      -6.536680706074363E-003
 -6.536680706074363E-003 -2.008551222825194E-002 -3.210943200365843E-002
 -4.315353126954981E-002 -5.362308996599841E-002 -6.347362934733966E-002
 -7.319791522089844E-002 -8.213958683284077E-002 -9.154674431511216E-002
 -9.941451693434608E-002 -0.108856821180196      -0.108773601293773     
 -0.132050061970996      -0.133879658150802      -0.145836301350059     
 -0.152444265000573      -0.161768876136657      -0.169655591872964     
 -0.178214971020663      -0.186405529076396      -0.194753753320472     
 -0.202997744686971      -0.211263038126127      -0.219471650822946     
 -0.227631926443040      -0.235684561832061      -0.243565136558456     
 -0.251150208492028      -0.258247315093420      -0.264491884476204     