 Title = "Wing and Wake"
 VARIABLES = "X" "Y" "Z" "GAM"
 Zone I=    5 J=   14 K=1  T="Blade"
 DATAPACKING=BLOCK
 VARLOCATION=([4]=CELLCENTERED)
  -12.9961946980917       -12.7471460235688       -12.4980973490459     
  -12.2490486745229       -12.0000000000000       -12.9961946980917     
  -12.7471460235688       -12.4980973490459       -12.2490486745229     
  -12.0000000000000       -12.9961946980917       -12.7471460235688     
  -12.4980973490459       -12.2490486745229       -12.0000000000000     
  -12.9961946980917       -12.7471460235688       -12.4980973490459     
  -12.2490486745229       -12.0000000000000       -12.9961946980917     
  -12.7471460235688       -12.4980973490459       -12.2490486745229     
  -12.0000000000000       -12.9961946980917       -12.7471460235688     
  -12.4980973490459       -12.2490486745229       -12.0000000000000     
  -12.9961946980917       -12.7471460235688       -12.4980973490459     
  -12.2490486745229       -12.0000000000000       -12.9961946980917     
  -12.7471460235688       -12.4980973490459       -12.2490486745229     
  -12.0000000000000       -12.9961946980917       -12.7471460235688     
  -12.4980973490459       -12.2490486745229       -12.0000000000000     
  -12.9961946980917       -12.7471460235688       -12.4980973490459     
  -12.2490486745229       -12.0000000000000       -12.9961946980917     
  -12.7471460235688       -12.4980973490459       -12.2490486745229     
  -12.0000000000000       -12.9961946980917       -12.7471460235688     
  -12.4980973490459       -12.2490486745229       -12.0000000000000     
  -12.9961946980917       -12.7471460235688       -12.4980973490459     
  -12.2490486745229       -12.0000000000000       -12.9961946980917     
  -12.7471460235688       -12.4980973490459       -12.2490486745229     
  -12.0000000000000     
  0.000000000000000E+000  0.000000000000000E+000  0.000000000000000E+000
  0.000000000000000E+000  0.000000000000000E+000  0.290581825739480     
  0.290581825739480       0.290581825739480       0.290581825739480     
  0.290581825739480        1.14543974346790        1.14543974346790     
   1.14543974346790        1.14543974346790        1.14543974346790     
   2.51489251828899        2.51489251828899        2.51489251828899     
   2.51489251828899        2.51489251828899        4.31935253268844     
   4.31935253268844        4.31935253268844        4.31935253268844     
   4.31935253268844        6.45395112957464        6.45395112957464     
   6.45395112957464        6.45395112957464        6.45395112957464     
   8.79463319744677        8.79463319744677        8.79463319744677     
   8.79463319744677        8.79463319744677        11.2053668025532     
   11.2053668025532        11.2053668025532        11.2053668025532     
   11.2053668025532        13.5460488704254        13.5460488704254     
   13.5460488704254        13.5460488704254        13.5460488704254     
   15.6806474673116        15.6806474673116        15.6806474673116     
   15.6806474673116        15.6806474673116        17.4851074817110     
   17.4851074817110        17.4851074817110        17.4851074817110     
   17.4851074817110        18.8545602565321        18.8545602565321     
   18.8545602565321        18.8545602565321        18.8545602565321     
   19.7094181742605        19.7094181742605        19.7094181742605     
   19.7094181742605        19.7094181742605        20.0000000000000     
   20.0000000000000        20.0000000000000        20.0000000000000     
   20.0000000000000     
  8.715574274765817E-002  6.536680706074363E-002  4.357787137382908E-002
  2.178893568691454E-002  0.000000000000000E+000  8.715574274765817E-002
  6.536680706074363E-002  4.357787137382908E-002  2.178893568691454E-002
  0.000000000000000E+000  8.715574274765817E-002  6.536680706074363E-002
  4.357787137382908E-002  2.178893568691454E-002  0.000000000000000E+000
  8.715574274765817E-002  6.536680706074363E-002  4.357787137382908E-002
  2.178893568691454E-002  0.000000000000000E+000  8.715574274765817E-002
  6.536680706074363E-002  4.357787137382908E-002  2.178893568691454E-002
  0.000000000000000E+000  8.715574274765817E-002  6.536680706074363E-002
  4.357787137382908E-002  2.178893568691454E-002  0.000000000000000E+000
  8.715574274765817E-002  6.536680706074363E-002  4.357787137382908E-002
  2.178893568691454E-002  0.000000000000000E+000  8.715574274765817E-002
  6.536680706074363E-002  4.357787137382908E-002  2.178893568691454E-002
  0.000000000000000E+000  8.715574274765817E-002  6.536680706074363E-002
  4.357787137382908E-002  2.178893568691454E-002  0.000000000000000E+000
  8.715574274765817E-002  6.536680706074363E-002  4.357787137382908E-002
  2.178893568691454E-002  0.000000000000000E+000  8.715574274765817E-002
  6.536680706074363E-002  4.357787137382908E-002  2.178893568691454E-002
  0.000000000000000E+000  8.715574274765817E-002  6.536680706074363E-002
  4.357787137382908E-002  2.178893568691454E-002  0.000000000000000E+000
  8.715574274765817E-002  6.536680706074363E-002  4.357787137382908E-002
  2.178893568691454E-002  0.000000000000000E+000  8.715574274765817E-002
  6.536680706074363E-002  4.357787137382908E-002  2.178893568691454E-002
  0.000000000000000E+000
  0.754979091257822        1.01675530535326        1.15939454777633     
   1.23541185999193        1.09058084859622        1.53330976692610     
   1.78648188881166        1.92170504981961        1.27029049451910     
   1.80661419145786        2.12376247780412        2.29727357111133     
   1.35643394395396        1.93431376331491        2.27893552211440     
   2.46882723648298        1.39711809384452        1.99376925045729     
   2.35038284147408        2.54723043997721        1.41528779556322     
   2.02011552286567        2.38183475728993        2.58157366516683     
   1.42028902059449        2.02733438670880        2.39041897167070     
   2.59092074880975        1.41480566612242        2.01939611317320     
   2.38095591066614        2.58060256770618        1.39661769556744     
   1.99300033457257        2.34941809324616        2.54613921353557     
   1.35651127106943        1.93436504264483        2.27892593177052     
   2.46874582517926        1.27115832850914        1.80780204774598     
   2.12509625526558        2.29863564499970        1.09188775036028     
   1.53511332361357        1.78853651878159        1.92384595210528     
  0.756054226302765        1.01817158492041        1.16098085797403     
   1.23706539328253     
 Zone I=   31 J=   14 K=1  T="NearWake"
 DATAPACKING=BLOCK
 VARLOCATION=([4]=CELLCENTERED)
  -11.9252853976431       -11.6752853976431       -11.4249711702663     
  -11.1744273689094       -10.9238125774428       -10.6731841776867     
  -10.4225560339246       -10.1719444207107       -9.92133194991814     
  -9.67077287217394       -9.42016688789640       -9.16971446083147     
  -8.91908125469319       -8.66884107082716       -8.41804397099605     
  -8.16829089264793       -7.91709286787990       -7.66771719209498     
  -7.41708735400491       -7.16250969977775       -6.91518792993883     
  -6.66409187854986       -6.41403998850206       -6.16387148700527     
  -5.91368514069751       -5.66368553816022       -5.41372599615528     
  -5.16392636462563       -4.91424590055086       -4.66474307616111     
  -4.41541131809910       -11.9252853976431       -11.6752853976431     
  -11.4254996342674       -11.1753533862057       -10.9250511057194     
  -10.6746685256309       -10.4242367080117       -10.1737739846917     
  -9.92329171013007       -9.67279019567417       -9.42230958635010     
  -9.17173364682790       -8.92143265411251       -8.67046031272476     
  -8.42093676294327       -8.16878788055299       -7.92059544527110     
  -7.66708869286005       -7.41908000252904       -7.16556582107023     
  -6.91713940053849       -6.66652820973232       -6.41609392610287     
  -6.16581881773406       -5.91540907366846       -5.66510750222425     
  -5.41478826290953       -5.16454186939190       -4.91433331828008     
  -4.66420844102473       -4.41420038263286       -11.9252853976431     
  -11.6752853976431       -11.4259393057880       -11.1764481162396     
  -10.9268553514530       -10.6771883923659       -10.4274646526250     
  -10.1776973896914       -9.92789430440633       -9.67806391851404     
  -9.42820928041772       -9.17833536415521       -8.92844907170506     
  -8.67853527733453       -8.42864620624630       -8.17865641204131     
  -7.92884806375345       -7.67867631296987       -7.42879452867196     
  -7.17924242039904       -6.92922468863963       -6.67930325927762     
  -6.42936292820320       -6.17945530980006       -5.92956673030877     
  -5.67969499568425       -5.42984687972355       -5.18001784456610     
  -4.93021141534406       -4.68042408657064       -4.43065370721579     
  -11.9252853976431       -11.6752853976431       -11.4259544343186     
  -11.1764755324370       -10.9268963738614       -10.6772466095315     
  -10.4275444235918       -10.1778031502976       -9.92803005641959     
  -9.67823348937355       -9.42841583716056       -9.17858208245415     
  -8.92873837631966       -8.67887008419208       -8.42902829234833     
  -8.17909441478560       -7.92932356797184       -7.67922527500176     
  -7.42941211088538       -7.17986124414914       -6.92990461737923     
  -6.68002530153051       -6.43015302674068       -6.18026086434639     
  -5.93039413641729       -5.68051700900245       -5.43065300676948     
  -5.18078661008542       -4.93092506901104       -4.68106131175962     
  -4.43119362230124       -11.9252853976431       -11.6752853976431     
  -11.4259570051260       -11.1764724669517       -10.9268834483973     
  -10.6772218537702       -10.4275071913370       -10.1777534896666     
  -9.92796851781502       -9.67816044435756       -9.42833242223913     
  -9.17848755097936       -8.92863562182972       -8.67875341268896     
  -8.42890852999748       -8.17894691493300       -7.92919092126221     
  -7.67901859667533       -7.42931201937559       -7.17962745248298     
  -6.92970357364967       -6.67977439557238       -6.42989961513219     
  -6.17997425507735       -5.93008599224371       -5.68017498520769     
  -5.43027710179347       -5.18037001429078       -4.93046440212763     
  -4.68055121025810       -4.43062926405350       -11.9252853976431     
  -11.6752853976431       -11.4259593611989       -11.1764725207160     
  -10.9268785002128       -10.6772102868446       -10.4274880731984     
  -10.1777262129389       -9.92793290392907       -9.67811602625016     
  -9.42827970706590       -9.17842510834789       -8.92856590968037     
  -8.67867086002746       -8.42882299750031       -8.17883754215125     
  -7.92909587837895       -7.67885793353456       -7.42924569382818     
  -7.17945160138224       -6.92955956629481       -6.67959592019479     
  -6.42972058557149       -6.17977577451104       -5.92987700682640     
  -5.67994979087445       -5.43003761398486       -5.18011424563815     
  -4.93019244911058       -4.68026220037160       -4.43032286234191     
  -11.9252853976431       -11.6752853976431       -11.4259606618142     
  -11.1764732054174       -10.9268774294619       -10.6772067363710     
  -10.4274815866769       -10.1777164396534       -9.92791969612100     
  -9.67809904390280       -9.42825915522315       -9.17840011670855     
  -8.92853774714456       -8.67863649537464       -8.42878760860166     
  -8.17879017859059       -7.92905663352551       -7.67878356935550     
  -7.42922240178952       -7.17937126277645       -6.92949682078942     
  -6.67951748346671       -6.42964291468423       -6.17969023550574     
  -5.92978791898591       -5.67985492464151       -5.42993813734900     
  -5.18000967578126       -4.93008320496060       -4.68014831782492     
  -4.43020460578362       -11.9252853976431       -11.6752853976431     
  -11.4259605897826       -11.1764731675663       -10.9268774895710     
  -10.6772069377626       -10.4274819573577       -10.1777169983646     
  -9.92792044327252       -9.67809998185748       -9.42826024225305     
  -9.17840135372865       -8.92853900617643       -8.67863782169792     
  -8.42878870229205       -8.17879119621485       -7.92905712052529     
  -7.67878335542168       -7.42922091432501       -7.17936971777783     
  -6.92949475487332       -6.67951495155264       -6.42963983254164     
  -6.17968655071478       -5.92978355711056       -5.67984980775995     
  -5.42993217795696       -5.18000277909776       -4.93007526775440     
  -4.68013922677223       -4.43019422616678       -11.9252853976431     
  -11.6752853976431       -11.4259592162781       -11.1764724647134     
  -10.9268786868017       -10.6772108294998       -10.4274890546921     
  -10.1777276977654       -9.92793491711110       -9.67811859867956     
  -9.42828276902616       -9.17842868883182       -8.92856973591170     
  -8.67867506334906       -8.42882688952532       -8.17884151580786     
  -7.92909884444606       -7.67885948049546       -7.42924422269017     
  -7.17945033855046       -6.92955733049925       -6.67959283423182     
  -6.42971643611645       -6.17977040809900       -5.92987019641636     
  -5.67994127413437       -5.43002707069404       -5.18010129581692     
  -4.93017664015856       -4.68024298999021       -4.43029955631140     
  -11.9252853976431       -11.6752853976431       -11.4259569145424     
  -11.1764724257485       -10.9268835849665       -10.6772222836596     
  -10.4275080175347       -10.1777548087128       -9.92797040174797     
  -9.67816297501149       -9.42833560377781       -9.17849147385374     
  -8.92864012212932       -8.67875868220406       -8.42891403023440     
  -8.17895311245641       -7.92919684050940       -7.67902396876056     
  -7.42931493291653       -7.17963171286820       -6.92970808391789     
  -6.67977947361629       -6.42990533565162       -6.17998077931721     
  -5.93009342099176       -5.68018338662857       -5.43028643997933     
  -5.18038009953801       -4.93047479022531       -4.68056106272429     
  -4.43063701688479       -11.9252853976431       -11.6752853976431     
  -11.4259544786569       -11.1764754572344       -10.9268961432415     
  -10.6772462325145       -10.4275439354168       -10.1778026016174     
  -9.92802951118319       -9.67823301457156       -9.42841550685182     
  -9.17858196591607       -8.92873853260030       -8.67887059349836     
  -8.42902913189970       -8.17909578570920       -7.92932516717518     
  -7.67922713086067       -7.42941324269782       -7.17986323612029     
  -6.92990731640010       -6.68002897159805       -6.43015836184486     
  -6.18026886226257       -5.93040621452840       -5.68053525779677     
  -5.43068034453915       -5.18082707200101       -4.93098394494413     
  -4.68114504363652       -4.43130862428770       -11.9252853976431     
  -11.6752853976431       -11.4259394654854       -11.1764479189208     
  -10.9268545389968       -10.6771868213093       -10.4274622590912     
  -10.1776941544274       -9.92789025989445       -9.67805908381982     
  -9.42820375707264       -9.17832913115147       -8.92844231916749     
  -8.67852786394519       -8.42863841312501       -8.17864810060665     
  -7.92883914989718       -7.67866694897224       -7.42878516261285     
  -7.17923001824372       -6.92920919597376       -6.67928306189540     
  -6.42933708042710       -6.17942246888003       -5.92952537773517     
  -5.67964358403144       -5.42978404048044       -5.17994329268403     
  -4.93012816468311       -4.68034726406960       -4.43067742784829     
  -11.9252853976431       -11.6752853976431       -11.4254985424790     
  -11.1753495165139       -10.9250441026635       -10.6746584926149     
  -10.4242239141443       -10.1737587576558       -9.92327445240889     
  -9.67277120274060       -9.42228937146247       -9.17171234415678     
  -8.92141063214572       -8.67043819754631       -8.42091320380683     
  -8.16876660148940       -7.92056955676992       -7.66707029936995     
  -7.41906243080206       -7.16555079376125       -6.91711926941826     
  -6.66650612920372       -6.41606824076293       -6.16578892722126     
  -5.91537528916842       -5.66506934305450       -5.41474641608863     
  -5.16449698121815       -4.91428718757637       -4.66416240045856     
  -4.41414962364629       -11.9252853976431       -11.6752853976431     
  -11.4249714498284       -11.1744281811880       -10.9238142811100     
  -10.6731871467640       -10.4225606198162       -10.1719509499157     
  -9.92134068417670       -9.67078406338174       -9.42018062174544     
  -9.16973090135214       -8.91910017172379       -8.66886233622176     
  -8.41806745648788       -8.16831408898966       -7.91711887978431     
  -7.66773507408580       -7.41710345570974       -7.16252253235446     
  -6.91519877450621       -6.66409899030047       -6.41404204163259     
  -6.16386597160461       -5.91366882199212       -5.66365316089658     
  -5.41367011387591       -5.16383580398053       -4.91410461951302     
  -4.66452906280949       -4.41509946359015     
  0.000000000000000E+000  0.000000000000000E+000  3.764934821652674E-004
  1.469665216855190E-003  3.326968536514525E-003  5.947753805376158E-003
  9.309669063728383E-003  1.339657654309140E-002  1.812267092044405E-002
  2.355562806615998E-002  2.935582761231885E-002  3.610567919232409E-002
  4.240252366279430E-002  5.068299925120605E-002  5.684384395782945E-002
  6.638529849390951E-002  7.173852829111287E-002  8.487289275275972E-002
  8.558672042718500E-002  0.101975826413321       0.110128332477706     
  0.119136576542120       0.128406502392537       0.136880785076186     
  0.145372121992609       0.153265853033689       0.160800680151840     
  0.167729879905238       0.174053558541183       0.179577194022452     
  0.183908596893639       0.290581825739480       0.290581825739480     
  0.290946758281951       0.289529193708482       0.286648899786499     
  0.282310711555906       0.276607926000744       0.269521981713916     
  0.261401501252148       0.251648309927654       0.242015475934783     
  0.229029675965047       0.219895854705235       0.201548806527764     
  0.198000607681842       0.166358402810900       0.182217436507818     
  0.121520642093157       0.163171711158448       0.102872126580990     
  0.103386769541126       8.378038956638086E-002  6.664001120349353E-002
  5.261835410781900E-002  3.665994352041298E-002  2.294635821256186E-002
  9.166030028388257E-003 -3.278997680603541E-003 -1.491355020454860E-002
 -2.513126413841412E-002 -3.329218414832225E-002   1.14543974346790     
   1.14543974346790        1.14556779051545        1.14555225189714     
   1.14551088415671        1.14542638559991        1.14529791573562     
   1.14511264961531        1.14489260987463        1.14458085062506     
   1.14429854127069        1.14377854664240        1.14358634190238     
   1.14253506127595        1.14306894104671        1.14022029594280     
   1.14405350774446        1.13471063579635        1.14651627985770     
   1.13309560179176        1.13984721877976        1.13571466230914     
   1.13547771355138        1.13419499942335        1.13310075766580     
   1.13189350857860        1.13071934500932        1.12956042013685     
   1.12846818535862        1.12748389953401        1.12666511042038     
   2.51489251828899        2.51489251828899        2.51494253072112     
   2.51494535280796        2.51494928923345        2.51494933262401     
   2.51494571013663        2.51493448189625        2.51492320061325     
   2.51489346286883        2.51488563766994        2.51481081504452     
   2.51486093392778        2.51462587930131        2.51497453198397     
   2.51408911456839        2.51577313460581        2.51231394287144     
   2.51715078649195        2.51228365808034        2.51518600172890     
   2.51392854810810        2.51411584860668        2.51398674875461     
   2.51391762846970        2.51382409456170        2.51374177016141     
   2.51366283839653        2.51359139679680        2.51352638371032     
   2.51346535617369        4.31935253268844        4.31935253268844     
   4.31937384752930        4.31937533288001        4.31937794672005     
   4.31937993319230        4.31938148925958        4.31938121232136     
   4.31938206948655        4.31937722407124        4.31938194416072     
   4.31936287334537        4.31939246765798        4.31931575487938     
   4.31946303430886        4.31913896005459        4.31981051813647     
   4.31846201279315        4.32038342973805        4.31851076667991     
   4.31966825034335        4.31921417889977        4.31930468996279     
   4.31928747149084        4.31928902485896        4.31928388880528     
   4.31928158439707        4.31928024737278        4.31928008699542     
   4.31928041787092        4.31927945388677        6.45395112957464     
   6.45395112957464        6.45395970688047        6.45395985216567     
   6.45396049623617        6.45396095905222        6.45396132755855     
   6.45396107758587        6.45396136571800        6.45395959906878     
   6.45396160812019        6.45395475447958        6.45396657474479     
   6.45393819240072        6.45399531613937        6.45387264057926     
   6.45413169145515        6.45361174413139        6.45435313727962     
   6.45364060294772        6.45408616118622        6.45392002947727     
   6.45395669812930        6.45395536868123        6.45396009656195     
   6.45396275871523        6.45396612130024        6.45396970661281     
   6.45397333774018        6.45397669360348        6.45397895795028     
   8.79463319744677        8.79463319744677        8.79463459847805     
   8.79463369865953        8.79463288956050        8.79463198549493     
   8.79463100394328        8.79462980227288        8.79462868069866     
   8.79462695967715        8.79462615457895        8.79462297918883     
   8.79462459215545        8.79461569306110        8.79462897031339     
   8.79459539172700        8.79466128589897        8.79452372745547     
   8.79471526867119        8.79453097051798        8.79464663424602     
   8.79460450220196        8.79461397861454        8.79461426670047     
   8.79461586108096        8.79461709133781        8.79461845389942     
   8.79461992538545        8.79462140800363        8.79462284650822     
   8.79462404404327        11.2053668025532        11.2053668025532     
   11.2053624329421        11.2053604992112        11.2053583164609     
   11.2053560562205        11.2053536784969        11.2053513037863     
   11.2053486075770        11.2053462580450        11.2053426975923     
   11.2053412518621        11.2053346208399        11.2053383718820     
   11.2053192216972        11.2053474824475        11.2052742008119     
   11.2054083212613        11.2052056280080        11.2053951694897     
   11.2052755101496        11.2053183653088        11.2053072723332     
   11.2053067409543        11.2053043906383        11.2053029126615     
   11.2053013292222        11.2052999685956        11.2052988387429     
   11.2052981337475        11.2052981521998        13.5460488704254     
   13.5460488704254        13.5460373247074        13.5460341487155     
   13.5460303141597        13.5460264617977        13.5460224672549     
   13.5460188152881        13.5460143122397        13.5460115176165     
   13.5460045397349        13.5460060335780        13.5459882739146     
   13.5460104339700        13.5459459997731        13.5460619484301     
   13.5457930605313        13.5463083848112        13.5455508657893     
   13.5462699163245        13.5458173908917        13.5459832792194     
   13.5459426228888        13.5459418739219        13.5459340158338     
   13.5459288019370        13.5459226691830        13.5459166098302     
   13.5459106540681        13.5459053848888        13.5459018172923     
   15.6806474673116        15.6806474673116        15.6806231596941     
   15.6806183598673        15.6806122924200        15.6806066363698     
   15.6806011369111        15.6805971316075        15.6805916024742     
   15.6805913309286        15.6805809585804        15.6805938272232     
   15.6805572039078        15.6806264224203        15.6804699967950     
   15.6807856069465        15.6801008318821        15.6814432846280     
   15.6794975260509        15.6813803257678        15.6802103336758     
   15.6806634682184        15.6805647780346        15.6805771121662     
   15.6805680459821        15.6805662831509        15.6805604323860     
   15.6805533378220        15.6805442317507        15.6805342028396     
   15.6805252023970        17.4851074817110        17.4851074817110     
   17.4850543323700        17.4850479313164        17.4850403368354     
   17.4850364479264        17.4850359757008        17.4850427900405     
   17.4850492775959        17.4850737672734        17.4850757905340     
   17.4851442772850        17.4850869359889        17.4853143022306     
   17.4849561364402        17.4858326377116        17.4841352189751     
   17.4875869833770        17.4827231745737        17.4876065031564     
   17.4846886696044        17.4859499372933        17.4857555278080     
   17.4858852529022        17.4859522368694        17.4860481114618     
   17.4861342385832        17.4862219842741        17.4863073310719     
   17.4863938683466        17.4864846124258        18.8545602565321     
   18.8545602565321        18.8544287700484        18.8544405218851     
   18.8544782432089        18.8545589898379        18.8546836858300     
   18.8548650577539        18.8550809758923        18.8553883361028     
   18.8556658234667        18.8561806249503        18.8563668813703     
   18.8574118835562        18.8568705829561        18.8597111771045     
   18.8558714099481        18.8652009421881        18.8533805290356     
   18.8668184821211        18.8600611169707        18.8642079288265     
   18.8644519274690        18.8657569145770        18.8668799011168     
   18.8681380059878        18.8693942203678        18.8707001351847     
   18.8720788418417        18.8737518054025        18.8772659223254     
   19.7094181742605        19.7094181742605        19.7090494760294     
   19.7104664112503        19.7133489372610        19.7176911196456     
   19.7233986041521        19.7304890780408        19.7386129149419     
   19.7483680507957        19.7579997684931        19.7709828780881     
   19.7801096971524        19.7984471682052        19.8019867501458     
   19.8336024994791        19.8177575431482        19.8783863581699     
   19.8367819651391        19.8970463626567        19.8965486819254     
   19.9161501123142        19.9332832237150        19.9473059372278     
   19.9632516278186        19.9769554157033        19.9907126841053     
   20.0031275181056        20.0147097057468        20.0248521723295     
   20.0329151795689        20.0000000000000        20.0000000000000     
   19.9996197125638        19.9985197547971        19.9966546717597     
   19.9940250382737        19.9906533061368        19.9865556893189     
   19.9818181556239        19.9763728562345        19.9705595260574     
   19.9637951642945        19.9574822119989        19.9491843597849     
   19.9429983917370        19.9334397047728        19.9280450367188     
   19.9148795079457        19.9141235339852        19.8976972488899     
   19.8894973808258        19.8804327893628        19.8710942725495     
   19.8625344051633        19.8539349764961        19.8459022160421     
   19.8381830275014        19.8310020158459        19.8243266491616     
   19.8183029030992        19.8132667003364     
 -6.536680706074363E-003 -6.536680706074363E-003  1.377468648844846E-004
  7.479021715612218E-003  1.515601628186738E-002  2.295589628683582E-002
  3.072046074657712E-002  3.832865459020876E-002  4.567202799850762E-002
  5.266778982776507E-002  5.926715547940015E-002  6.527265283478394E-002
  7.109876150427855E-002  7.534728501707399E-002  8.162965369157840E-002
  8.109946479402466E-002  9.243025436723190E-002  8.266996329152457E-002
  0.100299314806046       9.053732758595377E-002  9.342724160492752E-002
  9.279045221989887E-002  9.021007945599441E-002  8.803871270529957E-002
  8.454172392325167E-002  8.072684438889433E-002  7.607550103164717E-002
  7.096371133192701E-002  6.529815438513641E-002  5.934597822816221E-002
  5.351590231334539E-002 -6.536680706074363E-003 -6.536680706074363E-003
 -2.634265768067665E-002 -4.502075145313576E-002 -6.280554451254092E-002
 -7.976405394341488E-002 -9.588815824082782E-002 -0.111167929975930     
 -0.125504017743007      -0.138929247620648      -0.151338280006656     
 -0.162265721960298      -0.173890020214250      -0.178999567395741     
 -0.195562004231948      -0.185190346370133      -0.219300648890159     
 -0.180488614059034      -0.227527495132906      -0.198511907808371     
 -0.216540256782758      -0.211168953945344      -0.208381735169712     
 -0.207101828288756      -0.201940544371071      -0.197573166828252     
 -0.191318378587429      -0.185082171359914      -0.178072825585104     
 -0.171261850218468      -0.165269190935334      -6.536680706074363E-003
 -6.536680706074363E-003 -2.007032664164517E-002 -3.206080723450649E-002
 -4.310634448210121E-002 -5.350866584944641E-002 -6.343630201901508E-002
 -7.300345391742721E-002 -8.226749967388380E-002 -9.130159786035620E-002
 -0.100094157436029      -0.108741201258529      -0.117150007487267     
 -0.125417599363191      -0.133599383203321      -0.140906007670291     
 -0.149725689319596      -0.154737393639911      -0.155409734114465     
 -0.176333526852381      -0.179278490075167      -0.190052340199933     
 -0.196239159872374      -0.204932182825603      -0.212140861550531     
 -0.219913262230672      -0.227184408041033      -0.234395685491401     
 -0.241180643694849      -0.247499930001023      -0.253031354219283     