 Title = "Wing and Wake"
 VARIABLES = "X" "Y" "Z" "GAM"
 Zone I=    5 J=   14 K=1  T="Blade"
 DATAPACKING=BLOCK
 VARLOCATION=([4]=CELLCENTERED)
  -12.7461946980917       -12.4971460235688       -12.2480973490459     
  -11.9990486745229       -11.7500000000000       -12.7461946980917     
  -12.4971460235688       -12.2480973490459       -11.9990486745229     
  -11.7500000000000       -12.7461946980917       -12.4971460235688     
  -12.2480973490459       -11.9990486745229       -11.7500000000000     
  -12.7461946980917       -12.4971460235688       -12.2480973490459     
  -11.9990486745229       -11.7500000000000       -12.7461946980917     
  -12.4971460235688       -12.2480973490459       -11.9990486745229     
  -11.7500000000000       -12.7461946980917       -12.4971460235688     
  -12.2480973490459       -11.9990486745229       -11.7500000000000     
  -12.7461946980917       -12.4971460235688       -12.2480973490459     
  -11.9990486745229       -11.7500000000000       -12.7461946980917     
  -12.4971460235688       -12.2480973490459       -11.9990486745229     
  -11.7500000000000       -12.7461946980917       -12.4971460235688     
  -12.2480973490459       -11.9990486745229       -11.7500000000000     
  -12.7461946980917       -12.4971460235688       -12.2480973490459     
  -11.9990486745229       -11.7500000000000       -12.7461946980917     
  -12.4971460235688       -12.2480973490459       -11.9990486745229     
  -11.7500000000000       -12.7461946980917       -12.4971460235688     
  -12.2480973490459       -11.9990486745229       -11.7500000000000     
  -12.7461946980917       -12.4971460235688       -12.2480973490459     
  -11.9990486745229       -11.7500000000000       -12.7461946980917     
  -12.4971460235688       -12.2480973490459       -11.9990486745229     
  -11.7500000000000     
  0.000000000000000E+000  0.000000000000000E+000  0.000000000000000E+000
  0.000000000000000E+000  0.000000000000000E+000  0.290581825739480     
  0.290581825739480       0.290581825739480       0.290581825739480     
  0.290581825739480        1.14543974346790        1.14543974346790     
   1.14543974346790        1.14543974346790        1.14543974346790     
   2.51489251828899        2.51489251828899        2.51489251828899     
   2.51489251828899        2.51489251828899        4.31935253268844     
   4.31935253268844        4.31935253268844        4.31935253268844     
   4.31935253268844        6.45395112957464        6.45395112957464     
   6.45395112957464        6.45395112957464        6.45395112957464     
   8.79463319744677        8.79463319744677        8.79463319744677     
   8.79463319744677        8.79463319744677        11.2053668025532     
   11.2053668025532        11.2053668025532        11.2053668025532     
   11.2053668025532        13.5460488704254        13.5460488704254     
   13.5460488704254        13.5460488704254        13.5460488704254     
   15.6806474673116        15.6806474673116        15.6806474673116     
   15.6806474673116        15.6806474673116        17.4851074817110     
   17.4851074817110        17.4851074817110        17.4851074817110     
   17.4851074817110        18.8545602565321        18.8545602565321     
   18.8545602565321        18.8545602565321        18.8545602565321     
   19.7094181742605        19.7094181742605        19.7094181742605     
   19.7094181742605        19.7094181742605        20.0000000000000     
   20.0000000000000        20.0000000000000        20.0000000000000     
   20.0000000000000     
  8.715574274765817E-002  6.536680706074363E-002  4.357787137382908E-002
  2.178893568691454E-002  0.000000000000000E+000  8.715574274765817E-002
  6.536680706074363E-002  4.357787137382908E-002  2.178893568691454E-002
  0.000000000000000E+000  8.715574274765817E-002  6.536680706074363E-002
  4.357787137382908E-002  2.178893568691454E-002  0.000000000000000E+000
  8.715574274765817E-002  6.536680706074363E-002  4.357787137382908E-002
  2.178893568691454E-002  0.000000000000000E+000  8.715574274765817E-002
  6.536680706074363E-002  4.357787137382908E-002  2.178893568691454E-002
  0.000000000000000E+000  8.715574274765817E-002  6.536680706074363E-002
  4.357787137382908E-002  2.178893568691454E-002  0.000000000000000E+000
  8.715574274765817E-002  6.536680706074363E-002  4.357787137382908E-002
  2.178893568691454E-002  0.000000000000000E+000  8.715574274765817E-002
  6.536680706074363E-002  4.357787137382908E-002  2.178893568691454E-002
  0.000000000000000E+000  8.715574274765817E-002  6.536680706074363E-002
  4.357787137382908E-002  2.178893568691454E-002  0.000000000000000E+000
  8.715574274765817E-002  6.536680706074363E-002  4.357787137382908E-002
  2.178893568691454E-002  0.000000000000000E+000  8.715574274765817E-002
  6.536680706074363E-002  4.357787137382908E-002  2.178893568691454E-002
  0.000000000000000E+000  8.715574274765817E-002  6.536680706074363E-002
  4.357787137382908E-002  2.178893568691454E-002  0.000000000000000E+000
  8.715574274765817E-002  6.536680706074363E-002  4.357787137382908E-002
  2.178893568691454E-002  0.000000000000000E+000  8.715574274765817E-002
  6.536680706074363E-002  4.357787137382908E-002  2.178893568691454E-002
  0.000000000000000E+000
  0.754649199238689        1.01627499397912        1.15880289789188     
   1.23472848150269        1.09004991556622        1.53251271156233     
   1.78548497064379        1.92054531376462        1.26955070615681     
   1.80549565521496        2.12235598463891        2.29563257387304     
   1.35549318689384        1.93289029100587        2.27714522263702     
   2.46673967924215        1.39601262577045        1.99209739894961     
   2.34828175252830        2.54478317821525        1.41408049796699     
   2.01829066454310        2.37954282636739        2.57890608810470     
   1.41905453140066        2.02546913889791        2.38807716876142     
   2.58819604164003        1.41361188862618        2.01759310576779     
   2.37869300581025        2.57797028254644        1.39551502290426     
   1.99133620764013        2.34733094254146        2.54371280758461     
   1.35553561311134        1.93289477253311        2.27708441133088     
   2.46660753464112        1.27034202482710        1.80657599606624     
   2.12356509280867        2.29686190791504        1.09126309997923     
   1.53418491639296        1.78738683770104        1.92252199904272     
  0.755651584321395        1.01759399919442        1.16027839122621     
   1.23626355596981     
 Zone I=   31 J=   14 K=1  T="NearWake"
 DATAPACKING=BLOCK
 VARLOCATION=([4]=CELLCENTERED)
  -11.6752853976431       -11.4252853976431       -11.1749719590030     
  -10.9244292874619       -10.6738171647242       -10.4231896373032     
  -10.1725702382707       -9.92195092996181       -9.67137440186434     
  -9.42076290802115       -9.17028307950657       -8.91964620618665     
  -8.66936425775336       -8.41857577575689       -8.16875345592155     
  -7.91756949454167       -7.66818701449262       -7.41733527008823     
  -7.16324423313701       -6.91561948078096       -6.66458697672377     
  -6.41450474880927       -6.16429736621208       -5.91408962106131     
  -5.66404923467729       -5.41405300805438       -5.16420601553999     
  -4.91447437075023       -4.66491207882695       -4.41552707989472     
  -4.16634077475389       -11.6752853976431       -11.4252853976431     
  -11.1755008602343       -10.9253563246271       -10.6750568611975     
  -10.4246766952371       -10.1742495811291       -9.92379079047702     
  -9.67331118267538       -9.42283214657678       -9.17229438293501     
  -8.92192959763631       -8.67109930934715       -8.42133188623689     
  -8.16954738841549       -7.92091082336970       -7.66790933136992     
  -7.41942148064512       -7.16637918965260       -6.91768499133547     
  -6.66711462123349       -6.41667431714518       -6.16638005852568     
  -5.91596648850119       -5.66565195523057       -5.41532218624915     
  -5.16505910519341       -4.91482836933465       -4.66466522802285     
  -4.41458005204402       -4.16462532883860       -11.6752853976431     
  -11.4252853976431       -11.1759399178247       -10.9264493571135     
  -10.6768575755942       -10.4271913865040       -10.1774694851517     
  -9.92770289590709       -9.67790291198838       -9.42807311449384     
  -9.17822168582823       -8.92835208518724       -8.67845759175181     
  -8.42857646921623       -8.17861055414281       -7.92879310134305     
  -7.67867125559454       -7.42874188430813       -7.17924673245060     
  -6.92920011954003       -6.67929370058373       -6.42934687134300     
  -6.17944118164919       -5.92954872456948       -5.67967515092042     
  -5.42982343208697       -5.17999187602988       -4.93018366423712     
  -4.68039720258199       -4.43063200304106       -4.18088350694917     
  -11.6752853976431       -11.4252853976431       -11.1759549468652     
  -10.9264764831145       -10.6768980494828       -10.4272486487358     
  -10.1775478577108       -9.92780653111963       -9.67803589197893     
  -9.42823879380024       -9.17842362462642       -8.92859281307339     
  -8.67874081422350       -8.42890352814627       -8.17899101867490     
  -7.92920801554343       -7.67915663065465       -7.42928862783229     
  -7.17979931773037       -6.92981681986738       -6.67995448681058     
  -6.43007736126475       -6.18019221711118       -5.93032617406314     
  -5.68045344181189       -5.43059229967640       -5.18073040438264     
  -4.93087368399421       -4.68101639811379       -4.43115787140648     
  -4.18129136503192       -11.6752853976431       -11.4252853976431     
  -11.1759574583468       -10.9264732713987       -10.6768848750601     
  -10.4272235340125       -10.1775101035892       -9.92775626352877     
  -9.67797335141214       -9.42816498797009       -9.17833801628862     
  -8.92849807065034       -8.67863198295642       -8.42879041806034     
  -8.17885151764898       -7.92908051988169       -7.67896109013819     
  -7.42918614227456       -7.17957595228398       -6.92962265087894     
  -6.67971355712745       -6.42983314005768       -6.17991610698081     
  -5.93002860414695       -5.68012254399758       -5.43022750452551     
  -5.18032476413415       -4.93042334613898       -4.68051569618104     
  -4.43060181527296       -4.18067406722783       -11.6752853976431     
  -11.4252853976431       -11.1759597668850       -10.9264732115100     
  -10.6768797284490       -10.4272116908496       -10.1774905453685     
  -9.92772851769760       -9.67793681796622       -9.42812000470757     
  -9.17828320376372       -8.92843568954163       -8.67855675917833     
  -8.42871173367338       -8.17874953457396       -7.92899140564832     
  -7.67881018746593       -7.42911918638359       -7.17940832096310     
  -6.92948359243736       -6.67954162931405       -6.42965960690488     
  -6.17972341516212       -5.92982492995099       -5.67990253145647     
  -5.42999282466739       -5.18007350495347       -4.93015552898417     
  -4.68023049196654       -4.43029897277316       -4.18035315119957     
  -11.6752853976431       -11.4252853976431       -11.1759610386097     
  -10.9264738263903       -10.6768785327763       -10.4272079627460     
  -10.1774837734995       -9.92771843066593       -9.67792301997995     
  -9.42810261772832       -9.17826137159277       -8.92841058774397     
  -8.67852545399233       -8.42867923036597       -8.17870522483169     
  -7.92895461484954       -7.67874013445076       -7.42909483813402     
  -7.17933133584676       -6.92942254488292       -6.67946557336491     
  -6.42958376815578       -6.17963979256343       -5.92973750957378     
  -5.67980925722900       -5.42989477691139       -5.17997025390713     
  -4.93004748164061       -4.68011771957650       -4.43018178638542     
  -4.18023178726709       -11.6752853976431       -11.4252853976431     
  -11.1759609667588       -10.9264737860482       -10.6768785825969     
  -10.4272081386787       -10.1774840976520       -9.92771890634397     
  -9.67792364875593       -9.42810336074848       -9.17826222536496     
  -8.92841143088310       -8.67852632165818       -8.42867983738033     
  -8.17870571113104       -7.92895454529381       -7.67873936828614     
  -7.42909280626174       -7.17932917392503       -6.92941983463947     
  -6.67946236516061       -6.42957998389598       -6.17963538255283     
  -5.92973240436367       -5.67980338442316       -5.42988805602781     
  -5.17996259869710       -4.93003879969139       -4.68010791254379     
  -4.43017074837500       -4.18021939470495       -11.6752853976431     
  -11.4252853976431       -11.1759596274036       -10.9264731619855     
  -10.6768799116615       -10.4272122035729       -10.1774914560127     
  -9.92772985400263       -9.67793860477339       -9.42812217416353     
  -9.17828576950926       -8.92843838800187       -8.67855969229281     
  -8.42871423919078       -8.17875196177678       -7.92899269900440     
  -7.67881001058705       -7.42911596849506       -7.17940503161008     
  -6.92947916357634       -6.67953616590028       -6.42965290439002     
  -6.17971532109206       -5.92981522680708       -5.67989097071081     
  -5.42997910831261       -5.18005728471497       -4.93013639780097     
  -4.68020797648239       -4.43027251751566       -4.18032206210173     
  -11.6752853976431       -11.4252853976431       -11.1759573870332     
  -10.9264732722624       -10.6768850710463       -10.4272240287951     
  -10.1775109878404       -9.92775760223712       -9.67797521160451     
  -9.42816736350321       -9.17834097204869       -8.92850143310590     
  -8.67863590261590       -8.42879435104824       -8.17885587515885     
  -7.92908431101876       -7.67896411562732       -7.42918653669530     
  -7.17957709438826       -6.92962352138295       -6.67971439082793     
  -6.42983394465962       -6.17991695700630       -5.93002952425973     
  -5.68012353121647       -5.43022847577432       -5.18032551804082     
  -4.93042348855499       -4.68051454588576       -4.43059825270046     
  -4.18066620224015       -11.6752853976431       -11.4252853976431     
  -11.1759550258550       -10.9264764948949       -10.6768979673320     
  -10.4272484871433       -10.1775476524307       -9.92780633264606     
  -9.67803575594792       -9.42823878037328       -9.17842379234255     
  -8.92859320113802       -8.67874149292468       -8.42890443850382     
  -8.17899235823550       -7.92920941009931       -7.67915817469408     
  -7.42928933682765       -7.17980047541278       -6.92981817849961     
  -6.67995617395710       -6.43007982103009       -6.18019608443930     
  -5.93033238330826       -5.68046339899633       -5.43060801900682     
  -5.18075475509748       -4.93091059887927       -4.68107103764580     
  -4.43123642454752       -4.18139974346318       -11.6752853976431     
  -11.4252853976431       -11.1759401275400       -10.9264492935359     
  -10.6768570058147       -10.4271901929981       -10.1774676194181     
  -9.92770037215451       -9.67789975041870       -9.42806941530310     
  -9.17821745435047       -8.92834752035467       -8.67845260378798     
  -8.42857136126781       -8.17860525476775       -7.92878757514495     
  -7.67866576515967       -7.42873692402374       -7.17923955286161     
  -6.92919070209183       -6.67928075296438       -6.42932967901821     
  -6.17941866952282       -5.92951966172594       -5.67963815976922     
  -5.42977704350627       -5.17993488058229       -4.93011586901825     
  -4.68032173702088       -4.43056391439364       -4.18091599464423     
  -11.6752853976431       -11.4252853976431       -11.1754999255590     
  -10.9253528887920       -10.6750506251437       -10.4246677928792     
  -10.1742382964310       -9.92377749686781       -9.67329620770830     
  -9.42281598928083       -9.17227722641370       -8.92191193328374     
  -8.67108153624007       -8.42131337928188       -8.16953064482510     
  -7.92089119754002       -7.66789568294069       -7.41941081810646     
  -7.16636981626704       -6.91767204837805       -6.66709997836065     
  -6.41665663594044       -6.16635886109740       -5.91594170278287     
  -5.66562301499716       -5.41528910631696       -5.16502180531431     
  -4.91478739412923       -4.66462139483167       -4.41453394529983     
  -4.16457105429792       -11.6752853976431       -11.4252853976431     
  -11.1749723094508       -10.9244302586990       -10.6738191209406     
  -10.4231929493994       -10.1725752609486       -9.92195796711547     
  -9.67138374053727       -9.42077470315073       -9.17029754160763     
  -8.91966319650403       -8.66938380208709       -8.41859762674668     
  -8.16877590712796       -7.91759469901642       -7.66820608100626     
  -7.41735295604576       -7.16325992246795       -6.91563415635007     
  -6.66459945607057       -6.41451421370867       -6.16430217965960     
  -5.91408768030987       -5.66403710917905       -5.41402581451614     
  -5.16415636074510       -4.91439137910036       -4.66477985282479     
  -4.41532381171237       -4.16604115618873     
  0.000000000000000E+000  0.000000000000000E+000  3.756204024032851E-004
  1.466134084652228E-003  3.319758358268978E-003  5.930894613082772E-003
  9.291147637331899E-003  1.333844060635631E-002  1.811077399985565E-002
  2.335003418435416E-002  2.949430076488063E-002  3.539531183823250E-002
  4.317350856423361E-002  4.886065014247906E-002  5.852420689411433E-002
  6.284487527210239E-002  7.669050081410883E-002  7.639995869228176E-002
  9.342764135916561E-002  0.101102879077026       0.110253796621841     
  0.119599497987530       0.128235867450661       0.136933459840851     
  0.145095304928983       0.152956512359792       0.160274425107636     
  0.167068908695381       0.173210141722590       0.178565573115125     
  0.182715427157933       0.290581825739480       0.290581825739480     
  0.290945944459276       0.289530279346272       0.286649360623714     
  0.282333797578115       0.276591433285032       0.269670355000643     
  0.261181991675356       0.252422227656438       0.240741099900928     
  0.231994910531663       0.215136891353506       0.211149888144567     
  0.181801793407426       0.195573026703579       0.138524006867503     
  0.177511773554090       0.118506977747462       0.119070674305381     
  9.911624866454247E-002  8.198971828108613E-002  6.763812360149793E-002
  5.132414140372435E-002  3.711418766160608E-002  2.274914979994076E-002
  9.612519092853277E-003 -2.857227852771229E-003 -1.418101292292519E-002
 -2.425656598698098E-002 -3.218281280069560E-002   1.14543974346790     
   1.14543974346790        1.14556732663024        1.14555166941795     
   1.14550928079995        1.14542699693239        1.14529244476027     
   1.14512231409297        1.14486830509012        1.14463459088938     
   1.14418523583103        1.14402844357080        1.14307956354768     
   1.14360194697178        1.14093835087313        1.14459319757339     
   1.13580560267016        1.14691540177661        1.13431529745158     
   1.14066820208007        1.13678872551932        1.13654654680989     
   1.13533154654169        1.13427393358457        1.13310309022337     
   1.13194506063548        1.13078170758578        1.12965170709435     
   1.12858626157167        1.12763490933009        1.12685336264362     
   2.51489251828899        2.51489251828899        2.51494220817517     
   2.51494485805629        2.51494827758548        2.51494884589528     
   2.51494292713200        2.51493633688147        2.51491343856315     
   2.51490904749846        2.51484476725948        2.51489210970073     
   2.51468035177481        2.51500171470923        2.51418733042118     
   2.51574864613125        2.51254150980965        2.51703546969536     
   2.51250303556478        2.51520792761634        2.51403446124865     
   2.51420307292395        2.51408106200136        2.51401102424890     
   2.51391906804549        2.51383609844291        2.51375640515041     
   2.51368365821377        2.51361811719431        2.51356004515651     
   2.51350649103469        4.31935253268844        4.31935253268844     
   4.31937362392547        4.31937497681314        4.31937731552081     
   4.31937942242218        4.31938001784962        4.31938140932439     
   4.31937780799869        4.31938245239538        4.31936591294790     
   4.31939300664796        4.31932365671509        4.31945885789291     
   4.31916089303902        4.31978220667881        4.31853471067886     
   4.32031624007211        4.31857589324916        4.31965351270493     
   4.31923104538862        4.31931433071056        4.31929924554635     
   4.31930052210526        4.31929626254813        4.31929447780713     
   4.31929397994224        4.31929485412178        4.31929684651570     
   4.31929924202494        4.31930015342209        6.45395112957464     
   6.45395112957464        6.45395956435540        6.45395961785125     
   6.45396011298953        6.45396058254513        6.45396054280634     
   6.45396089342501        6.45395943672863        6.45396124549066     
   6.45395516042858        6.45396584058139        6.45394005550651     
   6.45399236753371        6.45387951613130        6.45411900074291     
   6.45363832988355        6.45432518844045        6.45366367825593     
   6.45407844611856        6.45392416236925        6.45395820902304     
   6.45395766352630        6.45396236202025        6.45396541861743     
   6.45396907804465        6.45397308638925        6.45397722654108     
   6.45398132836689        6.45398497264546        6.45398733140891     
   8.79463319744677        8.79463319744677        8.79463451501977     
   8.79463354046294        8.79463263759712        8.79463167839640     
   8.79463052908905        8.79462942247343        8.79462777977908     
   8.79462692241360        8.79462394375144        8.79462526320714     
   8.79461703491699        8.79462906917593        8.79459804026517     
   8.79465885661214        8.79453154679563        8.79470896476321     
   8.79453784214035        8.79464556762304        8.79460645053444     
   8.79461529845678        8.79461577748188        8.79461738191404     
   8.79461871339190        8.79462015609885        8.79462173044972     
   8.79462333145316        8.79462493381817        8.79462642371423     
   8.79462761865338        11.2053668025532        11.2053668025532     
   11.2053623893801        11.2053603791920        11.2053581231729     
   11.2053557375153        11.2053533322425        11.2053506531691     
   11.2053482617873        11.2053448034461        11.2053432057742     
   11.2053369411962        11.2053400586089        11.2053222748842     
   11.2053479565250        11.2052800525030        11.2054035507160     
   11.2052159745233        11.2053915162270        11.2052802877001     
   11.2053199672198        11.2053096803124        11.2053089526982     
   11.2053066694769        11.2053051078444        11.2053034697195     
   11.2053019965835        11.2053007127901        11.2052997519644     
   11.2052992622546        11.2052995784225        13.5460488704254     
   13.5460488704254        13.5460373165225        13.5460340608325     
   13.5460301772403        13.5460260968248        13.5460222601500     
   13.5460177322463        13.5460146704279        13.5460079526990     
   13.5460087317508        13.5459922054266        13.5460118139743     
   13.5459523629311        13.5460584456881        13.5458095675904     
   13.5462851050586        13.5455836698548        13.5462504432887     
   13.5458294966623        13.5459833152367        13.5459456211856     
   13.5459441404774        13.5459365213906        13.5459310368355     
   13.5459247647979        13.5459183968506        13.5459120210148     
   13.5459060146604        13.5459008852035        13.5458977683449     
   15.6806474673116        15.6806474673116        15.6806232091129     
   15.6806183499881        15.6806123238108        15.6806062744085     
   15.6806014077455        15.6805953643971        15.6805938681699     
   15.6805836070096        15.6805939625142        15.6805599090074     
   15.6806217519256        15.6804775783038        15.6807669146129     
   15.6801329666585        15.6813735197067        15.6795702082119     
   15.6813182492003        15.6802294699082        15.6806503519717     
   15.6805594073860        15.6805695054697        15.6805609940144     
   15.6805584531784        15.6805523145536        15.6805445682631     
   15.6805346475037        15.6805230993156        15.6805106213418     
   15.6804995934222        17.4851074817110        17.4851074817110     
   17.4850544813692        17.4850480593973        17.4850407341781     
   17.4850360223514        17.4850374760633        17.4850392175726     
   17.4850567938893        17.4850553091692        17.4851131298650     
   17.4850584770211        17.4852623169452        17.4849313867893     
   17.4857363672062        17.4841618577185        17.4873601856628     
   17.4828419364746        17.4873861332136        17.4846669799935     
   17.4858417711245        17.4856652762992        17.4857852980528     
   17.4858506878753        17.4859409968763        17.4860227875888     
   17.4861043974233        17.4861821012886        17.4862576348732     
   17.4863316541357        17.4864081084571        18.8545602565321     
   18.8545602565321        18.8544290698299        18.8544407951954     
   18.8544792202032        18.8545575052844        18.8546879072394     
   18.8548536505309        18.8551029591929        18.8553315392588     
   18.8557753036376        18.8559257536506        18.8568677812981     
   18.8563374018308        18.8589921806680        18.8553294864666     
   18.8641029393996        18.8529784971140        18.8655904959609     
   18.8592302335126        18.8631181262000        18.8633619379186     
   18.8645891677977        18.8656619403838        18.8668612039753     
   18.8680643003633        18.8693056943800        18.8705748228198     
   18.8719171299653        18.8735393533709        18.8769724090409     
   19.7094181742605        19.7094181742605        19.7090501818490     
   19.7104647916478        19.7133471734987        19.7176656221523     
   19.7234113010586        19.7303351309859        19.7388251589846     
   19.7475841270412        19.7592629477881        19.7680025791897     
   19.7848526218820        19.7888290985654        19.8181568811744     
   19.8043897525904        19.8613856246463        19.8224283604104     
   19.8814100617149        19.8808560334031        19.9008072495391     
   19.9179279263231        19.9322796688928        19.9485843413513     
   19.9627871284821        19.9771361761229        19.9902529893564     
   20.0026886129561        20.0139623456549        20.0239615832452     
   20.0317921618232        20.0000000000000        20.0000000000000     
   19.9996204788449        19.9985232579480        19.9966619858943     
   19.9940422261498        19.9906723872111        19.9866147224542     
   19.9818311376522        19.9765799147866        19.9704224260704     
   19.9645071114127        19.9567128130595        19.9510050513365     
   19.9413239703198        19.9369706074714        19.9230939320517     
   19.9233521275167        19.9062922995774        19.8985792670734     
   19.8893829491727        19.8799829675602        19.8712792674925     
   19.8624981043901        19.8542309296084        19.8462335951391     
   19.8387348945490        19.8316940244762        19.8252073742508     
   19.8193608898720        19.8145179719306     
 -6.536680706074363E-003 -6.536680706074363E-003  1.235688882408074E-004
  7.447459974836971E-003  1.510448789003042E-002  2.287990724926869E-002
  3.061882921888994E-002  3.819074434702906E-002  4.550213968681421E-002
  5.246686693184184E-002  5.895508263255994E-002  6.516550404483959E-002
  7.019729483364959E-002  7.650587618513600E-002  7.753496280481620E-002
  8.789504055554208E-002  8.095066662168779E-002  9.676829654256527E-002
  8.935978760506026E-002  9.244864165154580E-002  9.249943490350662E-002
  9.069774226690568E-002  8.914958697092931E-002  8.631410381397912E-002
  8.309164775036459E-002  7.901356829500733E-002  7.441371268509020E-002
  6.919134495145425E-002  6.352574231676349E-002  5.753211130480190E-002
  5.169957883999504E-002 -6.536680706074363E-003 -6.536680706074363E-003
 -2.634034829440496E-002 -4.501504654529111E-002 -6.279735928238935E-002
 -7.974798033567014E-002 -9.588005604905858E-002 -0.111121236739864     
 -0.125510075082661      -0.138868522983482      -0.151080927054647     
 -0.163234035579363      -0.170716178539875      -0.186164177559633     
 -0.180977434284480      -0.210145937017088      -0.181137935629048     
 -0.220479618157043      -0.199493825119218      -0.215644567231465     
 -0.212381591937556      -0.210972788028847      -0.210672340642081     
 -0.206818218794618      -0.203455150434545      -0.198248137058782     
 -0.192866891511046      -0.186582517508193      -0.180151191256124     
 -0.173661711976961      -0.168235355654980      -6.536680706074363E-003
 -6.536680706074363E-003 -2.007293068874508E-002 -3.206593460563517E-002
 -4.311606946935213E-002 -5.351958820120138E-002 -6.345517232319324E-002
 -7.301626611014826E-002 -8.229868464239853E-002 -9.130231178771663E-002
 -0.100141515507464      -0.108703732204616      -0.117165190953657     
 -0.125396719240860      -0.133078723933449      -0.141619597177083     
 -0.147461713658018      -0.147872994958635      -0.169268096781522     
 -0.171966242553668      -0.182960765558406      -0.189217956278972     
 -0.198031952217741      -0.205382394035703      -0.213333806842771     
 -0.220834066497708      -0.228353146260229      -0.235562804075350     
 -0.242478397810981      -0.248865968787273      -0.254486847228857     