 Title = "Wing and Wake"
 VARIABLES = "X" "Y" "Z" "GAM"
 Zone I=    5 J=   14 K=1  T="Blade"
 DATAPACKING=BLOCK
 VARLOCATION=([4]=CELLCENTERED)
  -8.24619469809175       -7.99714602356881       -7.74809734904587     
  -7.49904867452294       -7.25000000000000       -8.24619469809175     
  -7.99714602356881       -7.74809734904587       -7.49904867452294     
  -7.25000000000000       -8.24619469809175       -7.99714602356881     
  -7.74809734904587       -7.49904867452294       -7.25000000000000     
  -8.24619469809175       -7.99714602356881       -7.74809734904587     
  -7.49904867452294       -7.25000000000000       -8.24619469809175     
  -7.99714602356881       -7.74809734904587       -7.49904867452294     
  -7.25000000000000       -8.24619469809175       -7.99714602356881     
  -7.74809734904587       -7.49904867452294       -7.25000000000000     
  -8.24619469809175       -7.99714602356881       -7.74809734904587     
  -7.49904867452294       -7.25000000000000       -8.24619469809175     
  -7.99714602356881       -7.74809734904587       -7.49904867452294     
  -7.25000000000000       -8.24619469809175       -7.99714602356881     
  -7.74809734904587       -7.49904867452294       -7.25000000000000     
  -8.24619469809175       -7.99714602356881       -7.74809734904587     
  -7.49904867452294       -7.25000000000000       -8.24619469809175     
  -7.99714602356881       -7.74809734904587       -7.49904867452294     
  -7.25000000000000       -8.24619469809175       -7.99714602356881     
  -7.74809734904587       -7.49904867452294       -7.25000000000000     
  -8.24619469809175       -7.99714602356881       -7.74809734904587     
  -7.49904867452294       -7.25000000000000       -8.24619469809175     
  -7.99714602356881       -7.74809734904587       -7.49904867452294     
  -7.25000000000000     
  0.000000000000000E+000  0.000000000000000E+000  0.000000000000000E+000
  0.000000000000000E+000  0.000000000000000E+000  0.290581825739480     
  0.290581825739480       0.290581825739480       0.290581825739480     
  0.290581825739480        1.14543974346790        1.14543974346790     
   1.14543974346790        1.14543974346790        1.14543974346790     
   2.51489251828899        2.51489251828899        2.51489251828899     
   2.51489251828899        2.51489251828899        4.31935253268844     
   4.31935253268844        4.31935253268844        4.31935253268844     
   4.31935253268844        6.45395112957464        6.45395112957464     
   6.45395112957464        6.45395112957464        6.45395112957464     
   8.79463319744677        8.79463319744677        8.79463319744677     
   8.79463319744677        8.79463319744677        11.2053668025532     
   11.2053668025532        11.2053668025532        11.2053668025532     
   11.2053668025532        13.5460488704254        13.5460488704254     
   13.5460488704254        13.5460488704254        13.5460488704254     
   15.6806474673116        15.6806474673116        15.6806474673116     
   15.6806474673116        15.6806474673116        17.4851074817110     
   17.4851074817110        17.4851074817110        17.4851074817110     
   17.4851074817110        18.8545602565321        18.8545602565321     
   18.8545602565321        18.8545602565321        18.8545602565321     
   19.7094181742605        19.7094181742605        19.7094181742605     
   19.7094181742605        19.7094181742605        20.0000000000000     
   20.0000000000000        20.0000000000000        20.0000000000000     
   20.0000000000000     
  8.715574274765817E-002  6.536680706074363E-002  4.357787137382908E-002
  2.178893568691454E-002  0.000000000000000E+000  8.715574274765817E-002
  6.536680706074363E-002  4.357787137382908E-002  2.178893568691454E-002
  0.000000000000000E+000  8.715574274765817E-002  6.536680706074363E-002
  4.357787137382908E-002  2.178893568691454E-002  0.000000000000000E+000
  8.715574274765817E-002  6.536680706074363E-002  4.357787137382908E-002
  2.178893568691454E-002  0.000000000000000E+000  8.715574274765817E-002
  6.536680706074363E-002  4.357787137382908E-002  2.178893568691454E-002
  0.000000000000000E+000  8.715574274765817E-002  6.536680706074363E-002
  4.357787137382908E-002  2.178893568691454E-002  0.000000000000000E+000
  8.715574274765817E-002  6.536680706074363E-002  4.357787137382908E-002
  2.178893568691454E-002  0.000000000000000E+000  8.715574274765817E-002
  6.536680706074363E-002  4.357787137382908E-002  2.178893568691454E-002
  0.000000000000000E+000  8.715574274765817E-002  6.536680706074363E-002
  4.357787137382908E-002  2.178893568691454E-002  0.000000000000000E+000
  8.715574274765817E-002  6.536680706074363E-002  4.357787137382908E-002
  2.178893568691454E-002  0.000000000000000E+000  8.715574274765817E-002
  6.536680706074363E-002  4.357787137382908E-002  2.178893568691454E-002
  0.000000000000000E+000  8.715574274765817E-002  6.536680706074363E-002
  4.357787137382908E-002  2.178893568691454E-002  0.000000000000000E+000
  8.715574274765817E-002  6.536680706074363E-002  4.357787137382908E-002
  2.178893568691454E-002  0.000000000000000E+000  8.715574274765817E-002
  6.536680706074363E-002  4.357787137382908E-002  2.178893568691454E-002
  0.000000000000000E+000
  0.730393088877226       0.982293794917945        1.11860630386382     
   1.19038177019821        1.05275547169348        1.47838738267505     
   1.72035300089314        1.84816356659835        1.22085048579522     
   1.73418327483806        2.03593691981925        2.19914569352181     
   1.29646442988091        1.84625998252091        2.17195837726457     
   2.34912087831016        1.32852974892984        1.89301512288858     
   2.22793560246850        2.41019068822801        1.34130336102219     
   1.91145194458371        2.24980463013542        2.43385243494560     
   1.34469678457666        1.91632508752124        2.25555727007212     
   2.44004873108116        1.34130336102219        1.91145194458371     
   2.24980463013543        2.43385243494560        1.32852974892984     
   1.89301512288858        2.22793560246850        2.41019068822802     
   1.29646442988091        1.84625998252091        2.17195837726457     
   2.34912087831016        1.22085048579522        1.73418327483807     
   2.03593691981925        2.19914569352181        1.05275547169348     
   1.47838738267505        1.72035300089314        1.84816356659835     
  0.730393088877226       0.982293794917945        1.11860630386382     
   1.19038177019821     
 Zone I=   30 J=   14 K=1  T="NearWake"
 DATAPACKING=BLOCK
 VARLOCATION=([4]=CELLCENTERED)
  -7.17528539764312       -6.92528539764312       -6.67471704644553     
  -6.42416792127282       -6.17361481669086       -5.92305173159153     
  -5.67252887944240       -5.42202269064887       -5.17156268967106     
  -4.92114449765397       -4.67078638814234       -4.42049663186531     
  -4.17029331694912       -3.92019455206464       -3.67022528828320     
  -3.42041551389901       -3.17080359813429       -2.92143765186409     
  -2.67237886027007       -2.42370485278412       -2.17551401299904     
  -1.92792947365132       -1.68110073956430       -1.43519625688924     
  -1.19036931584800      -0.946660247151588      -0.703639876521283     
 -0.459846333924622      -0.194370158110064       1.203243118962824E-002
  -7.17528539764312       -6.92528539764312       -6.67560323012687     
  -6.42533174637847       -6.17516564713651       -5.92485247725480     
  -5.67456255023254       -5.42423270618156       -5.17391467835871     
  -4.92359494088497       -4.67329340537063       -4.42301146064757     
  -4.17276084819257       -3.92254847940431       -3.67238543452299     
  -3.42228248805634       -3.17225324311379       -2.92231267377293     
  -2.67247789170891       -2.42276634409800       -2.17319241126867     
  -1.92375725443606       -1.67442301589040       -1.42504557780348     
  -1.17520148836305      -0.923774063708607      -0.667957571074414     
 -0.397225528985659      -4.737188018498469E-002  8.402049405491299E-003
  -7.17528539764312       -6.92528539764312       -6.67630273247267     
  -6.42663417372080       -6.17714336927027       -5.92745701065997     
  -5.67779347101479       -5.42806245464789       -5.17832744440967     
  -4.92856738652201       -4.67880402916379       -4.42903455908086     
  -4.17926863813745       -3.92950829569522       -3.67975896495610     
  -3.43002281381565       -3.18030140088179       -2.93059200044880     
  -2.68088562532787       -2.43116042121603       -2.18137052100336     
  -1.93142268508894       -1.68112767695757       -1.43009138290726     
  -1.17745026521021      -0.921164558487485      -0.655820324738197     
 -0.364141024254506       5.254205311318344E-002 -4.257215874025079E-002
  -7.17528539764312       -6.92528539764312       -6.67631075734661     
  -6.42664468644711       -6.17715832635413       -5.92747799736327     
  -5.67782214370288       -5.42809770118202       -5.17836787318460     
  -4.92860868017292       -4.67884048304408       -4.42905712496145     
  -4.17926517764652       -3.92946199791408       -3.67964761401285     
  -3.42981706430320       -3.17996314060773       -2.93007198748468     
  -2.68012076207781       -2.43007029200917       -2.17985327637860     
  -1.92934999358864       -1.67833825573052       -1.42638099615608     
  -1.17255073869790      -0.914686473913945      -0.647057444549603     
 -0.351276302382156       6.675496001277414E-002 -5.730628051459015E-002
  -7.17528539764312       -6.92528539764312       -6.67630469107970     
  -6.42662314888563       -6.17711871049527       -5.92741635165746     
  -5.67773755502408       -5.42798733542376       -5.17823017111365     
  -4.92844052031430       -4.67863888506255       -4.42881790385419     
  -4.17898370749420       -3.92913267059668       -3.67926420026991     
  -3.42937260432869       -3.17945024305486       -2.92948302790125     
  -2.67944830786076       -2.42930754282169       -2.17899455073435     
  -1.92839096913529       -1.67727550031352       -1.42520964189781     
  -1.17125776562417      -0.913232998621306      -0.645323919699328     
 -0.348820231373323       6.871760185703105E-002 -6.184143123856652E-002
  -7.17528539764312       -6.92528539764312       -6.67630085951223     
  -6.42660978486294       -6.17709511426376       -5.92737945070766     
  -5.67768717331483       -5.42792177952697       -5.17814916593025     
  -4.92834310563937       -4.67852473894398       -4.42868649580184     
  -4.17883484652876       -3.92896621884804       -3.67908030647756     
  -3.42917163578304       -3.17923289101183       -2.92925029340900     
  -2.67920151523996       -2.42904826431453       -2.17872446088022     
  -1.92811154099966       -1.67698746084579       -1.42491196550692     
  -1.17094571082708      -0.912893710927561      -0.644923050770546     
 -0.348241801120662       6.910170475524953E-002 -6.305192547237139E-002
  -7.17528539764312       -6.92528539764312       -6.67629921954229     
  -6.42660414164935       -6.17708553401451       -5.92736462890971     
  -5.67766729879062       -5.42789627988953       -5.17811819164689     
  -4.92830652237733       -4.67848274371683       -4.42863922820910     
  -4.17878261502034       -3.92890936121273       -3.67901926213266     
  -3.42910689118430       -3.17916498984865       -2.92917980015077     
  -2.67912899097004       -2.42897421736863       -2.17864928562944     
  -1.92803542394673       -1.67691023927840       -1.42483288633007     
  -1.17086296607484      -0.912803364205492      -0.644815634846092     
 -0.348086717827745       6.920611465116543E-002 -6.337457162654854E-002
  -7.17528539764312       -6.92528539764312       -6.67629921954229     
  -6.42660414164935       -6.17708553401451       -5.92736462890971     
  -5.67766729879062       -5.42789627988953       -5.17811819164689     
  -4.92830652237733       -4.67848274371683       -4.42863922820910     
  -4.17878261502034       -3.92890936121273       -3.67901926213266     
  -3.42910689118430       -3.17916498984865       -2.92917980015077     
  -2.67912899097004       -2.42897421736863       -2.17864928562944     
  -1.92803542394673       -1.67691023927840       -1.42483288633007     
  -1.17086296607484      -0.912803364205492      -0.644815634846092     
 -0.348086717827745       6.920611465116522E-002 -6.337457162654850E-002
  -7.17528539764312       -6.92528539764312       -6.67630085951223     
  -6.42660978486294       -6.17709511426376       -5.92737945070766     
  -5.67768717331483       -5.42792177952697       -5.17814916593025     
  -4.92834310563937       -4.67852473894398       -4.42868649580184     
  -4.17883484652876       -3.92896621884804       -3.67908030647756     
  -3.42917163578304       -3.17923289101183       -2.92925029340900     
  -2.67920151523996       -2.42904826431453       -2.17872446088022     
  -1.92811154099966       -1.67698746084579       -1.42491196550692     
  -1.17094571082708      -0.912893710927560      -0.644923050770546     
 -0.348241801120662       6.910170475524956E-002 -6.305192547237144E-002
  -7.17528539764312       -6.92528539764312       -6.67630469107970     
  -6.42662314888563       -6.17711871049527       -5.92741635165746     
  -5.67773755502408       -5.42798733542376       -5.17823017111365     
  -4.92844052031430       -4.67863888506255       -4.42881790385419     
  -4.17898370749420       -3.92913267059668       -3.67926420026991     
  -3.42937260432869       -3.17945024305486       -2.92948302790125     
  -2.67944830786076       -2.42930754282169       -2.17899455073435     
  -1.92839096913529       -1.67727550031352       -1.42520964189781     
  -1.17125776562417      -0.913232998621306      -0.645323919699328     
 -0.348820231373323       6.871760185703089E-002 -6.184143123856656E-002
  -7.17528539764312       -6.92528539764312       -6.67631075734661     
  -6.42664468644711       -6.17715832635413       -5.92747799736327     
  -5.67782214370288       -5.42809770118202       -5.17836787318460     
  -4.92860868017292       -4.67884048304408       -4.42905712496145     
  -4.17926517764652       -3.92946199791408       -3.67964761401285     
  -3.42981706430320       -3.17996314060773       -2.93007198748468     
  -2.68012076207781       -2.43007029200917       -2.17985327637860     
  -1.92934999358864       -1.67833825573052       -1.42638099615608     
  -1.17255073869790      -0.914686473913945      -0.647057444549603     
 -0.351276302382156       6.675496001277377E-002 -5.730628051459041E-002
  -7.17528539764312       -6.92528539764312       -6.67630273247267     
  -6.42663417372080       -6.17714336927027       -5.92745701065997     
  -5.67779347101479       -5.42806245464789       -5.17832744440967     
  -4.92856738652201       -4.67880402916379       -4.42903455908086     
  -4.17926863813745       -3.92950829569522       -3.67975896495610     
  -3.43002281381565       -3.18030140088179       -2.93059200044880     
  -2.68088562532787       -2.43116042121603       -2.18137052100336     
  -1.93142268508894       -1.68112767695757       -1.43009138290726     
  -1.17745026521021      -0.921164558487485      -0.655820324738196     
 -0.364141024254506       5.254205311318331E-002 -4.257215874025123E-002
  -7.17528539764312       -6.92528539764312       -6.67560323012687     
  -6.42533174637847       -6.17516564713651       -5.92485247725480     
  -5.67456255023254       -5.42423270618156       -5.17391467835871     
  -4.92359494088497       -4.67329340537063       -4.42301146064757     
  -4.17276084819257       -3.92254847940431       -3.67238543452299     
  -3.42228248805634       -3.17225324311379       -2.92231267377293     
  -2.67247789170891       -2.42276634409800       -2.17319241126867     
  -1.92375725443606       -1.67442301589040       -1.42504557780348     
  -1.17520148836305      -0.923774063708606      -0.667957571074412     
 -0.397225528985659      -4.737188018498564E-002  8.402049405489952E-003
  -7.17528539764312       -6.92528539764312       -6.67471704644553     
  -6.42416792127282       -6.17361481669086       -5.92305173159153     
  -5.67252887944240       -5.42202269064887       -5.17156268967106     
  -4.92114449765397       -4.67078638814234       -4.42049663186531     
  -4.17029331694912       -3.92019455206464       -3.67022528828320     
  -3.42041551389901       -3.17080359813429       -2.92143765186409     
  -2.67237886027007       -2.42370485278412       -2.17551401299904     
  -1.92792947365132       -1.68110073956430       -1.43519625688924     
  -1.19036931584800      -0.946660247151587      -0.703639876521282     
 -0.459846333924624      -0.194370158110065       1.203243118963058E-002
  0.000000000000000E+000  0.000000000000000E+000  6.008489762069626E-004
  2.309475133513580E-003  4.336489766193677E-003  7.259929505805214E-003
  1.070136374261056E-002  1.482505964241669E-002  1.947130520689990E-002
  2.464146757389312E-002  3.023932113391179E-002  3.620624903883917E-002
  4.245222684263091E-002  4.888995911647992E-002  5.541750647544680E-002
  6.192560840739358E-002  6.829269108116791E-002  7.438480102423575E-002
  8.005197713992662E-002  8.512453975681210E-002  8.940735093079916E-002
  9.267245346410002E-002  9.465228027570523E-002  9.503580601371422E-002
  9.346131016357279E-002  8.984795105585711E-002  8.551896908005277E-002
  8.468187335751701E-002  5.013410367096788E-002  6.899093521492441E-002
  0.290581825739480       0.290581825739480       0.291243652583302     
  0.287748790199182       0.285120308463378       0.279719164735596     
  0.273915951419156       0.266502453720866       0.258258473335214     
  0.248926698281773       0.238801335109233       0.227913420322092     
  0.216440961560529       0.204507830113359       0.192281065723124     
  0.179925743579190       0.167626248784667       0.155580112090803     
  0.144006443253502       0.133153438514623       0.123314233720999     
  0.114852657392554       0.108251552617329       0.104198807227400     
  0.103751113850661       0.108762244350744       0.122952405029836     
  0.157006770308173       0.213953095214632       0.325548386458535     
   1.14543974346790        1.14543974346790        1.14569509749854     
   1.14541111568307        1.14554420802240        1.14534280717130     
   1.14525339568244        1.14503307158910        1.14481262513533     
   1.14452325445694        1.14420255947551        1.14383356208912     
   1.14342924601280        1.14298900638667        1.14252191446950     
   1.14203551870986        1.14154269701936        1.14105951978150     
   1.14060821948772        1.14021829280803        1.13992979140809     
   1.13979665790590        1.13989181411685        1.14031396107940     
   1.14120012315289        1.14275072364253        1.14526782505764     
   1.14928315093754        1.15049525565384        1.16512030739764     
   2.51489251828899        2.51489251828899        2.51499053575268     
   2.51490507644250        2.51498015635573        2.51494899501086     
   2.51496832526879        2.51495599698847        2.51495605908360     
   2.51494637310144        2.51493947037706        2.51493039728650     
   2.51492355505150        2.51491898144495        2.51491941748688     
   2.51492674503367        2.51494380261415        2.51497339513377     
   2.51501861011186        2.51508239784395        2.51516761837951     
   2.51527678088607        2.51541199639339        2.51557524653256     
   2.51577053841587        2.51601077949573        2.51631514270594     
   2.51674354265710        2.51587459757467        2.51999741220265     
   4.31935253268844        4.31935253268844        4.31939408390471     
   4.31936507583490        4.31939903863302        4.31939406491747     
   4.31940946624763        4.31941497195420        4.31942669236360     
   4.31943668596722        4.31944928564922        4.31946260133746     
   4.31947785358835        4.31949465483110        4.31951336306867     
   4.31953387851036        4.31955621076108        4.31958015138361     
   4.31960537648300        4.31963134448241        4.31965738477763     
   4.31968276166899        4.31970682014805        4.31972919279512     
   4.31975038305566        4.31977318927210        4.31980124904111     
   4.31984613271639        4.31951850924829        4.32073318466549     
   6.45395112957464        6.45395112957464        6.45396882475124     
   6.45395923527931        6.45397379836874        6.45397383185141     
   6.45398156286770        6.45398577304228        6.45399230526269     
   6.45399823814190        6.45400503675755        6.45401194408370     
   6.45401927239143        6.45402676650976        6.45403441553711     
   6.45404205299481        6.45404955441522        6.45405674044730     
   6.45406342168083        6.45406937632562        6.45407438782619     
   6.45407827511511        6.45408093784935        6.45408240661713     
   6.45408298711341        6.45408362349709        6.45408541866358     
   6.45409128225090        6.45398326992745        6.45439442806159     
   8.79463319744677        8.79463319744677        8.79463814568653     
   8.79463587303650        8.79463990813402        8.79464016730678     
   8.79464239465655        8.79464370229041        8.79464557242417     
   8.79464725635495        8.79464911317937        8.79465094452224     
   8.79465281874257        8.79465466501631        8.79465647424024     
   8.79465820184605        8.79465981650980        8.79466127733754     
   8.79466254501401        8.79466357649291        8.79466433368519     
   8.79466479032902        8.79466494151350        8.79466481341367     
   8.79466449419114        8.79466421532175        8.79466423814173     
   8.79466520733865        8.79463959718633        8.79474244420712     
   11.2053668025532        11.2053668025532        11.2053618543135     
   11.2053641269635        11.2053600918660        11.2053598326932     
   11.2053576053434        11.2053562977096        11.2053544275758     
   11.2053527436450        11.2053508868206        11.2053490554778     
   11.2053471812574        11.2053453349837        11.2053435257598     
   11.2053417981539        11.2053401834902        11.2053387226625     
   11.2053374549860        11.2053364235071        11.2053356663148     
   11.2053352096710        11.2053350584865        11.2053351865863     
   11.2053355058089        11.2053357846783        11.2053357618583     
   11.2053347926613        11.2053604028137        11.2052575557929     
   13.5460488704254        13.5460488704254        13.5460311752488     
   13.5460407647207        13.5460262016313        13.5460261681486     
   13.5460184371323        13.5460142269577        13.5460076947373     
   13.5460017618581        13.5459949632424        13.5459880559163     
   13.5459807276086        13.5459732334902        13.5459655844629     
   13.5459579470052        13.5459504455848        13.5459432595527     
   13.5459365783192        13.5459306236744        13.5459256121738     
   13.5459217248849        13.5459190621507        13.5459175933829     
   13.5459170128866        13.5459163765029        13.5459145813364     
   13.5459087177491        13.5460167300725        13.5456055719384     
   15.6806474673116        15.6806474673116        15.6806059160953     
   15.6806349241651        15.6806009613670        15.6806059350825     
   15.6805905337524        15.6805850280458        15.6805733076364     
   15.6805633140328        15.6805507143508        15.6805373986625     
   15.6805221464116        15.6805053451689        15.6804866369313     
   15.6804661214896        15.6804437892389        15.6804198486164     
   15.6803946235170        15.6803686555176        15.6803426152224     
   15.6803172383310        15.6802931798519        15.6802708072049     
   15.6802496169443        15.6802268107279        15.6801987509589     
   15.6801538672836        15.6804814907517        15.6792668153345     
   17.4851074817110        17.4851074817110        17.4850094642473     
   17.4850949235575        17.4850198436443        17.4850510049891     
   17.4850316747312        17.4850440030115        17.4850439409164     
   17.4850536268986        17.4850605296229        17.4850696027135     
   17.4850764449485        17.4850810185551        17.4850805825131     
   17.4850732549663        17.4850561973858        17.4850266048662     
   17.4849813898881        17.4849176021560        17.4848323816205     
   17.4847232191139        17.4845880036066        17.4844247534674     
   17.4842294615841        17.4839892205043        17.4836848572941     
   17.4832564573429        17.4841254024253        17.4800025877973     
   18.8545602565321        18.8545602565321        18.8543049025015     
   18.8545888843169        18.8544557919776        18.8546571928287     
   18.8547466043176        18.8549669284109        18.8551873748647     
   18.8554767455431        18.8557974405245        18.8561664379109     
   18.8565707539872        18.8570109936133        18.8574780855305     
   18.8579644812901        18.8584573029806        18.8589404802185     
   18.8593917805123        18.8597817071920        18.8600702085919     
   18.8602033420941        18.8601081858831        18.8596860389206     
   18.8587998768471        18.8572492763575        18.8547321749423     
   18.8507168490625        18.8495047443462        18.8348796926024     
   19.7094181742605        19.7094181742605        19.7087563474167     
   19.7122512098008        19.7148796915366        19.7202808352644     
   19.7260840485808        19.7334975462791        19.7417415266648     
   19.7510733017182        19.7611986648908        19.7720865796779     
   19.7835590384395        19.7954921698866        19.8077189342769     
   19.8200742564208        19.8323737512153        19.8444198879092     
   19.8559935567465        19.8668465614854        19.8766857662790     
   19.8851473426074        19.8917484473827        19.8958011927726     
   19.8962488861493        19.8912377556493        19.8770475949702     
   19.8429932296918        19.7860469047854        19.6744516135415     
   20.0000000000000        20.0000000000000        19.9993991510238     
   19.9976905248665        19.9956635102338        19.9927400704942     
   19.9892986362574        19.9851749403576        19.9805286947931     
   19.9753585324261        19.9697606788661        19.9637937509612     
   19.9575477731574        19.9511100408835        19.9445824935245     
   19.9380743915926        19.9317073089188        19.9256151989758     
   19.9199480228601        19.9148754602432        19.9105926490692     
   19.9073275465359        19.9053477197243        19.9049641939863     
   19.9065386898364        19.9101520489442        19.9144810309199     
   19.9153181266425        19.9498658963290        19.9310090647851     
 -6.536680706074363E-003 -6.536680706074363E-003  1.921426891680770E-003
  6.980711584210227E-003  1.411147423930531E-002  2.023840401977083E-002
  2.668569335607527E-002  3.258802061483317E-002  3.822629850801686E-002
  4.331523437393800E-002  4.787533085636912E-002  5.178375892090605E-002
  5.500276875992462E-002  5.746263087335613E-002  5.912054601207244E-002
  5.993058120864133E-002  5.985826426695306E-002  5.887246613679074E-002
  5.694799548915797E-002  5.406188537867702E-002  5.019095445976028E-002
  4.530597110504764E-002  3.936300674394079E-002  3.229509396499336E-002
  2.400978942191450E-002  1.431025391049799E-002  2.990933623860721E-003
 -1.894573131709678E-002 -3.775110753770450E-002  7.811702916271519E-002
 -6.536680706074363E-003 -6.536680706074363E-003 -3.622520755249783E-002
 -4.930302711152378E-002 -6.959873707802736E-002 -8.503904584821698E-002
 -0.101891047105610      -0.116848804295249      -0.131609856944928     
 -0.145223960036822      -0.158143442910255      -0.170093487731144     
 -0.181199457968513      -0.191400559631839      -0.200763267583596     
 -0.209324047904983      -0.217177857368228      -0.224438931989450     
 -0.231268826472420      -0.237870798400919      -0.244501940383845     
 -0.251476857795636      -0.259167142604961      -0.267970648349267     
 -0.278216235621307      -0.289824254354103      -0.300888799321866     
 -0.307928746179834      -0.258892564623772      -3.505005022753004E-002
 -6.536680706074363E-003 -6.536680706074363E-003 -2.728253563196693E-002
 -3.546316020657451E-002 -4.862556492942632E-002 -5.843526107025165E-002
 -6.932441783874559E-002 -7.924256287195230E-002 -8.933533367634354E-002
 -9.911768750933153E-002 -0.108903877547184      -0.118596942524126     
 -0.128300121253442      -0.138013631589399      -0.147789233280192     
 -0.157654819860348      -0.167654180943455      -0.177828927076035     
 -0.188229396581219      -0.198910594002122      -0.209934118159310     
 -0.221362731097573      -0.233246492509452      -0.245578311893868     
 -0.258163609083478      -0.270203333348309      -0.278863779389736     
 -0.273006832463845      -0.163551822724591       4.716788037903835E-002
 -6.536680706074363E-003 -6.536680706074363E-003 -2.557060995251083E-002
 -3.238945939345464E-002 -4.370770391335951E-002 -5.171175468430327E-002
 -6.064978033564114E-002 -6.861763387486131E-002 -7.672887660646389E-002
 -8.454778204763638E-002 -9.239156923001553E-002 -0.100186182978982     
 -0.108045732293222      -0.115986483467691      -0.124073657539282     
 -0.132350638144574      -0.140876941326770      -0.149711244279391     
 -0.158921412774580      -0.168579682408374      -0.178762299864168     
 -0.189539920150188      -0.200955668410127      -0.212966427331706     
 -0.225286864681891      -0.236928374275088      -0.244695047287715     
 -0.236314421008471      -0.108829829746939       8.190479789662025E-002