 Title = "Wing and Wake"
 VARIABLES = "X" "Y" "Z" "GAM"
 Zone I=    5 J=   14 K=1  T="Blade"
 DATAPACKING=BLOCK
 VARLOCATION=([4]=CELLCENTERED)
  -2.24619469809175       -1.99714602356881       -1.74809734904587     
  -1.49904867452294       -1.25000000000000       -2.24619469809175     
  -1.99714602356881       -1.74809734904587       -1.49904867452294     
  -1.25000000000000       -2.24619469809175       -1.99714602356881     
  -1.74809734904587       -1.49904867452294       -1.25000000000000     
  -2.24619469809175       -1.99714602356881       -1.74809734904587     
  -1.49904867452294       -1.25000000000000       -2.24619469809175     
  -1.99714602356881       -1.74809734904587       -1.49904867452294     
  -1.25000000000000       -2.24619469809175       -1.99714602356881     
  -1.74809734904587       -1.49904867452294       -1.25000000000000     
  -2.24619469809175       -1.99714602356881       -1.74809734904587     
  -1.49904867452294       -1.25000000000000       -2.24619469809175     
  -1.99714602356881       -1.74809734904587       -1.49904867452294     
  -1.25000000000000       -2.24619469809175       -1.99714602356881     
  -1.74809734904587       -1.49904867452294       -1.25000000000000     
  -2.24619469809175       -1.99714602356881       -1.74809734904587     
  -1.49904867452294       -1.25000000000000       -2.24619469809175     
  -1.99714602356881       -1.74809734904587       -1.49904867452294     
  -1.25000000000000       -2.24619469809175       -1.99714602356881     
  -1.74809734904587       -1.49904867452294       -1.25000000000000     
  -2.24619469809175       -1.99714602356881       -1.74809734904587     
  -1.49904867452294       -1.25000000000000       -2.24619469809175     
  -1.99714602356881       -1.74809734904587       -1.49904867452294     
  -1.25000000000000     
  0.000000000000000E+000  0.000000000000000E+000  0.000000000000000E+000
  0.000000000000000E+000  0.000000000000000E+000  0.290581825739480     
  0.290581825739480       0.290581825739480       0.290581825739480     
  0.290581825739480        1.14543974346790        1.14543974346790     
   1.14543974346790        1.14543974346790        1.14543974346790     
   2.51489251828899        2.51489251828899        2.51489251828899     
   2.51489251828899        2.51489251828899        4.31935253268844     
   4.31935253268844        4.31935253268844        4.31935253268844     
   4.31935253268844        6.45395112957464        6.45395112957464     
   6.45395112957464        6.45395112957464        6.45395112957464     
   8.79463319744677        8.79463319744677        8.79463319744677     
   8.79463319744677        8.79463319744677        11.2053668025532     
   11.2053668025532        11.2053668025532        11.2053668025532     
   11.2053668025532        13.5460488704254        13.5460488704254     
   13.5460488704254        13.5460488704254        13.5460488704254     
   15.6806474673116        15.6806474673116        15.6806474673116     
   15.6806474673116        15.6806474673116        17.4851074817110     
   17.4851074817110        17.4851074817110        17.4851074817110     
   17.4851074817110        18.8545602565321        18.8545602565321     
   18.8545602565321        18.8545602565321        18.8545602565321     
   19.7094181742605        19.7094181742605        19.7094181742605     
   19.7094181742605        19.7094181742605        20.0000000000000     
   20.0000000000000        20.0000000000000        20.0000000000000     
   20.0000000000000     
  8.715574274765817E-002  6.536680706074363E-002  4.357787137382908E-002
  2.178893568691454E-002  0.000000000000000E+000  8.715574274765817E-002
  6.536680706074363E-002  4.357787137382908E-002  2.178893568691454E-002
  0.000000000000000E+000  8.715574274765817E-002  6.536680706074363E-002
  4.357787137382908E-002  2.178893568691454E-002  0.000000000000000E+000
  8.715574274765817E-002  6.536680706074363E-002  4.357787137382908E-002
  2.178893568691454E-002  0.000000000000000E+000  8.715574274765817E-002
  6.536680706074363E-002  4.357787137382908E-002  2.178893568691454E-002
  0.000000000000000E+000  8.715574274765817E-002  6.536680706074363E-002
  4.357787137382908E-002  2.178893568691454E-002  0.000000000000000E+000
  8.715574274765817E-002  6.536680706074363E-002  4.357787137382908E-002
  2.178893568691454E-002  0.000000000000000E+000  8.715574274765817E-002
  6.536680706074363E-002  4.357787137382908E-002  2.178893568691454E-002
  0.000000000000000E+000  8.715574274765817E-002  6.536680706074363E-002
  4.357787137382908E-002  2.178893568691454E-002  0.000000000000000E+000
  8.715574274765817E-002  6.536680706074363E-002  4.357787137382908E-002
  2.178893568691454E-002  0.000000000000000E+000  8.715574274765817E-002
  6.536680706074363E-002  4.357787137382908E-002  2.178893568691454E-002
  0.000000000000000E+000  8.715574274765817E-002  6.536680706074363E-002
  4.357787137382908E-002  2.178893568691454E-002  0.000000000000000E+000
  8.715574274765817E-002  6.536680706074363E-002  4.357787137382908E-002
  2.178893568691454E-002  0.000000000000000E+000  8.715574274765817E-002
  6.536680706074363E-002  4.357787137382908E-002  2.178893568691454E-002
  0.000000000000000E+000
  0.624089317879588       0.820374160089157       0.909158705577773     
  0.935043765751740       0.876111200054940        1.20232413659137     
   1.35868213129753        1.40435192360063       0.973799229037583     
   1.34726201052917        1.52941046872003        1.58035263084665     
   1.00108136764220        1.38595332330228        1.57339566436149     
   1.62426711239531        1.00834450228016        1.39599716269891     
   1.58458570100675        1.63525863329197        1.01048812159892     
   1.39893058485730        1.58782922719006        1.63842940476177     
   1.01098867275302        1.39961321491157        1.58858233494868     
   1.63916492624379        1.01048812159892        1.39893058485730     
   1.58782922719006        1.63842940476177        1.00834450228016     
   1.39599716269891        1.58458570100675        1.63525863329196     
   1.00108136764220        1.38595332330228        1.57339566436149     
   1.62426711239531       0.973799229037583        1.34726201052917     
   1.52941046872003        1.58035263084665       0.876111200054941     
   1.20232413659137        1.35868213129753        1.40435192360063     
  0.624089317879589       0.820374160089157       0.909158705577773     
  0.935043765751740     
 Zone I=    6 J=   14 K=1  T="NearWake"
 DATAPACKING=BLOCK
 VARLOCATION=([4]=CELLCENTERED)
  -1.17528539764312      -0.925285397643119      -0.675229600288737     
 -0.425306915933382      -0.175376921138756       7.381127361173634E-002
  -1.17528539764312      -0.925285397643119      -0.676364660400242     
 -0.425861079175652      -0.173300685122248       7.353787512126728E-002
  -1.17528539764312      -0.925285397643119      -0.676562489478540     
 -0.425848577610795      -0.172356307384773       7.234559345666575E-002
  -1.17528539764312      -0.925285397643119      -0.676510885445740     
 -0.425642983461533      -0.171867637617362       7.215286757491562E-002
  -1.17528539764312      -0.925285397643119      -0.676494565577069     
 -0.425587104152158      -0.171753239449662       7.212157169419933E-002
  -1.17528539764312      -0.925285397643119      -0.676489144121750     
 -0.425571141879657      -0.171722285109014       7.211794466850723E-002
  -1.17528539764312      -0.925285397643119      -0.676487414850765     
 -0.425566430157435      -0.171713247914206       7.211757956302736E-002
  -1.17528539764312      -0.925285397643119      -0.676487414850765     
 -0.425566430157435      -0.171713247914206       7.211757956302738E-002
  -1.17528539764312      -0.925285397643119      -0.676489144121750     
 -0.425571141879657      -0.171722285109014       7.211794466850721E-002
  -1.17528539764312      -0.925285397643119      -0.676494565577069     
 -0.425587104152158      -0.171753239449662       7.212157169419930E-002
  -1.17528539764312      -0.925285397643119      -0.676510885445740     
 -0.425642983461533      -0.171867637617362       7.215286757491562E-002
  -1.17528539764312      -0.925285397643119      -0.676562489478540     
 -0.425848577610795      -0.172356307384773       7.234559345666570E-002
  -1.17528539764312      -0.925285397643119      -0.676364660400242     
 -0.425861079175652      -0.173300685122248       7.353787512126725E-002
  -1.17528539764312      -0.925285397643119      -0.675229600288737     
 -0.425306915933382      -0.175376921138756       7.381127361173635E-002
  0.000000000000000E+000  0.000000000000000E+000  3.923754479195951E-004
  8.718055958767919E-004  9.427023240194042E-004  1.419358479549925E-003
  0.290581825739480       0.290581825739480       0.291026962850418     
  0.289545360491238       0.289245942091989       0.291503230470622     
   1.14543974346790        1.14543974346790        1.14563557160233     
   1.14559566238298        1.14568337280923        1.14580843389020     
   2.51489251828899        2.51489251828899        2.51493727216676     
   2.51493027266149        2.51495069613249        2.51497817661683     
   4.31935253268844        4.31935253268844        4.31936304237016     
   4.31936116407515        4.31936543394633        4.31937286730099     
   6.45395112957464        6.45395112957464        6.45395399111809     
   6.45395338132702        6.45395445196862        6.45395687626854     
   8.79463319744677        8.79463319744677        8.79463383954751     
   8.79463368970234        8.79463392187943        8.79463451861462     
   11.2053668025532        11.2053668025532        11.2053661604525     
   11.2053663102977        11.2053660781206        11.2053654813854     
   13.5460488704254        13.5460488704254        13.5460460088819     
   13.5460466186730        13.5460455480314        13.5460431237315     
   15.6806474673116        15.6806474673116        15.6806369576298     
   15.6806388359248        15.6806345660537        15.6806271326990     
   17.4851074817110        17.4851074817110        17.4850627278332     
   17.4850697273385        17.4850493038675        17.4850218233832     
   18.8545602565321        18.8545602565321        18.8543644283977     
   18.8544043376170        18.8543166271908        18.8541915661098     
   19.7094181742605        19.7094181742605        19.7089730371496     
   19.7104546395088        19.7107540579080        19.7084967695294     
   20.0000000000000        20.0000000000000        19.9996076245521     
   19.9991281944041        19.9990572976760        19.9985806415205     
 -6.536680706074363E-003 -6.536680706074363E-003 -6.831779942426398E-003
 -8.586785028393955E-003 -1.337916048822240E-002  3.174629331853200E-003
 -6.536680706074363E-003 -6.536680706074363E-003 -3.442218651788109E-002
 -4.587428752573106E-002 -6.054660542764804E-002 -1.242135213968367E-002
 -6.536680706074363E-003 -6.536680706074363E-003 -2.923662827584276E-002
 -3.877461538649764E-002 -5.163369693587660E-002  2.069728842257888E-003
 -6.536680706074363E-003 -6.536680706074363E-003 -2.851725105853203E-002
 -3.733951500574777E-002 -4.919886023390772E-002  6.582946244175666E-003
 -6.536680706074363E-003 -6.536680706074363E-003 -2.827709449454684E-002
 -3.685878937143580E-002 -4.841024005054594E-002  7.828473839149672E-003
 -6.536680706074363E-003 -6.536680706074363E-003 -2.819611161418987E-002
 -3.670614479794353E-002 -4.816886242707281E-002  8.187016396141665E-003
 -6.536680706074363E-003 -6.536680706074363E-003 -2.817061035126961E-002
 -3.665952312438617E-002 -4.809617926067189E-002  8.293224366608318E-003
 -6.536680706074363E-003 -6.536680706074363E-003 -2.817061035126963E-002
 -3.665952312438617E-002 -4.809617926067185E-002  8.293224366608325E-003
 -6.536680706074363E-003 -6.536680706074363E-003 -2.819611161418986E-002
 -3.670614479794354E-002 -4.816886242707281E-002  8.187016396141680E-003
 -6.536680706074363E-003 -6.536680706074363E-003 -2.827709449454684E-002
 -3.685878937143583E-002 -4.841024005054592E-002  7.828473839149690E-003
 -6.536680706074363E-003 -6.536680706074363E-003 -2.851725105853200E-002
 -3.733951500574777E-002 -4.919886023390768E-002  6.582946244175692E-003
 -6.536680706074363E-003 -6.536680706074363E-003 -2.923662827584279E-002
 -3.877461538649768E-002 -5.163369693587661E-002  2.069728842257954E-003
 -6.536680706074363E-003 -6.536680706074363E-003 -3.442218651788111E-002
 -4.587428752573118E-002 -6.054660542764806E-002 -1.242135213968358E-002
 -6.536680706074363E-003 -6.536680706074363E-003 -6.831779942426362E-003
 -8.586785028393874E-003 -1.337916048822239E-002  3.174629331853244E-003
  0.935043765751740       0.884911471366558       0.817122145994892     
  0.717952076931788       0.545687230928579        1.40435192360063     
   1.31507668024105        1.19436106594707        1.02014754055350     
  0.735561100336828        1.58035263084665        1.46395879974757     
   1.31238267385890        1.10391394579400       0.782326100572016     
   1.62426711239531        1.49868926620788        1.33806052524169     
   1.12094440580768       0.791278928221502        1.63525863329197     
   1.50712425988876        1.34413341106689        1.12488759619166     
  0.793323245359819        1.63842940476177        1.50954269403987     
   1.34586936362122        1.12601564997301       0.793911270808085     
   1.63916492624379        1.51010392089124        1.34627288741357     
   1.12627868704179       0.794049049972261        1.63842940476177     
   1.50954269403987        1.34586936362122        1.12601564997301     
  0.793911270808084        1.63525863329196        1.50712425988876     
   1.34413341106689        1.12488759619166       0.793323245359819     
   1.62426711239531        1.49868926620788        1.33806052524169     
   1.12094440580768       0.791278928221502        1.58035263084665     
   1.46395879974757        1.31238267385890        1.10391394579400     
  0.782326100572015        1.40435192360063        1.31507668024105     
   1.19436106594707        1.02014754055351       0.735561100336828     
  0.935043765751740       0.884911471366559       0.817122145994892     
  0.717952076931788       0.545687230928579     
 Zone I=    2 J=1   K=1   T="FarWake"
 DATAPACKING=BLOCK
 VARLOCATION=([4]=CELLCENTERED)
  7.381127361173635E-002  7.381127361173635E-002
   19.9985806415205        19.9985806415205     
  3.174629331853244E-003  3.174629331853244E-003
  0.000000000000000E+000
