 Title = "Wing and Wake"
 VARIABLES = "X" "Y" "Z" "GAM"
 Zone I=    5 J=   14 K=1  T="Blade"
 DATAPACKING=BLOCK
 VARLOCATION=([4]=CELLCENTERED)
  -1.74619469809175       -1.49714602356881       -1.24809734904587     
 -0.999048674522936      -0.750000000000000       -1.74619469809175     
  -1.49714602356881       -1.24809734904587      -0.999048674522936     
 -0.750000000000000       -1.74619469809175       -1.49714602356881     
  -1.24809734904587      -0.999048674522936      -0.750000000000000     
  -1.74619469809175       -1.49714602356881       -1.24809734904587     
 -0.999048674522936      -0.750000000000000       -1.74619469809175     
  -1.49714602356881       -1.24809734904587      -0.999048674522936     
 -0.750000000000000       -1.74619469809175       -1.49714602356881     
  -1.24809734904587      -0.999048674522936      -0.750000000000000     
  -1.74619469809175       -1.49714602356881       -1.24809734904587     
 -0.999048674522936      -0.750000000000000       -1.74619469809175     
  -1.49714602356881       -1.24809734904587      -0.999048674522936     
 -0.750000000000000       -1.74619469809175       -1.49714602356881     
  -1.24809734904587      -0.999048674522936      -0.750000000000000     
  -1.74619469809175       -1.49714602356881       -1.24809734904587     
 -0.999048674522936      -0.750000000000000       -1.74619469809175     
  -1.49714602356881       -1.24809734904587      -0.999048674522936     
 -0.750000000000000       -1.74619469809175       -1.49714602356881     
  -1.24809734904587      -0.999048674522936      -0.750000000000000     
  -1.74619469809175       -1.49714602356881       -1.24809734904587     
 -0.999048674522936      -0.750000000000000       -1.74619469809175     
  -1.49714602356881       -1.24809734904587      -0.999048674522936     
 -0.750000000000000     
  0.000000000000000E+000  0.000000000000000E+000  0.000000000000000E+000
  0.000000000000000E+000  0.000000000000000E+000  0.290581825739480     
  0.290581825739480       0.290581825739480       0.290581825739480     
  0.290581825739480        1.14543974346790        1.14543974346790     
   1.14543974346790        1.14543974346790        1.14543974346790     
   2.51489251828899        2.51489251828899        2.51489251828899     
   2.51489251828899        2.51489251828899        4.31935253268844     
   4.31935253268844        4.31935253268844        4.31935253268844     
   4.31935253268844        6.45395112957464        6.45395112957464     
   6.45395112957464        6.45395112957464        6.45395112957464     
   8.79463319744677        8.79463319744677        8.79463319744677     
   8.79463319744677        8.79463319744677        11.2053668025532     
   11.2053668025532        11.2053668025532        11.2053668025532     
   11.2053668025532        13.5460488704254        13.5460488704254     
   13.5460488704254        13.5460488704254        13.5460488704254     
   15.6806474673116        15.6806474673116        15.6806474673116     
   15.6806474673116        15.6806474673116        17.4851074817110     
   17.4851074817110        17.4851074817110        17.4851074817110     
   17.4851074817110        18.8545602565321        18.8545602565321     
   18.8545602565321        18.8545602565321        18.8545602565321     
   19.7094181742605        19.7094181742605        19.7094181742605     
   19.7094181742605        19.7094181742605        20.0000000000000     
   20.0000000000000        20.0000000000000        20.0000000000000     
   20.0000000000000     
  8.715574274765817E-002  6.536680706074363E-002  4.357787137382908E-002
  2.178893568691454E-002  0.000000000000000E+000  8.715574274765817E-002
  6.536680706074363E-002  4.357787137382908E-002  2.178893568691454E-002
  0.000000000000000E+000  8.715574274765817E-002  6.536680706074363E-002
  4.357787137382908E-002  2.178893568691454E-002  0.000000000000000E+000
  8.715574274765817E-002  6.536680706074363E-002  4.357787137382908E-002
  2.178893568691454E-002  0.000000000000000E+000  8.715574274765817E-002
  6.536680706074363E-002  4.357787137382908E-002  2.178893568691454E-002
  0.000000000000000E+000  8.715574274765817E-002  6.536680706074363E-002
  4.357787137382908E-002  2.178893568691454E-002  0.000000000000000E+000
  8.715574274765817E-002  6.536680706074363E-002  4.357787137382908E-002
  2.178893568691454E-002  0.000000000000000E+000  8.715574274765817E-002
  6.536680706074363E-002  4.357787137382908E-002  2.178893568691454E-002
  0.000000000000000E+000  8.715574274765817E-002  6.536680706074363E-002
  4.357787137382908E-002  2.178893568691454E-002  0.000000000000000E+000
  8.715574274765817E-002  6.536680706074363E-002  4.357787137382908E-002
  2.178893568691454E-002  0.000000000000000E+000  8.715574274765817E-002
  6.536680706074363E-002  4.357787137382908E-002  2.178893568691454E-002
  0.000000000000000E+000  8.715574274765817E-002  6.536680706074363E-002
  4.357787137382908E-002  2.178893568691454E-002  0.000000000000000E+000
  8.715574274765817E-002  6.536680706074363E-002  4.357787137382908E-002
  2.178893568691454E-002  0.000000000000000E+000  8.715574274765817E-002
  6.536680706074363E-002  4.357787137382908E-002  2.178893568691454E-002
  0.000000000000000E+000
  0.586380666903472       0.758789503110009       0.822460097672654     
  0.817122145994892       0.810951983020911        1.09384421375862     
   1.20462564697416        1.19436106594707       0.885686708160943     
   1.20220392460080        1.32723112337683        1.31238267385890     
  0.903597056513315        1.22701737950253        1.35446840629616     
   1.33806052524169       0.908012503932582        1.23300508578590     
   1.36095298135954        1.34413341106689       0.909290572839292     
   1.23472471821703        1.36280754642763        1.34586936362122     
  0.909588571383129        1.23512471709048        1.36323847027285     
   1.34627288741357       0.909290572839293        1.23472471821703     
   1.36280754642763        1.34586936362122       0.908012503932582     
   1.23300508578590        1.36095298135954        1.34413341106689     
  0.903597056513316        1.22701737950253        1.35446840629616     
   1.33806052524169       0.885686708160944        1.20220392460080     
   1.32723112337683        1.31238267385890       0.810951983020912     
   1.09384421375862        1.20462564697416        1.19436106594707     
  0.586380666903472       0.758789503110010       0.822460097672655     
  0.817122145994892     
 Zone I=    4 J=   14 K=1  T="NearWake"
 DATAPACKING=BLOCK
 VARLOCATION=([4]=CELLCENTERED)
 -0.675285397643119      -0.425285397643119      -0.175348133738303     
  7.458273710365232E-002 -0.675285397643119      -0.425285397643119     
 -0.175863768714825       7.441621406631832E-002 -0.675285397643119     
 -0.425285397643119      -0.175773225054215       7.419421419630631E-002
 -0.675285397643119      -0.425285397643119      -0.175675467352875     
  7.419406085510459E-002 -0.675285397643119      -0.425285397643119     
 -0.175648023111666       7.420181443739690E-002 -0.675285397643119     
 -0.425285397643119      -0.175639982381990       7.420498229846828E-002
 -0.675285397643119      -0.425285397643119      -0.175637562455571     
  7.420603906034706E-002 -0.675285397643119      -0.425285397643119     
 -0.175637562455571       7.420603906034709E-002 -0.675285397643119     
 -0.425285397643119      -0.175639982381990       7.420498229846828E-002
 -0.675285397643119      -0.425285397643119      -0.175648023111666     
  7.420181443739690E-002 -0.675285397643119      -0.425285397643119     
 -0.175675467352875       7.419406085510459E-002 -0.675285397643119     
 -0.425285397643119      -0.175773225054215       7.419421419630630E-002
 -0.675285397643119      -0.425285397643119      -0.175863768714825     
  7.441621406631832E-002 -0.675285397643119      -0.425285397643119     
 -0.175348133738303       7.458273710365232E-002
  0.000000000000000E+000  0.000000000000000E+000  2.767737527935617E-004
  3.783509544949642E-004  0.290581825739480       0.290581825739480     
  0.290860643829134       0.290825223962559        1.14543974346790     
   1.14543974346790        1.14554766070869        1.14554106638209     
   2.51489251828899        2.51489251828899        2.51491324692320     
   2.51491357909349        4.31935253268844        4.31935253268844     
   4.31935698226391        4.31935728127417        6.45395112957464     
   6.45395112957464        6.45395230782297        6.45395243454565     
   8.79463319744677        8.79463319744677        8.79463346076898     
   8.79463349400105        11.2053668025532        11.2053668025532     
   11.2053665392310        11.2053665059989        13.5460488704254     
   13.5460488704254        13.5460476921770        13.5460475654543     
   15.6806474673116        15.6806474673116        15.6806430177361     
   15.6806427187258        17.4851074817110        17.4851074817110     
   17.4850867530768        17.4850864209065        18.8545602565321     
   18.8545602565321        18.8544523392913        18.8544589336179     
   19.7094181742605        19.7094181742605        19.7091393561709     
   19.7091747760374        20.0000000000000        20.0000000000000     
   19.9997232262472        19.9996216490455     
 -6.536680706074363E-003 -6.536680706074363E-003 -1.041265016137595E-002
 -2.416895809884372E-003 -6.536680706074363E-003 -6.536680706074363E-003
 -3.183465503130536E-002 -1.039139445585313E-002 -6.536680706074363E-003
 -6.536680706074363E-003 -2.836228298560572E-002 -3.560481995994838E-003
 -6.536680706074363E-003 -6.536680706074363E-003 -2.764203436419373E-002
 -1.615307519918221E-003 -6.536680706074363E-003 -6.536680706074363E-003
 -2.741756466541299E-002 -1.113183232770971E-003 -6.536680706074363E-003
 -6.536680706074363E-003 -2.734928369297841E-002 -9.734296175860704E-004
 -6.536680706074363E-003 -6.536680706074363E-003 -2.732868122340982E-002
 -9.324898819771162E-004 -6.536680706074363E-003 -6.536680706074363E-003
 -2.732868122340981E-002 -9.324898819771102E-004 -6.536680706074363E-003
 -6.536680706074363E-003 -2.734928369297843E-002 -9.734296175860596E-004
 -6.536680706074363E-003 -6.536680706074363E-003 -2.741756466541299E-002
 -1.113183232770962E-003 -6.536680706074363E-003 -6.536680706074363E-003
 -2.764203436419372E-002 -1.615307519918212E-003 -6.536680706074363E-003
 -6.536680706074363E-003 -2.836228298560573E-002 -3.560481995994812E-003
 -6.536680706074363E-003 -6.536680706074363E-003 -3.183465503130534E-002
 -1.039139445585309E-002 -6.536680706074363E-003 -6.536680706074363E-003
 -1.041265016137591E-002 -2.416895809884358E-003
  0.817122145994892       0.717952076931788       0.545687230928579     
   1.19436106594707        1.02014754055350       0.735561100336828     
   1.31238267385890        1.10391394579400       0.782326100572016     
   1.33806052524169        1.12094440580768       0.791278928221502     
   1.34413341106689        1.12488759619166       0.793323245359819     
   1.34586936362122        1.12601564997301       0.793911270808085     
   1.34627288741357        1.12627868704179       0.794049049972261     
   1.34586936362122        1.12601564997301       0.793911270808084     
   1.34413341106689        1.12488759619166       0.793323245359819     
   1.33806052524169        1.12094440580768       0.791278928221502     
   1.31238267385890        1.10391394579400       0.782326100572015     
   1.19436106594707        1.02014754055351       0.735561100336828     
  0.817122145994892       0.717952076931788       0.545687230928579     
 Zone I=    2 J=1   K=1   T="FarWake"
 DATAPACKING=BLOCK
 VARLOCATION=([4]=CELLCENTERED)
  7.458273710365232E-002  7.458273710365232E-002
   19.9996216490455        19.9996216490455     
 -2.416895809884358E-003 -2.416895809884358E-003
  0.000000000000000E+000
