 Title = "Wing and Wake"
 VARIABLES = "X" "Y" "Z" "GAM"
 Zone I=    5 J=   14 K=1  T="Blade"
 DATAPACKING=BLOCK
 VARLOCATION=([4]=CELLCENTERED)
  -4.74619469809175       -4.49714602356881       -4.24809734904587     
  -3.99904867452294       -3.75000000000000       -4.74619469809175     
  -4.49714602356881       -4.24809734904587       -3.99904867452294     
  -3.75000000000000       -4.74619469809175       -4.49714602356881     
  -4.24809734904587       -3.99904867452294       -3.75000000000000     
  -4.74619469809175       -4.49714602356881       -4.24809734904587     
  -3.99904867452294       -3.75000000000000       -4.74619469809175     
  -4.49714602356881       -4.24809734904587       -3.99904867452294     
  -3.75000000000000       -4.74619469809175       -4.49714602356881     
  -4.24809734904587       -3.99904867452294       -3.75000000000000     
  -4.74619469809175       -4.49714602356881       -4.24809734904587     
  -3.99904867452294       -3.75000000000000       -4.74619469809175     
  -4.49714602356881       -4.24809734904587       -3.99904867452294     
  -3.75000000000000       -4.74619469809175       -4.49714602356881     
  -4.24809734904587       -3.99904867452294       -3.75000000000000     
  -4.74619469809175       -4.49714602356881       -4.24809734904587     
  -3.99904867452294       -3.75000000000000       -4.74619469809175     
  -4.49714602356881       -4.24809734904587       -3.99904867452294     
  -3.75000000000000       -4.74619469809175       -4.49714602356881     
  -4.24809734904587       -3.99904867452294       -3.75000000000000     
  -4.74619469809175       -4.49714602356881       -4.24809734904587     
  -3.99904867452294       -3.75000000000000       -4.74619469809175     
  -4.49714602356881       -4.24809734904587       -3.99904867452294     
  -3.75000000000000     
  0.000000000000000E+000  0.000000000000000E+000  0.000000000000000E+000
  0.000000000000000E+000  0.000000000000000E+000  0.290581825739480     
  0.290581825739480       0.290581825739480       0.290581825739480     
  0.290581825739480        1.14543974346790        1.14543974346790     
   1.14543974346790        1.14543974346790        1.14543974346790     
   2.51489251828899        2.51489251828899        2.51489251828899     
   2.51489251828899        2.51489251828899        4.31935253268844     
   4.31935253268844        4.31935253268844        4.31935253268844     
   4.31935253268844        6.45395112957464        6.45395112957464     
   6.45395112957464        6.45395112957464        6.45395112957464     
   8.79463319744677        8.79463319744677        8.79463319744677     
   8.79463319744677        8.79463319744677        11.2053668025532     
   11.2053668025532        11.2053668025532        11.2053668025532     
   11.2053668025532        13.5460488704254        13.5460488704254     
   13.5460488704254        13.5460488704254        13.5460488704254     
   15.6806474673116        15.6806474673116        15.6806474673116     
   15.6806474673116        15.6806474673116        17.4851074817110     
   17.4851074817110        17.4851074817110        17.4851074817110     
   17.4851074817110        18.8545602565321        18.8545602565321     
   18.8545602565321        18.8545602565321        18.8545602565321     
   19.7094181742605        19.7094181742605        19.7094181742605     
   19.7094181742605        19.7094181742605        20.0000000000000     
   20.0000000000000        20.0000000000000        20.0000000000000     
   20.0000000000000     
  8.715574274765817E-002  6.536680706074363E-002  4.357787137382908E-002
  2.178893568691454E-002  0.000000000000000E+000  8.715574274765817E-002
  6.536680706074363E-002  4.357787137382908E-002  2.178893568691454E-002
  0.000000000000000E+000  8.715574274765817E-002  6.536680706074363E-002
  4.357787137382908E-002  2.178893568691454E-002  0.000000000000000E+000
  8.715574274765817E-002  6.536680706074363E-002  4.357787137382908E-002
  2.178893568691454E-002  0.000000000000000E+000  8.715574274765817E-002
  6.536680706074363E-002  4.357787137382908E-002  2.178893568691454E-002
  0.000000000000000E+000  8.715574274765817E-002  6.536680706074363E-002
  4.357787137382908E-002  2.178893568691454E-002  0.000000000000000E+000
  8.715574274765817E-002  6.536680706074363E-002  4.357787137382908E-002
  2.178893568691454E-002  0.000000000000000E+000  8.715574274765817E-002
  6.536680706074363E-002  4.357787137382908E-002  2.178893568691454E-002
  0.000000000000000E+000  8.715574274765817E-002  6.536680706074363E-002
  4.357787137382908E-002  2.178893568691454E-002  0.000000000000000E+000
  8.715574274765817E-002  6.536680706074363E-002  4.357787137382908E-002
  2.178893568691454E-002  0.000000000000000E+000  8.715574274765817E-002
  6.536680706074363E-002  4.357787137382908E-002  2.178893568691454E-002
  0.000000000000000E+000  8.715574274765817E-002  6.536680706074363E-002
  4.357787137382908E-002  2.178893568691454E-002  0.000000000000000E+000
  8.715574274765817E-002  6.536680706074363E-002  4.357787137382908E-002
  2.178893568691454E-002  0.000000000000000E+000  8.715574274765817E-002
  6.536680706074363E-002  4.357787137382908E-002  2.178893568691454E-002
  0.000000000000000E+000
  0.700672741869635       0.938715747752066        1.06461523182447     
   1.12784020016942        1.00486852182258        1.40607725509952     
   1.62948132088198        1.74221765493717        1.15447679515700     
   1.63325757905390        1.90840041289445        2.04987278178874     
   1.21395390034710        1.72078395011783        2.01346924478968     
   2.16383148377253        1.23522285509718        1.75138917927900     
   2.04946747605263        2.20214805155541        1.24252219493939     
   1.76175112447938        2.06150141514292        2.21480380361687     
   1.24431402914077        1.76427961987152        2.06442174559333     
   2.21785941458911        1.24252219493939        1.76175112447939     
   2.06150141514292        2.21480380361688        1.23522285509718     
   1.75138917927900        2.04946747605263        2.20214805155541     
   1.21395390034710        1.72078395011783        2.01346924478968     
   2.16383148377253        1.15447679515700        1.63325757905390     
   1.90840041289445        2.04987278178874        1.00486852182258     
   1.40607725509952        1.62948132088198        1.74221765493717     
  0.700672741869635       0.938715747752066        1.06461523182447     
   1.12784020016942     
 Zone I=   16 J=   14 K=1  T="NearWake"
 DATAPACKING=BLOCK
 VARLOCATION=([4]=CELLCENTERED)
  -3.67528539764312       -3.42528539764312       -3.17483615718415     
  -2.92442850415305       -2.67408790398919       -2.42381768271652     
  -2.17370008639062       -1.92375106385507       -1.67405384251071     
  -1.42467617259174       -1.17572716993733      -0.927312615051480     
 -0.679486259308619      -0.431934722514473      -0.179639958945289     
  5.964226035250506E-002  -3.67528539764312       -3.42528539764312     
  -3.17580660017781       -2.92567029939823       -2.67578302172839     
  -2.42573387056828       -2.17582432438865       -1.92591111716894     
  -1.67611035168115       -1.42634523461044       -1.17658152313848     
 -0.926512765498855      -0.675187830032040      -0.418732928717315     
 -0.134369285408259       5.880499534885926E-002  -3.67528539764312     
  -3.42528539764312       -3.17639806139440       -2.92673308413534     
  -2.67735708784257       -2.42772085214118       -2.17816937138439     
  -1.92849781491331       -1.67880222794482       -1.42892841014200     
  -1.17873694310929      -0.927711609683996      -0.674476563262048     
 -0.414073511451956      -0.112942989600923       4.286172860611924E-002
  -3.67528539764312       -3.42528539764312       -3.17638066756936     
  -2.92667677099490       -2.67726001554920       -2.42755245672264     
  -2.17791461895472       -1.92811469182342       -1.67825258082842     
  -1.42815270023839       -1.17766815941946      -0.926254345579612     
 -0.672477873268770      -0.411181464128902      -0.106652169968531     
  3.859333888946907E-002  -3.67528539764312       -3.42528539764312     
  -3.17636258498970       -2.92662755019574       -2.67718301871381     
  -2.42743661055197       -2.17776383468680       -1.92792322248020     
  -1.67802248822913       -1.42788125556811       -1.17735423090186     
 -0.925890145156198      -0.672043357380496      -0.410617129278466     
 -0.105463514752793       3.746388657585642E-002  -3.67528539764312     
  -3.42528539764312       -3.17635655659649       -2.92660946028868     
  -2.67715620782515       -2.42739708462999       -2.17771440682031     
  -1.92786264042882       -1.67795236110270       -1.42780129629306     
  -1.17726452747231      -0.925788831149683      -0.671925687416275     
 -0.410469364760708      -0.105170199165500       3.719435241412333E-002
  -3.67528539764312       -3.42528539764312       -3.17635509071398     
  -2.92660422405922       -2.67714860263409       -2.42738574509733     
  -2.17770027748470       -1.92784528366728       -1.67793220871286     
  -1.42777818591574       -1.17723840535680      -0.925759112886526     
 -0.671891033888110      -0.410426026878266      -0.105086491225371     
  3.712733815626397E-002  -3.67528539764312       -3.42528539764312     
  -3.17635509071398       -2.92660422405922       -2.67714860263409     
  -2.42738574509733       -2.17770027748470       -1.92784528366728     
  -1.67793220871286       -1.42777818591574       -1.17723840535680     
 -0.925759112886526      -0.671891033888110      -0.410426026878266     
 -0.105086491225371       3.712733815626399E-002  -3.67528539764312     
  -3.42528539764312       -3.17635655659649       -2.92660946028868     
  -2.67715620782515       -2.42739708462999       -2.17771440682031     
  -1.92786264042882       -1.67795236110270       -1.42780129629306     
  -1.17726452747231      -0.925788831149683      -0.671925687416275     
 -0.410469364760708      -0.105170199165500       3.719435241412334E-002
  -3.67528539764312       -3.42528539764312       -3.17636258498970     
  -2.92662755019574       -2.67718301871381       -2.42743661055197     
  -2.17776383468680       -1.92792322248020       -1.67802248822913     
  -1.42788125556811       -1.17735423090186      -0.925890145156198     
 -0.672043357380496      -0.410617129278466      -0.105463514752793     
  3.746388657585640E-002  -3.67528539764312       -3.42528539764312     
  -3.17638066756936       -2.92667677099490       -2.67726001554920     
  -2.42755245672264       -2.17791461895472       -1.92811469182342     
  -1.67825258082842       -1.42815270023839       -1.17766815941946     
 -0.926254345579612      -0.672477873268770      -0.411181464128902     
 -0.106652169968531       3.859333888946902E-002  -3.67528539764312     
  -3.42528539764312       -3.17639806139440       -2.92673308413534     
  -2.67735708784257       -2.42772085214118       -2.17816937138439     
  -1.92849781491331       -1.67880222794482       -1.42892841014200     
  -1.17873694310929      -0.927711609683996      -0.674476563262048     
 -0.414073511451956      -0.112942989600923       4.286172860611909E-002
  -3.67528539764312       -3.42528539764312       -3.17580660017781     
  -2.92567029939823       -2.67578302172839       -2.42573387056828     
  -2.17582432438865       -1.92591111716894       -1.67611035168115     
  -1.42634523461044       -1.17658152313848      -0.926512765498855     
 -0.675187830032040      -0.418732928717315      -0.134369285408259     
  5.880499534885882E-002  -3.67528539764312       -3.42528539764312     
  -3.17483615718415       -2.92442850415305       -2.67408790398919     
  -2.42381768271652       -2.17370008639062       -1.92375106385507     
  -1.67405384251071       -1.42467617259174       -1.17572716993733     
 -0.927312615051480      -0.679486259308618      -0.431934722514474     
 -0.179639958945289       5.964226035250552E-002
  0.000000000000000E+000  0.000000000000000E+000  5.316817090076288E-004
  1.873484466270070E-003  3.498051152969953E-003  5.684668764605987E-003
  8.126900277865218E-003  1.080497706285515E-002  1.348849561760597E-002
  1.599021117377367E-002  1.803377258958704E-002  1.934532717201103E-002
  1.973376887793409E-002  2.006841260024857E-002  1.264906249444346E-002
  1.738625153784134E-002  0.290581825739480       0.290581825739480     
  0.291165560139411       0.288057270381742       0.285860117385813     
  0.281387072415454       0.276860794403729       0.271364412438717     
  0.265779389355748       0.260163886797198       0.255195922171422     
  0.251576557640827       0.250723702839209       0.255543192752713     
  0.265083634503380       0.300203026675569        1.14543974346790     
   1.14543974346790        1.14567011406765        1.14543364700638     
   1.14557486341958        1.14544583414501        1.14543959243434     
   1.14536452823131        1.14534686711133        1.14535611167907     
   1.14545276091585        1.14566809883021        1.14607806102862     
   1.14689955507306        1.14717959693492        1.14939097239256     
   2.51489251828899        2.51489251828899        2.51498052268981     
   2.51492758905473        2.51500318720623        2.51500464092430     
   2.51504854186359        2.51507649763982        2.51511885277798     
   2.51516094323907        2.51521022215605        2.51526586285628     
   2.51533828282650        2.51546548361092        2.51542052447893     
   2.51590178863191        4.31935253268844        4.31935253268844     
   4.31938585578972        4.31937252654978        4.31939992254664     
   4.31940379269961        4.31941942411002        4.31942919315858     
   4.31944140986466        4.31945176081785        4.31946212035825     
   4.31947220858673        4.31948435071796        4.31950664198735     
   4.31948456974065        4.31962328701223        6.45395112957464     
   6.45395112957464        6.45396294849635        6.45395905194815     
   6.45396802944265        6.45396926512313        6.45397387435948     
   6.45397644908932        6.45397954921686        6.45398194432362     
   6.45398424294831        6.45398641324514        6.45398914809858     
   6.45399478093849        6.45398726314013        6.45403558898179     
   8.79463319744677        8.79463319744677        8.79463611864626     
   8.79463520222649        8.79463732838697        8.79463758437065     
   8.79463860842028        8.79463913826306        8.79463978022173     
   8.79464025765657        8.79464071921567        8.79464116438953     
   8.79464175839421        8.79464305298794        8.79464126393937     
   8.79465351089217        11.2053668025532        11.2053668025532     
   11.2053638813537        11.2053647977735        11.2053626716130     
   11.2053624156293        11.2053613915797        11.2053608617369     
   11.2053602197783        11.2053597423434        11.2053592807843     
   11.2053588356105        11.2053582416058        11.2053569470121     
   11.2053587360606        11.2053464891078        13.5460488704254     
   13.5460488704254        13.5460370515036        13.5460409480518     
   13.5460319705573        13.5460307348769        13.5460261256405     
   13.5460235509107        13.5460204507831        13.5460180556764     
   13.5460157570517        13.5460135867549        13.5460108519014     
   13.5460052190615        13.5460127368599        13.5459644110182     
   15.6806474673116        15.6806474673116        15.6806141442103     
   15.6806274734502        15.6806000774534        15.6805962073004     
   15.6805805758900        15.6805708068414        15.6805585901353     
   15.6805482391822        15.6805378796418        15.6805277914133     
   15.6805156492820        15.6804933580126        15.6805154302593     
   15.6803767129878        17.4851074817110        17.4851074817110     
   17.4850194773102        17.4850724109453        17.4849968127938     
   17.4849953590757        17.4849514581364        17.4849235023602     
   17.4848811472220        17.4848390567609        17.4847897778440     
   17.4847341371437        17.4846617171735        17.4845345163891     
   17.4845794755211        17.4840982113681        18.8545602565321     
   18.8545602565321        18.8543298859323        18.8545663529936     
   18.8544251365804        18.8545541658550        18.8545604075657     
   18.8546354717687        18.8546531328887        18.8546438883209     
   18.8545472390842        18.8543319011698        18.8539219389714     
   18.8531004449269        18.8528204030651        18.8506090276074     
   19.7094181742605        19.7094181742605        19.7088344398606     
   19.7119427296183        19.7141398826142        19.7186129275845     
   19.7231392055963        19.7286355875613        19.7342206106443     
   19.7398361132028        19.7448040778286        19.7484234423592     
   19.7492762971608        19.7444568072473        19.7349163654966     
   19.6997969733244        20.0000000000000        20.0000000000000     
   19.9994683182910        19.9981265155337        19.9965019488470     
   19.9943153312354        19.9918730997221        19.9891950229371     
   19.9865115043824        19.9840097888262        19.9819662274104     
   19.9806546728280        19.9802662311221        19.9799315873997     
   19.9873509375056        19.9826137484622     
 -6.536680706074363E-003 -6.536680706074363E-003 -2.235378858033267E-004
  3.407939167745607E-003  8.164650472708576E-003  1.182092354090165E-002
  1.510150193727236E-002  1.733499905545578E-002  1.848896713682627E-002
  1.819085022525893E-002  1.614122421030389E-002  1.188527475571981E-002
  4.750494643765243E-003 -6.460329267863030E-003 -2.190929466294712E-002
  3.734477659529375E-002 -6.536680706074363E-003 -6.536680706074363E-003
 -3.602708184487654E-002 -4.908344859199038E-002 -6.927242980603343E-002
 -8.473641817304345E-002 -0.101618778538403      -0.116753601171378     
 -0.131792488349494      -0.145869476355276      -0.159387980867730     
 -0.171939645315996      -0.183038262249098      -0.190235634384896     
 -0.180832547510055      -1.612893421798530E-002 -6.536680706074363E-003
 -6.536680706074363E-003 -2.781827512209135E-002 -3.645984563728813E-002
 -5.034302089642990E-002 -6.097639172280206E-002 -7.292012508566569E-002
 -8.410967672946881E-002 -9.576957943223117E-002 -0.107448438221181     
 -0.119500902525157      -0.131737062028833      -0.143706388101792     
 -0.152711570030724      -0.147662061399299       3.673383408424646E-002
 -6.536680706074363E-003 -6.536680706074363E-003 -2.642810123752543E-002
 -3.396406890374987E-002 -4.641377330155990E-002 -5.569550142625333E-002
 -6.626277063209969E-002 -7.616754382154867E-002 -8.662958574248757E-002
 -9.722804752632987E-002 -0.108301791466359      -0.119612443258375     
 -0.130587324762799      -0.138266728772148      -0.131263307553129     
  5.688253557201466E-002 -6.536680706074363E-003 -6.536680706074363E-003
 -2.600961907454621E-002 -3.317196708556055E-002 -4.513785422277479E-002
 -5.393420259446575E-002 -6.398965591126565E-002 -7.338469092350548E-002
 -8.333805332597945E-002 -9.343612948033536E-002 -0.104018180843617     
 -0.114846341447112      -0.125346623436426      -0.132549942200226     
 -0.125059195269418       6.373647099625274E-002 -6.536680706074363E-003
 -6.536680706074363E-003 -2.586188172631092E-002 -3.289196342486977E-002
 -4.468530094287628E-002 -5.330713159977692E-002 -6.317680302252755E-002
 -7.238549191827558E-002 -8.215250939792697E-002 -9.206872022372806E-002
 -0.102475965947292      -0.113139480711601      -0.123487494892384     
 -0.130550099090196      -0.122923540071824       6.602922914882073E-002
 -6.536680706074363E-003 -6.536680706074363E-003 -2.581137864641607E-002
 -3.279776772723877E-002 -4.453400929117517E-002 -5.309885508293537E-002
 -6.290815157157148E-002 -7.205683677871390E-002 -8.176432551024591E-002
 -9.162299921152506E-002 -0.101975455594721      -0.112587807151121     
 -0.122888754295132      -0.129907863057164      -0.122238799860368     
  6.676079832520869E-002 -6.536680706074363E-003 -6.536680706074363E-003
 -2.581137864641608E-002 -3.279776772723877E-002 -4.453400929117521E-002
 -5.309885508293542E-002 -6.290815157157141E-002 -7.205683677871386E-002
 -8.176432551024596E-002 -9.162299921152514E-002 -0.101975455594721     
 -0.112587807151121      -0.122888754295132      -0.129907863057164     
 -0.122238799860368       6.676079832520872E-002 -6.536680706074363E-003
 -6.536680706074363E-003 -2.586188172631093E-002 -3.289196342486982E-002
 -4.468530094287627E-002 -5.330713159977691E-002 -6.317680302252759E-002
 -7.238549191827556E-002 -8.215250939792690E-002 -9.206872022372800E-002
 -0.102475965947292      -0.113139480711601      -0.123487494892384     
 -0.130550099090196      -0.122923540071823       6.602922914882076E-002
 -6.536680706074363E-003 -6.536680706074363E-003 -2.600961907454628E-002
 -3.317196708556058E-002 -4.513785422277472E-002 -5.393420259446574E-002
 -6.398965591126581E-002 -7.338469092350550E-002 -8.333805332597927E-002
 -9.343612948033522E-002 -0.104018180843617      -0.114846341447112     
 -0.125346623436426      -0.132549942200226      -0.125059195269418     
  6.373647099625279E-002 -6.536680706074363E-003 -6.536680706074363E-003
 -2.642810123752550E-002 -3.396406890374992E-002 -4.641377330155986E-002
 -5.569550142625339E-002 -6.626277063209966E-002 -7.616754382154858E-002
 -8.662958574248746E-002 -9.722804752632998E-002 -0.108301791466359     
 -0.119612443258375      -0.130587324762799      -0.138266728772148     
 -0.131263307553129       5.688253557201477E-002 -6.536680706074363E-003
 -6.536680706074363E-003 -2.781827512209135E-002 -3.645984563728809E-002
 -5.034302089642986E-002 -6.097639172280205E-002 -7.292012508566562E-002
 -8.410967672946865E-002 -9.576957943223088E-002 -0.107448438221181     
 -0.119500902525157      -0.131737062028833      -0.143706388101792     
 -0.152711570030725      -0.147662061399299       3.673383408424670E-002
 -6.536680706074363E-003 -6.536680706074363E-003 -3.602708184487662E-002
 -4.908344859199033E-002 -6.927242980603321E-002 -8.473641817304321E-002
 -0.101618778538402      -0.116753601171378      -0.131792488349494     
 -0.145869476355275      -0.159387980867731      -0.171939645315996     
 -0.183038262249100      -0.190235634384897      -0.180832547510056     
 -1.612893421798493E-002 -6.536680706074363E-003 -6.536680706074363E-003
 -2.235378858033519E-004  3.407939167745524E-003  8.164650472708500E-003
  1.182092354090155E-002  1.510150193727217E-002  1.733499905545544E-002
  1.848896713682618E-002  1.819085022525888E-002  1.614122421030408E-002
  1.188527475572020E-002  4.750494643765846E-003 -6.460329267862599E-003
 -2.190929466294741E-002  3.734477659529392E-002
   1.12784020016942        1.11896915097763        1.10892567638957     
   1.09747943126000        1.08433596959880        1.06911226722641     
   1.05129973883409        1.03020640715806        1.00486259147205     
  0.973858434038998       0.935043765751740       0.884911471366558     
  0.817122145994892       0.717952076931788       0.545687230928579     
   1.74221765493717        1.72697924614805        1.70967718973379     
   1.68989876312098        1.66711504942870        1.64063624387196     
   1.60954396139755        1.57258527955507        1.52799981794014     
   1.47322374154820        1.40435192360063        1.31507668024105     
   1.19436106594707        1.02014754055350       0.735561100336828     
   2.04987278178874        2.02817178256332        2.00352160552806     
   1.97535191638772        1.94294337235398        1.90537647195558     
   1.86145722279845        1.80960608475144        1.74768437980462     
   1.67270957966126        1.58035263084665        1.46395879974757     
   1.31238267385890        1.10391394579400       0.782326100572016     
   2.16383148377253        2.13736731139958        2.10749934788512     
   2.07362347682979        2.03499061728117        1.99065925364340     
   1.93942615290331        1.87972219649234        1.80944735323888     
   1.72569643953580        1.62426711239531        1.49868926620788     
   1.33806052524169        1.12094440580768       0.791278928221502     
   2.20214805155541        2.17323793467846        2.14081425119516     
   2.10428200377187        2.06290527298872        2.01576037746364     
   1.96166712793758        1.89908508255534        1.82594861530297     
   1.73939243491094        1.63525863329197        1.50712425988876     
   1.34413341106689        1.12488759619166       0.793323245359819     
   2.21480380361687        2.18490866014730        2.15148918053293     
   2.11395621316765        2.07158046516018        2.02344563356405     
   1.96837959004969        1.90485053854391        1.83080192530550     
   1.74337776595346        1.63842940476177        1.50954269403987     
   1.34586936362122        1.12601564997301       0.793911270808085     
   2.21785941458911        2.18770938772441        2.15403599325893     
   2.11625149747839        2.07362811755225        2.02525113883741     
   1.96995008087233        1.90619483520523        1.83193054857300     
   1.74430292194289        1.63916492624379        1.51010392089124     
   1.34627288741357        1.12627868704179       0.794049049972261     
   2.21480380361688        2.18490866014730        2.15148918053293     
   2.11395621316765        2.07158046516018        2.02344563356405     
   1.96837959004969        1.90485053854391        1.83080192530550     
   1.74337776595346        1.63842940476177        1.50954269403987     
   1.34586936362122        1.12601564997301       0.793911270808084     
   2.20214805155541        2.17323793467846        2.14081425119516     
   2.10428200377187        2.06290527298872        2.01576037746364     
   1.96166712793758        1.89908508255534        1.82594861530296     
   1.73939243491094        1.63525863329196        1.50712425988876     
   1.34413341106689        1.12488759619166       0.793323245359819     
   2.16383148377253        2.13736731139958        2.10749934788513     
   2.07362347682979        2.03499061728117        1.99065925364340     
   1.93942615290331        1.87972219649234        1.80944735323888     
   1.72569643953580        1.62426711239531        1.49868926620788     
   1.33806052524169        1.12094440580768       0.791278928221502     
   2.04987278178874        2.02817178256332        2.00352160552807     
   1.97535191638772        1.94294337235398        1.90537647195558     
   1.86145722279845        1.80960608475144        1.74768437980462     
   1.67270957966126        1.58035263084665        1.46395879974757     
   1.31238267385890        1.10391394579400       0.782326100572015     
   1.74221765493717        1.72697924614805        1.70967718973379     
   1.68989876312098        1.66711504942870        1.64063624387196     
   1.60954396139755        1.57258527955507        1.52799981794014     
   1.47322374154820        1.40435192360063        1.31507668024105     
   1.19436106594707        1.02014754055351       0.735561100336828     
   1.12784020016942        1.11896915097763        1.10892567638957     
   1.09747943126000        1.08433596959880        1.06911226722641     
   1.05129973883409        1.03020640715806        1.00486259147205     
  0.973858434038999       0.935043765751740       0.884911471366559     
  0.817122145994892       0.717952076931788       0.545687230928579     
 Zone I=    2 J=1   K=1   T="FarWake"
 DATAPACKING=BLOCK
 VARLOCATION=([4]=CELLCENTERED)
  5.964226035250552E-002  5.964226035250552E-002
   19.9826137484622        19.9826137484622     
  3.734477659529392E-002  3.734477659529392E-002
  0.000000000000000E+000
