 Title = "Wing and Wake"
 VARIABLES = "X" "Y" "Z" "GAM"
 Zone I=    5 J=   14 K=1  T="Blade"
 DATAPACKING=BLOCK
 VARLOCATION=([4]=CELLCENTERED)
  -10.9961946980917       -10.7471460235688       -10.4980973490459     
  -10.2490486745229       -10.0000000000000       -10.9961946980917     
  -10.7471460235688       -10.4980973490459       -10.2490486745229     
  -10.0000000000000       -10.9961946980917       -10.7471460235688     
  -10.4980973490459       -10.2490486745229       -10.0000000000000     
  -10.9961946980917       -10.7471460235688       -10.4980973490459     
  -10.2490486745229       -10.0000000000000       -10.9961946980917     
  -10.7471460235688       -10.4980973490459       -10.2490486745229     
  -10.0000000000000       -10.9961946980917       -10.7471460235688     
  -10.4980973490459       -10.2490486745229       -10.0000000000000     
  -10.9961946980917       -10.7471460235688       -10.4980973490459     
  -10.2490486745229       -10.0000000000000       -10.9961946980917     
  -10.7471460235688       -10.4980973490459       -10.2490486745229     
  -10.0000000000000       -10.9961946980917       -10.7471460235688     
  -10.4980973490459       -10.2490486745229       -10.0000000000000     
  -10.9961946980917       -10.7471460235688       -10.4980973490459     
  -10.2490486745229       -10.0000000000000       -10.9961946980917     
  -10.7471460235688       -10.4980973490459       -10.2490486745229     
  -10.0000000000000       -10.9961946980917       -10.7471460235688     
  -10.4980973490459       -10.2490486745229       -10.0000000000000     
  -10.9961946980917       -10.7471460235688       -10.4980973490459     
  -10.2490486745229       -10.0000000000000       -10.9961946980917     
  -10.7471460235688       -10.4980973490459       -10.2490486745229     
  -10.0000000000000     
  0.000000000000000E+000  0.000000000000000E+000  0.000000000000000E+000
  0.000000000000000E+000  0.000000000000000E+000  0.290581825739480     
  0.290581825739480       0.290581825739480       0.290581825739480     
  0.290581825739480        1.14543974346790        1.14543974346790     
   1.14543974346790        1.14543974346790        1.14543974346790     
   2.51489251828899        2.51489251828899        2.51489251828899     
   2.51489251828899        2.51489251828899        4.31935253268844     
   4.31935253268844        4.31935253268844        4.31935253268844     
   4.31935253268844        6.45395112957464        6.45395112957464     
   6.45395112957464        6.45395112957464        6.45395112957464     
   8.79463319744677        8.79463319744677        8.79463319744677     
   8.79463319744677        8.79463319744677        11.2053668025532     
   11.2053668025532        11.2053668025532        11.2053668025532     
   11.2053668025532        13.5460488704254        13.5460488704254     
   13.5460488704254        13.5460488704254        13.5460488704254     
   15.6806474673116        15.6806474673116        15.6806474673116     
   15.6806474673116        15.6806474673116        17.4851074817110     
   17.4851074817110        17.4851074817110        17.4851074817110     
   17.4851074817110        18.8545602565321        18.8545602565321     
   18.8545602565321        18.8545602565321        18.8545602565321     
   19.7094181742605        19.7094181742605        19.7094181742605     
   19.7094181742605        19.7094181742605        20.0000000000000     
   20.0000000000000        20.0000000000000        20.0000000000000     
   20.0000000000000     
  8.715574274765817E-002  6.536680706074363E-002  4.357787137382908E-002
  2.178893568691454E-002  0.000000000000000E+000  8.715574274765817E-002
  6.536680706074363E-002  4.357787137382908E-002  2.178893568691454E-002
  0.000000000000000E+000  8.715574274765817E-002  6.536680706074363E-002
  4.357787137382908E-002  2.178893568691454E-002  0.000000000000000E+000
  8.715574274765817E-002  6.536680706074363E-002  4.357787137382908E-002
  2.178893568691454E-002  0.000000000000000E+000  8.715574274765817E-002
  6.536680706074363E-002  4.357787137382908E-002  2.178893568691454E-002
  0.000000000000000E+000  8.715574274765817E-002  6.536680706074363E-002
  4.357787137382908E-002  2.178893568691454E-002  0.000000000000000E+000
  8.715574274765817E-002  6.536680706074363E-002  4.357787137382908E-002
  2.178893568691454E-002  0.000000000000000E+000  8.715574274765817E-002
  6.536680706074363E-002  4.357787137382908E-002  2.178893568691454E-002
  0.000000000000000E+000  8.715574274765817E-002  6.536680706074363E-002
  4.357787137382908E-002  2.178893568691454E-002  0.000000000000000E+000
  8.715574274765817E-002  6.536680706074363E-002  4.357787137382908E-002
  2.178893568691454E-002  0.000000000000000E+000  8.715574274765817E-002
  6.536680706074363E-002  4.357787137382908E-002  2.178893568691454E-002
  0.000000000000000E+000  8.715574274765817E-002  6.536680706074363E-002
  4.357787137382908E-002  2.178893568691454E-002  0.000000000000000E+000
  8.715574274765817E-002  6.536680706074363E-002  4.357787137382908E-002
  2.178893568691454E-002  0.000000000000000E+000  8.715574274765817E-002
  6.536680706074363E-002  4.357787137382908E-002  2.178893568691454E-002
  0.000000000000000E+000
  0.750945303204850        1.01089055779724        1.15217199520007     
   1.22705781551968        1.08411349918251        1.52360567435035     
   1.77433897591481        1.90755144435662        1.26135810245295     
   1.79311160763764        2.10677487547050        2.27742020605392     
   1.34520185940110        1.91732350448137        2.25756034237005     
   2.44387059724642        1.38402959727613        1.97398039350077     
   2.32550574399770        2.51821806676927        1.40105556593795     
   1.99860727842886        2.35481106184068        2.55007878518193     
   1.40575391036283        2.00537324345256        2.36283168525250     
   2.55877414047575        1.40075234888772        1.99816539393611     
   2.35428684907174        2.54952278204212        1.38366092190632     
   1.97343360711167        2.32484592660890        2.51750674168979     
   1.34509618458608        1.91714357849675        2.25731696613589     
   2.44358193423714        1.26166310476017        1.79351500454073     
   2.10720777815422        2.27783441854046        1.08467818110783     
   1.52437302864695        1.77519403546204        1.90841042239556     
  0.751432454370097        1.01152375366320        1.15286946689548     
   1.22776520397648     
 Zone I=   31 J=   14 K=1  T="NearWake"
 DATAPACKING=BLOCK
 VARLOCATION=([4]=CELLCENTERED)
  -9.92528539764312       -9.67528539764312       -9.42497821802378     
  -9.17446084628512       -8.92384144337789       -8.67331232252791     
  -8.42259681983974       -8.17229776286532       -7.92132420681665     
  -7.67148670740811       -7.42015033375814       -7.16831725468980     
  -6.91904998342274       -6.66830761266466       -6.41799493270868     
  -6.16758078375077       -5.91722758973836       -5.66694563570441     
  -5.41672102545478       -5.16658807609869       -4.91654747535423     
  -4.66662706930646       -4.41684384970046       -4.16722830475586     
  -3.91781134366229       -3.66863350296830       -3.41974185030879     
  -3.17119335474958       -2.92305251541157       -2.67538139932993     
  -2.42818885134481       -9.92528539764312       -9.67528539764312     
  -9.42551297498512       -9.17539574242505       -8.92510349280729     
  -8.67478863567380       -8.42435904377465       -8.17395118629607     
  -7.92354720681053       -7.67293266488860       -7.42224471293564     
  -7.17157113884646       -6.92146482927552       -6.67111241311633     
  -6.42063307485110       -6.17025842333885       -5.91983225786140     
  -5.66946053714190       -5.41908970660488       -5.16876090184800     
  -4.91845904766368       -4.66820200603939       -4.41799137568753     
  -4.16783927654443       -3.91775488380997       -3.66775225660521     
  -3.41784726740809       -3.16806058181742       -2.91841799274422     
  -2.66895532983489       -2.41972087791141       -9.92528539764312     
  -9.67528539764312       -9.42594581347837       -9.17646468802976     
  -8.92687397015868       -8.67723142427902       -8.42749830110059     
  -8.17777911591230       -7.92794519586264       -7.67822168682413     
  -7.42805146068896       -7.17895024678098       -6.92876579926185     
  -6.67899663839027       -6.42904486547892       -6.17918528622052     
  -5.92929435457017       -5.67943066737500       -5.42956956080247     
  -5.17972692589809       -4.92989953910847       -4.68009411587992     
  -4.43031237963923       -4.18055850692159       -3.93083468985508     
  -3.68114278296404       -3.43148204557221       -3.18184816462625     
  -2.93223005110659       -2.68260594355856       -2.43292934859634     
  -9.92528539764312       -9.67528539764312       -9.42596003545706     
  -9.17648965089503       -8.92690970278229       -8.67728260663041     
  -8.42756529247222       -8.17787163606037       -7.92805213731704     
  -7.67836414718911       -7.42820528578817       -7.17912711625546     
  -6.92899622407242       -6.67926659909619       -6.42937151822980     
  -6.17954535276857       -5.92969072833533       -5.67985114376103     
  -5.43000798306695       -5.18017095392805       -4.93033588237244     
  -4.68050509025314       -4.43067668394760       -4.18084987544425     
  -3.93102136736752       -3.68118646579050       -3.43133688763412     
  -3.18145964103560       -2.93153372075294       -2.68152577213701     
  -2.43136750309588       -9.92528539764312       -9.67528539764312     
  -9.42596209315646       -9.17648510494407       -8.92689439508958     
  -8.67725321332789       -8.42752324615167       -8.17780933302302     
  -7.92798316534051       -7.67825849879078       -7.42811583961573     
  -7.17898762082360       -6.92885959986099       -6.67910098429028     
  -6.42919567481590       -6.17934598193355       -5.92947116374546     
  -5.67960451383686       -5.42973167213557       -5.17985914202560     
  -4.92998332090082       -4.68010522560754       -4.43022258526835     
  -4.18033386695584       -3.93043533513010       -3.68052194931581     
  -3.43058535598133       -3.18061278983066       -2.93058381724368     
  -2.68046598178816       -2.43019005644960       -9.92528539764312     
  -9.67528539764312       -9.42596387583301       -9.17648359077927     
  -8.92688715442835       -8.67723687453354       -8.42750029721209     
  -8.17776999263621       -7.92794472211227       -7.67818458561893     
  -7.42806510516005       -7.17888923220790       -6.92876731103804     
  -6.67898639228478       -6.42907248041906       -6.17920606237341     
  -5.92931761127411       -5.67943460016296       -5.42954550978358     
  -5.17965542613122       -4.92976147337882       -4.67986443582000     
  -4.42996233622546       -4.18005377884882       -3.93013531935759     
  -3.68020222637366       -3.43024651623436       -3.18025581345511     
  -2.93021006171969       -2.68007711170666       -2.42978736143437     
  -9.92528539764312       -9.67528539764312       -9.42596477419146     
  -9.17648321162600       -8.92688450938265       -8.67723017920471     
  -8.42749112980093       -8.17775265058949       -7.92792923681871     
  -7.67814977471276       -7.42804426983068       -7.17884286889698     
  -6.92872549840184       -6.67893428308458       -6.42901694355350     
  -6.17914346543134       -5.92924963452931       -5.67936038560344     
  -5.42946549981203       -5.17956952079407       -4.92966991627349     
  -4.67976741199994       -4.42986016388150       -4.17994682967679     
  -3.93002405244340       -3.68008716775248       -3.43012825061890     
  -3.18013496026870       -2.93008724091127       -2.67995289499535     
  -2.42966206410658       -9.92528539764312       -9.67528539764312     
  -9.42596460998209       -9.17648292598280       -8.92688407968951     
  -8.67722957014600       -8.42749021185360       -8.17775140274085     
  -7.92792743746357       -7.67814731585317       -7.42804074187147     
  -7.17883897856864       -6.92872107745457       -6.67892934386236     
  -6.42901144159471       -6.17913736519707       -5.92924289320069     
  -5.67935295941857       -5.42945734319750       -5.17956058753039     
  -4.92966016009762       -4.67975678745754       -4.42984862723204     
  -4.17993433992663       -3.93001057246897       -3.68007266551485     
  -3.43011270041050       -3.18011834392968       -2.93006954884082     
  -2.67993412646356       -2.42964222390218       -9.92528539764312     
  -9.67528539764312       -9.42596354023212       -9.17648301062767     
  -8.92688627251163       -8.67723560154773       -8.42749831038903     
  -8.17776723220535       -7.92794060937961       -7.67817884414583     
  -7.42805664953732       -7.17887977222163       -6.92875639186078     
  -6.67897400105306       -6.42905846379748       -6.17919027642467     
  -5.92929988592290       -5.67941475061289       -5.42952333421775     
  -5.17963070649396       -4.92973397579580       -4.67983391148955     
  -4.42992852303728       -4.18001640392801       -3.93009410276007     
  -3.68015688622281       -3.43019677538094       -3.18020140767637     
  -2.93015074879570       -2.68001267874321       -2.42971761355195     
  -9.92528539764312       -9.67528539764312       -9.42596192415794     
  -9.17648481697101       -8.92689392703005       -8.67725248191024     
  -8.42752192630509       -8.17780738300657       -7.92797992682818     
  -7.67825373597340       -7.42810830912227       -7.17897889225135     
  -6.92884913670164       -6.67908868858000       -6.42918131612843     
  -6.17932930618944       -5.92945187338961       -5.67958226318556     
  -5.42970606232747       -5.17982970917102       -4.92994952467529     
  -4.68006643270999       -4.43017804971202       -4.18028270528046     
  -3.93037649649846       -3.68045418061827       -3.43050716318766     
  -3.18052239876201       -2.93047913772629       -2.68034457308683     
  -2.43004901680504       -9.92528539764312       -9.67528539764312     
  -9.42596027650126       -9.17649005836782       -8.92691023153400     
  -8.67728324027418       -8.42756590054324       -8.17787228512719     
  -7.92805242194007       -7.67836414474261       -7.42820437241748     
  -7.17912546596271       -6.92899353139867       -6.67926270480529     
  -6.42936626780098       -6.17953853193355       -5.92968210985375     
  -5.67984045800184       -5.42999493068378       -5.18015519581937     
  -4.93031704400844       -4.68048276179948       -4.43065042747966     
  -4.18081923377473       -3.93098587382549       -3.68114564042538     
  -3.43129018179814       -3.18140623296976       -2.93147194005717     
  -2.68145168367313       -2.43127144918726       -9.92528539764312     
  -9.67528539764312       -9.42594646666611       -9.17646577360585     
  -8.92687544293141       -8.67723333834149       -8.42750076266015     
  -8.17778233512717       -7.92794911762429       -7.67822678814364     
  -7.42805820519663       -7.17895693093165       -6.92877246688489     
  -6.67900304803227       -6.42905097821537       -6.17919095465195     
  -5.92929945434622       -5.67943502214275       -5.42957296658902     
  -5.17972912137710       -4.92990020274265       -4.68009284676323     
  -4.43030868860425       -4.18055181180635       -3.93082433785845     
  -3.68112813321906       -3.43146270107529       -3.18182458814731     
  -2.93220538101839       -2.68259330997452       -2.43301041100546     
  -9.92528539764312       -9.67528539764312       -9.42551333573081     
  -9.17539582224242       -8.92510335815491       -8.67478868354600     
  -8.42435965022715       -8.17395304538823       -7.92355006353411     
  -7.67293860474650       -7.42225576229309       -7.17158239448769     
  -6.92147673910134       -6.67112474969732       -6.42064585788705     
  -6.17027168696312       -5.91984606404507       -5.66947496868896     
  -5.41910486865822       -5.16877692645019       -4.91847609657467     
  -4.66822027916572       -4.41801110564738       -4.16786072888286     
  -3.91777834677408       -3.66777802666443       -3.41787563054237     
  -3.16809180791521       -2.91845241612522       -2.66899352975472     
  -2.41976326244373       -9.92528539764312       -9.67528539764312     
  -9.42497929174261       -9.17446339792752       -8.92384584684726     
  -8.67331897843775       -8.42260593101465       -8.17230956839332     
  -7.92133885879765       -7.67150261362036       -7.42016748896309     
  -7.16833546547855       -6.91906921690686       -6.66832800914358     
  -6.41801663549689       -6.16760392263873       -5.91725230872676     
  -5.66697207699670       -5.41674933249312       -5.16661837626695     
  -4.91657986187992       -4.66666156405211       -4.41688034368390     
  -4.16726645206654       -3.91785038463765       -3.66867196925794     
  -3.41977709968824       -3.17122088987049       -2.92306522169501     
  -2.67536943855854       -2.42814276544825     
  0.000000000000000E+000  0.000000000000000E+000  3.700746076779331E-004
  1.435918756851132E-003  3.196756859814749E-003  5.870980810413881E-003
  8.712447527214040E-003  1.353261636003841E-002  1.599477353304441E-002
  2.497820097143433E-002  2.445451457220778E-002  3.787632167361468E-002
  4.317022161699552E-002  5.107181909238644E-002  5.910607372377753E-002
  6.722672153890759E-002  7.567812456427887E-002  8.411568200961210E-002
  9.264156121456674E-002  0.101058897183043       0.109349212314975     
  0.117398306089270       0.125144230863275       0.132498631191853     
  0.139387094369125       0.145728302728679       0.151441374100186     
  0.156435684675782       0.160598088389232       0.163752717556065     
  0.165473243320344       0.290581825739480       0.290581825739480     
  0.290936894610830       0.289486318175727       0.286897581182862     
  0.281896387592744       0.278363217208929       0.266857795055485     
  0.268796481286076       0.241917920062049       0.258493507102811     
  0.221170380680903       0.219535860942782       0.202679135054025     
  0.188411107143352       0.174462627279329       0.158864458284441     
  0.143947062158443       0.128428637222382       0.113264637021936     
  9.813384971527112E-002  8.340735454243539E-002  6.907686075549127E-002
  5.533026875652405E-002  4.224625226992619E-002  2.995186447069943E-002
  1.854835171785270E-002  8.163545188077643E-003 -1.029375200691886E-003
 -8.677138456191093E-003 -1.372753163338597E-002   1.14543974346790     
   1.14543974346790        1.14556361513962        1.14553477983466     
   1.14553784817324        1.14531628785698        1.14554694487781     
   1.14450772155116        1.14626790902725        1.14202207172388     
   1.14767791689286        1.14124015041851        1.14449434824157     
   1.14253676194361        1.14227089692979        1.14159752336721     
   1.14089705233626        1.14013790305827        1.13932163666830     
   1.13846501023685        1.13756326711614        1.13662956485051     
   1.13566945089714        1.13469721779219        1.13372751694544     
   1.13278175875775        1.13188701683622        1.13108006939489     
   1.13040949142718        1.12993715719922        1.12973658831397     
   2.51489251828899        2.51489251828899        2.51493905026949     
   2.51493551619592        2.51495318431152        2.51490396244513     
   2.51502382660508        2.51471187730786        2.51540752804305     
   2.51393119756506        2.51609787390016        2.51387378504547     
   2.51520459769465        2.51464156307998        2.51469003073675     
   2.51463465861076        2.51457607232431        2.51451645351126     
   2.51445096786827        2.51438789296896        2.51432429128476     
   2.51426424779732        2.51420836622320        2.51415963299951     
   2.51412018309351        2.51409293031306        2.51408050703604     
   2.51408542538162        2.51410926385945        2.51415128781121     
   2.51420393592352        4.31935253268844        4.31935253268844     
   4.31937147002960        4.31936985448360        4.31937721186682     
   4.31935983280032        4.31940852731167        4.31929246640915     
   4.31956682350865        4.31899660033141        4.31984486999871     
   4.31900134180924        4.31952934039580        4.31933169564113     
   4.31936441305440        4.31936555368570        4.31936542059319     
   4.31936790911161        4.31936957674885        4.31937391504854     
   4.31937924612050        4.31938673862476        4.31939601995527     
   4.31940746896741        4.31942096480499        4.31943645969172     
   4.31945359628738        4.31947176593852        4.31948984552171     
   4.31950574705916        4.31951467371072        6.45395112957464     
   6.45395112957464        6.45395827540302        6.45395688241968     
   6.45395903779810        6.45395176113475        6.45396992720431     
   6.45392511266116        6.45403010608313        6.45381063718309     
   6.45413550522733        6.45381732892736        6.45402078937541     
   6.45394999492290        6.45396502502793        6.45396965529546     
   6.45397358102325        6.45397885589252        6.45398381428208     
   6.45398976049924        6.45399590008453        6.45400253096387     
   6.45400935566343        6.45401634362656        6.45402328082434     
   6.45402997979496        6.45403615542561        6.45404145364238     
   6.45404537268106        6.45404711942754        6.45404499590790     
   8.79463319744677        8.79463319744677        8.79463381184168     
   8.79463205131502        8.79463117921184        8.79462774335248     
   8.79463094511686        8.79461756571735        8.79464341805897     
   8.79458429195571        8.79466765122727        8.79458538476618     
   8.79463848037119        8.79462067089808        8.79462483055768     
   8.79462653891241        8.79462799841729        8.79462986247566     
   8.79463163099812        8.79463365505953        8.79463570711704     
   8.79463785654775        8.79464001450043        8.79464216459966     
   8.79464424518861        8.79464620493689        8.79464797176782     
   8.79464946118397        8.79465055775852        8.79465108200144     
   8.79465064670354        11.2053668025532        11.2053668025532     
   11.2053620383383        11.2053595238707        11.2053559037885     
   11.2053545011018        11.2053462716062        11.2053542664538     
   11.2053228707982        11.2053766480211        11.2052876225170     
   11.2053707115097        11.2053165620442        11.2053343383975     
   11.2053297040950        11.2053278526838        11.2053261967560     
   11.2053243006711        11.2053225701068        11.2053207230489     
   11.2053189722405        11.2053172780954        11.2053157370187     
   11.2053143852454        11.2053132985645        11.2053125459840     
   11.2053122161395        11.2053124120337        11.2053132701386     
   11.2053150007715        11.2053180670433        13.5460488704254     
   13.5460488704254        13.5460372096752        13.5460337528411     
   13.5460264223867        13.5460279896442        13.5460037731569     
   13.5460419202435        13.5459298728679        13.5461423553397     
   13.5458097292015        13.5461282168149        13.5459225104828     
   13.5459923420338        13.5459756441788        13.5459697164913     
   13.5459643119680        13.5459576962030        13.5459513950674     
   13.5459442155502        13.5459369371298        13.5459293228678     
   13.5459217004589        13.5459141578243        13.5459069636992     
   13.5459003743870        13.5458947500426        13.5458905317579     
   13.5458883213463        13.5458890392772        13.5458946118503     
   15.6806474673116        15.6806474673116        15.6806235287168     
   15.6806194974355        15.6806060085419        15.6806164240173     
   15.6805601803925        15.6806676186938        15.6803838957683     
   15.6809444276166        15.6800849811170        15.6809277507629     
   15.6803951817258        15.6805899474258        15.6805529984969     
   15.6805479406436        15.6805435217110        15.6805363471828     
   15.6805295580564        15.6805198113190        15.6805086930920     
   15.6804950924379        15.6804793790166        15.6804612383238     
   15.6804408661330        15.6804184479627        15.6803945402885     
   15.6803700517087        15.6803465407827        15.6803267485111     
   15.6803166149536        17.4851074817110        17.4851074817110     
   17.4850555989218        17.4850529383615        17.4850284997560     
   17.4850698942744        17.4849414799247        17.4852433385916     
   17.4845369327331        17.4860010035805        17.4838210075669     
   17.4860431988436        17.4847057808742        17.4852642989482     
   17.4852091895645        17.4852581762268        17.4853091441187     
   17.4853606335370        17.4854168994761        17.4854698156141     
   17.4855220211790        17.4855693742494        17.4856110465723     
   17.4856439029528        17.4856655931932        17.4856730145391     
   17.4856633208040        17.4856337756911        17.4855824892806     
   17.4855096590765        17.4854217236583        18.8545602565321     
   18.8545602565321        18.8544308853371        18.8544533605168     
   18.8544434422498        18.8546570574574        18.8544179133285     
   18.8554466366082        18.8536767224885        18.8579078079217     
   18.8522405005876        18.8586752326780        18.8554145269100     
   18.8573676055526        18.8576267447750        18.8582937889016     
   18.8589867474717        18.8597380484387        18.8605455965137     
   18.8613929580920        18.8622848070893        18.8632083321955     
   18.8641584232357        18.8651218343241        18.8660858853442     
   18.8670332427427        18.8679455582929        18.8688067420340     
   18.8696253712184        18.8705471031660        18.8728421023565     
   19.7094181742605        19.7094181742605        19.7090576229637     
   19.7105030788845        19.7130868310939        19.7180818725739     
   19.7216074961806        19.7331028740547        19.7311543921165     
   19.7580128079400        19.7414328249534        19.7787521025719     
   19.7803818648730        19.7972352846561        19.8114979394805     
   19.8254415444127        19.8410335496161        19.8559443699219     
   19.8714549527485        19.8866101435499        19.9017305311347     
   19.9164450161171        19.9307611842398        19.9444905757985     
   19.9575533826239        19.9698211964359        19.9811907724177     
   19.9915315339265        20.0006664378116        20.0082387616583     
   20.0132015262464        20.0000000000000        20.0000000000000     
   19.9996244442802        19.9985512473200        19.9967824438826     
   19.9940988699632        19.9912477577469        19.9864150662791     
   19.9839417281721        19.9749386651726        19.9754524277144     
   19.9620197776840        19.9567171781618        19.9488042943225     
   19.9407574772167        19.9326220426830        19.9241535325214     
   19.9156958463621        19.9071461729550        19.8987003731339     
   19.8903757224233        19.8822846961377        19.8744869093625     
   19.8670673721022        19.8600956305518        19.8536456004288     
   19.8477866982412        19.8425917529129        19.8381467027628     
   19.8345893262786        19.8323035855846     
 -6.536680706074363E-003 -6.536680706074363E-003 -4.209945758346101E-005
  7.104676214613906E-003  1.449501381396490E-002  2.205652018475162E-002
  2.936847237807959E-002  3.677376905577521E-002  4.358848979170066E-002
  5.026531514405578E-002  5.721586837863482E-002  6.395624364804672E-002
  6.801204389533271E-002  7.294672444104000E-002  7.608518906877193E-002
  7.910171268175469E-002  8.102412720858160E-002  8.234804729657046E-002
  8.278312819746760E-002  8.247989788298464E-002  8.136266000431082E-002
  7.949658594046703E-002  7.688012779034023E-002  7.356137607876422E-002
  6.957512910116226E-002  6.497778387167144E-002  5.983088764909501E-002
  5.421526471155633E-002  4.824104886085990E-002  4.209500834465144E-002
  3.615252641912386E-002 -6.536680706074363E-003 -6.536680706074363E-003
 -2.628903640057970E-002 -4.498423105255830E-002 -6.256930744645685E-002
 -7.966950866263932E-002 -9.545251146028223E-002 -0.110422302103908     
 -0.125478184589739      -0.136574996492772      -0.147330384960044     
 -0.166739958337656      -0.175130397776791      -0.185872377687203     
 -0.193078053370208      -0.200901114919954      -0.206373482361950     
 -0.211317895665076      -0.214691651800481      -0.217196301151965     
 -0.218506393526189      -0.218939695381704      -0.218469434277835     
 -0.217303538398760      -0.215556505973549      -0.213438597823987     
 -0.211156210805868      -0.208979772760826      -0.207236226294917     
 -0.206404403964933      -0.207439540995456      -6.536680706074363E-003
 -6.536680706074363E-003 -2.008370051846290E-002 -3.215053762738287E-002
 -4.312633586904897E-002 -5.373629206294607E-002 -6.330385242859986E-002
 -7.346452192378507E-002 -8.145617236326862E-002 -9.214557828654010E-002
 -9.229190527936942E-002 -0.116133060100996      -0.117823766257506     
 -0.130136035805791      -0.136925503816350      -0.146463424730148     
 -0.154555149359966      -0.163323809318957      -0.171724873027524     
 -0.180293834485940      -0.188774467643141      -0.197303979801728     
 -0.205819045685784      -0.214350743580477      -0.222873454223227     
 -0.231374651256478      -0.239810325554333      -0.248111377758303     
 -0.256154159998662      -0.263727589063773      -0.270407519657076     