 Title = "Wing and Wake"
 VARIABLES = "X" "Y" "Z" "GAM"
 Zone I=    5 J=   14 K=1  T="Blade"
 DATAPACKING=BLOCK
 VARLOCATION=([4]=CELLCENTERED)
  -13.9961946980917       -13.7471460235688       -13.4980973490459     
  -13.2490486745229       -13.0000000000000       -13.9961946980917     
  -13.7471460235688       -13.4980973490459       -13.2490486745229     
  -13.0000000000000       -13.9961946980917       -13.7471460235688     
  -13.4980973490459       -13.2490486745229       -13.0000000000000     
  -13.9961946980917       -13.7471460235688       -13.4980973490459     
  -13.2490486745229       -13.0000000000000       -13.9961946980917     
  -13.7471460235688       -13.4980973490459       -13.2490486745229     
  -13.0000000000000       -13.9961946980917       -13.7471460235688     
  -13.4980973490459       -13.2490486745229       -13.0000000000000     
  -13.9961946980917       -13.7471460235688       -13.4980973490459     
  -13.2490486745229       -13.0000000000000       -13.9961946980917     
  -13.7471460235688       -13.4980973490459       -13.2490486745229     
  -13.0000000000000       -13.9961946980917       -13.7471460235688     
  -13.4980973490459       -13.2490486745229       -13.0000000000000     
  -13.9961946980917       -13.7471460235688       -13.4980973490459     
  -13.2490486745229       -13.0000000000000       -13.9961946980917     
  -13.7471460235688       -13.4980973490459       -13.2490486745229     
  -13.0000000000000       -13.9961946980917       -13.7471460235688     
  -13.4980973490459       -13.2490486745229       -13.0000000000000     
  -13.9961946980917       -13.7471460235688       -13.4980973490459     
  -13.2490486745229       -13.0000000000000       -13.9961946980917     
  -13.7471460235688       -13.4980973490459       -13.2490486745229     
  -13.0000000000000     
  0.000000000000000E+000  0.000000000000000E+000  0.000000000000000E+000
  0.000000000000000E+000  0.000000000000000E+000  0.290581825739480     
  0.290581825739480       0.290581825739480       0.290581825739480     
  0.290581825739480        1.14543974346790        1.14543974346790     
   1.14543974346790        1.14543974346790        1.14543974346790     
   2.51489251828899        2.51489251828899        2.51489251828899     
   2.51489251828899        2.51489251828899        4.31935253268844     
   4.31935253268844        4.31935253268844        4.31935253268844     
   4.31935253268844        6.45395112957464        6.45395112957464     
   6.45395112957464        6.45395112957464        6.45395112957464     
   8.79463319744677        8.79463319744677        8.79463319744677     
   8.79463319744677        8.79463319744677        11.2053668025532     
   11.2053668025532        11.2053668025532        11.2053668025532     
   11.2053668025532        13.5460488704254        13.5460488704254     
   13.5460488704254        13.5460488704254        13.5460488704254     
   15.6806474673116        15.6806474673116        15.6806474673116     
   15.6806474673116        15.6806474673116        17.4851074817110     
   17.4851074817110        17.4851074817110        17.4851074817110     
   17.4851074817110        18.8545602565321        18.8545602565321     
   18.8545602565321        18.8545602565321        18.8545602565321     
   19.7094181742605        19.7094181742605        19.7094181742605     
   19.7094181742605        19.7094181742605        20.0000000000000     
   20.0000000000000        20.0000000000000        20.0000000000000     
   20.0000000000000     
  8.715574274765817E-002  6.536680706074363E-002  4.357787137382908E-002
  2.178893568691454E-002  0.000000000000000E+000  8.715574274765817E-002
  6.536680706074363E-002  4.357787137382908E-002  2.178893568691454E-002
  0.000000000000000E+000  8.715574274765817E-002  6.536680706074363E-002
  4.357787137382908E-002  2.178893568691454E-002  0.000000000000000E+000
  8.715574274765817E-002  6.536680706074363E-002  4.357787137382908E-002
  2.178893568691454E-002  0.000000000000000E+000  8.715574274765817E-002
  6.536680706074363E-002  4.357787137382908E-002  2.178893568691454E-002
  0.000000000000000E+000  8.715574274765817E-002  6.536680706074363E-002
  4.357787137382908E-002  2.178893568691454E-002  0.000000000000000E+000
  8.715574274765817E-002  6.536680706074363E-002  4.357787137382908E-002
  2.178893568691454E-002  0.000000000000000E+000  8.715574274765817E-002
  6.536680706074363E-002  4.357787137382908E-002  2.178893568691454E-002
  0.000000000000000E+000  8.715574274765817E-002  6.536680706074363E-002
  4.357787137382908E-002  2.178893568691454E-002  0.000000000000000E+000
  8.715574274765817E-002  6.536680706074363E-002  4.357787137382908E-002
  2.178893568691454E-002  0.000000000000000E+000  8.715574274765817E-002
  6.536680706074363E-002  4.357787137382908E-002  2.178893568691454E-002
  0.000000000000000E+000  8.715574274765817E-002  6.536680706074363E-002
  4.357787137382908E-002  2.178893568691454E-002  0.000000000000000E+000
  8.715574274765817E-002  6.536680706074363E-002  4.357787137382908E-002
  2.178893568691454E-002  0.000000000000000E+000  8.715574274765817E-002
  6.536680706074363E-002  4.357787137382908E-002  2.178893568691454E-002
  0.000000000000000E+000
  0.755991604456358        1.01823122274617        1.16121382397203     
   1.23751340106884        1.09221436671344        1.53576361437544     
   1.78955193730982        1.92527579010669        1.27257752983629     
   1.81007320608950        2.12811218248077        2.30234673446173     
   1.35935972974516        1.93874182896145        2.28450474064897     
   2.47531904678999        1.40057340261644        1.99899573444209     
   2.35695090386429        2.55487788173131        1.41907290837792     
   2.02583720635835        2.38901991621425        2.58993265621168     
   1.42416550528354        2.03319112707918        2.39776996103631     
   2.59946845263675        1.41855983451829        2.02506456256520     
   2.38806658323457        2.58886684867101        1.40009530494127     
   1.99824573541037        2.35599159464899        2.55377223095566     
   1.35960262735146        1.93901947952347        2.28474892871246     
   2.47549672720559        1.27376049909619        1.81170559056422     
   2.12996370641167        2.30426296322505        1.09389231737724     
   1.53808818902059        1.79221372996089        1.92807089570640     
  0.757351567073622        1.02002910750408        1.16323558070070     
   1.23963315539423     
 Zone I=   31 J=   14 K=1  T="NearWake"
 DATAPACKING=BLOCK
 VARLOCATION=([4]=CELLCENTERED)
  -12.9252853976431       -12.6752853976431       -12.4249688481195     
  -12.1744207616458       -11.9238000771518       -11.6731626892570     
  -11.4225249349862       -11.1718942562922       -10.9212719557851     
  -10.6706665863093       -10.4200658604575       -10.1695060171421     
  -9.91892068238920       -9.66844551315825       -9.41786222307518     
  -9.16752255866421       -8.91691013174648       -8.66684920446843     
  -8.41599814647345       -8.16654304002510       -7.91531639266732     
  -7.66576332671807       -7.41657458604912       -7.15953862411424     
  -6.91365559474691       -6.66222695561049       -6.41228416414479     
  -6.16230164768848       -5.91221326353234       -5.66241245029395     
  -5.41264312544676       -12.9252853976431       -12.6752853976431     
  -12.4254958956328       -12.1753438417920       -11.9250341230166     
  -11.6746419148083       -11.4241988270828       -11.1737218643925     
  -10.9232219179060       -10.6727055713283       -10.4221819907401     
  -10.1716454735577       -9.92113054413119       -9.67055358542783     
  -9.42016001744811       -9.16932164429018       -8.91954603976512     
  -8.66761713221144       -8.41962929925922       -8.16540836622698     
  -7.91955710387428       -7.66363657061975       -7.41793376470214     
  -7.16218669414996       -6.91500613098004       -6.66420665595683     
  -6.41379194133211       -6.16361944323154       -5.91324439883364     
  -5.66304506662045       -5.41287483445944       -12.9252853976431     
  -12.6752853976431       -12.4259373749804       -12.1764440246891     
  -11.9268485759177       -11.6771780897374       -11.4274502813013     
  -11.1776775775360       -10.9278687579978       -10.6780306406770     
  -10.4281680111250       -10.1782852974635       -9.92838562720343     
  -9.67847156804891       -9.42854785029947       -9.17860979987696     
  -8.92867674177113       -8.67870862270112       -8.42879716931395     
  -8.17874113435438       -7.92896196367797       -7.67862060351211     
  -7.42894189032000       -7.17917106753195       -6.92928319652711     
  -6.67931191497333       -6.42940732941423       -6.17949911918434     
  -5.92962959066502       -5.67976414628583       -5.42992205895235     
  -12.9252853976431       -12.6752853976431       -12.4259528176149     
  -12.1764723432233       -11.9268913767348       -11.6772393009264     
  -11.4275347242392       -11.1777901581708       -10.9280141470855     
  -10.6782132179131       -10.4283917842175       -10.1785538794869     
  -9.92870209328699       -9.67883835393084       -9.42896690780382     
  -9.17908157702992       -8.92920361816002       -8.67928662890709     
  -8.42943541593684       -8.17943203268883       -7.92970936532254     
  -7.67943583659342       -7.42985841093666       -7.18005733324798     
  -6.93020709019584       -6.68026171474395       -6.43040940710056     
  -6.18048862445511       -5.93061680597386       -5.68071838380395     
  -5.43083629010615       -12.9252853976431       -12.6752853976431     
  -12.4259555986850       -12.1764697987442       -11.9268793382443     
  -11.6772158641917       -11.4274993072621       -11.1777429252808     
  -10.9279556561440       -10.6781441661802       -10.4283129364540     
  -10.1784658162240       -9.92860554702619       -9.67873330764175     
  -9.42885446840217       -9.17895983955265       -8.92907630548482     
  -8.67914470268888       -8.42929463347513       -8.17925562637609     
  -7.92956082562697       -7.67918414741208       -7.42977472808623     
  -7.17978230878720       -6.92997950482251       -6.67997164758863     
  -6.43012093062042       -6.18016334921306       -5.93027205161530     
  -5.68034061802724       -5.43042803491414       -12.9252853976431     
  -12.6752853976431       -12.4259581053863       -12.1764702150047     
  -11.9268749940005       -11.6772051909027       -11.4274814069687     
  -11.1777173138029       -10.9279221250670       -10.6781026387672     
  -10.4282634897987       -10.1784084274702       -9.92854048083417     
  -9.67866020604310       -9.42877409477320       -9.17887052464460     
  -8.92898084146402       -8.67903676206564       -8.42918513573192     
  -8.17912069605512       -7.92944545135209       -7.67898726497028     
  -7.42971781312284       -7.17957762686963       -6.92981998200042     
  -6.67977128213262       -6.42992447993344       -6.17994659869979     
  -5.93004702888330       -5.68010022691758       -5.43017499935798     
  -12.9252853976431       -12.6752853976431       -12.4259594835500     
  -12.1764710918708       -11.9268742541001       -11.6772021473037     
  -11.4274756323766       -11.1777085405656       -10.9279101974593     
  -10.6780874503093       -10.4282450111337       -10.1783865716911     
  -9.92851532474905       -9.67863150042436       -9.42874218990171     
  -9.17883453695413       -8.92894212646804       -8.67899223935607     
  -8.42914000551264       -8.17906355493088       -7.92939821638763     
  -7.67889761225069       -7.42970257345709       -7.17948643040296     
  -6.92975300407104       -6.67968585153771       -6.42984202828533     
  -6.17985595809388       -5.92995382864893       -5.68000152657256     
  -5.43007223967187       -12.9252853976431       -12.6752853976431     
  -12.4259593942727       -12.1764710234340       -11.9268742819644     
  -11.6772023310169       -11.4274760213318       -11.1777091774536     
  -10.9279111184233       -10.6780886868800       -10.4282465856699     
  -10.1783885047554       -9.92851761620994       -9.67863416207708     
  -9.42874517621720       -9.17883786726864       -8.92894565562225     
  -8.67899604582840       -8.42914374658253       -8.17906743005356     
  -7.92940172508174       -7.67890038339321       -7.42970406147912     
  -7.17948824430098       -6.92975446820298       -6.67968703211191     
  -6.42984280883044       -6.17985626854367       -5.92995356493892     
  -5.68000057366351       -5.43007044739731       -12.9252853976431     
  -12.6752853976431       -12.4259579010664       -12.1764700393010     
  -11.9268750210779       -11.6772055674277       -11.4274822624861     
  -11.1777187676645       -10.9279242864579       -10.6781056108507     
  -10.4282673595225       -10.1784132819167       -9.92854636445648     
  -9.67866719415634       -9.42878213509726       -9.17887971607535     
  -8.92899090515746       -8.67904793472363       -8.42919667631489     
  -8.17913311014379       -7.92945761854282       -7.67899822346612     
  -7.42972593044527       -7.17958744411181       -6.92982975745202     
  -6.67978118701153       -6.42993423400846       -6.17995601339861     
  -5.93005579117628       -5.68010794551498       -5.43018110330488     
  -12.9252853976431       -12.6752853976431       -12.4259554016825     
  -12.1764695125952       -11.9268790880358       -11.6772157786744     
  -11.4274995179036       -11.1777435684949       -10.9279568722086     
  -10.6781461018104       -10.4283157377685       -10.1784696409511     
  -9.92861053352468       -9.67873963126290       -9.42886222024677     
  -9.17896924619755       -8.92908730848536       -8.67915768058141     
  -8.42930918365256       -8.17927239669311       -7.92957913107125     
  -7.67920308896353       -7.42979229169829       -7.17980470147380     
  -6.93000520590707       -6.68000133736086       -6.43015493371136     
  -6.18020213020589       -5.93031586693902       -5.68038953997451     
  -5.43048159532623       -12.9252853976431       -12.6752853976431     
  -12.4259527255719       -12.1764719180197       -11.9268905334370     
  -11.6772380138725       -11.4275330034823       -11.1777880394578     
  -10.9280116870609       -10.6782104891222       -10.4283888757212     
  -10.1785508890718       -9.92869913679274       -9.67883554578798     
  -9.42896439233197       -9.17907947918160       -8.92920212122647     
  -8.67928587199528       -8.42943564566407       -8.17943343903403     
  -7.92971232082666       -7.67943972153283       -7.42986273295537     
  -7.18006569181663       -6.93022039282362       -6.68028149138183     
  -6.43043848905510       -6.18053101391015       -5.93067755827953     
  -5.68080403835492       -5.43095378982512       -12.9252853976431     
  -12.6752853976431       -12.4259373690217       -12.1764433684548     
  -11.9268469067552       -11.6771751750007       -11.4274459714299     
  -11.1776717817016       -10.9278614250662       -10.6780217379753     
  -10.4281575283431       -10.1782732074114       -9.92837192842906     
  -9.67845617642871       -9.42853076240160       -9.17859078863879     
  -8.92865580220904       -8.67868530170376       -8.42877140453018     
  -8.17871236166475       -7.92892967494193       -7.67858392834565     
  -7.42890107835891       -7.17912107195403       -6.92922398783693     
  -6.67924003308433       -6.42932122465938       -6.17939817797321     
  -5.92951622648773       -5.67965386725363       -5.42991193919031     
  -12.9252853976431       -12.6752853976431       -12.4254942355751     
  -12.1753383694733       -11.9250242730769       -11.6746276714234     
  -11.4241803746914       -11.1736994780025       -10.9231959226164     
  -10.6726763000656       -10.4221498203568       -10.1716106827286     
  -9.92109354558121       -9.67051450064022       -9.42011913432785     
  -9.16927947681158       -8.91950100547457       -8.66757341255204     
  -8.41957757891904       -8.16536643798346       -7.91949401199566     
  -7.66360069816562       -7.41787405003122       -7.16214707527966     
  -6.91494997340260       -6.66415125582442       -6.41373581798017     
  -6.16356204079854       -5.91319395994552       -5.66300315879938     
  -5.41284311179198       -12.9252853976431       -12.6752853976431     
  -12.4249688958659       -12.1744210375089       -11.9238009230208     
  -11.6731644780291       -11.4225280294198       -11.1718989944480     
  -10.9212786399420       -10.6706754864857       -10.4200771796518     
  -10.1695199379644       -9.91893723656191       -9.66846476611474     
  -9.41788393421166       -9.16754649172004       -8.91693587389195     
  -8.66687517991020       -8.41602548235148       -8.16656443776077     
  -7.91533954804869       -7.66576725894896       -7.41657283034287     
  -7.15952421751431       -6.91362852617262       -6.66218125403206     
  -6.41221235219677       -6.16219157932267       -5.91204979233972     
  -5.66217322814210       -5.41230516913323     
  0.000000000000000E+000  0.000000000000000E+000  3.790408157476647E-004
  1.480270182273293E-003  3.351553271981000E-003  5.992601283590433E-003
  9.387817035858025E-003  1.350943755067032E-002  1.831655785713719E-002
  2.377548426820649E-002  2.980782817527192E-002  3.642953311102554E-002
  4.340942508521048E-002  5.104958646190291E-002  5.855828997506619E-002
  6.713904183044438E-002  7.480963536746137E-002  8.342939489077912E-002
  9.310817824377460E-002  9.828136809863892E-002  0.111467147001856     
  0.116607710802870       0.124880735813309       0.135297166811025     
  0.145750898033082       0.153434774692940       0.161677732765303     
  0.168955328766832       0.175956654631861       0.182013266156351     
  0.186956457020619       0.290581825739480       0.290581825739480     
  0.290949436304638       0.289528616705656       0.286635679237048     
  0.282281188890695       0.276528568296014       0.269441871243894     
  0.261122178109364       0.251586567225782       0.241110790261334     
  0.229335303958323       0.217444281323782       0.203266715578335     
  0.191343175940031       0.174071042487897       0.164144077431688     
  0.141588832484995       0.139545842000570       0.101871766226571     
  0.123565917748199       5.477996095585674E-002  0.101038264700428     
  4.311095833298648E-002  4.126661195364868E-002  2.521992548654431E-002
  9.151061732851793E-003 -2.799763137904313E-003 -1.605623100188047E-002
 -2.654182517127669E-002 -3.566385493672737E-002   1.14543974346790     
   1.14543974346790        1.14556924829318        1.14555478928578     
   1.14551403602347        1.14543084040868        1.14530052599256     
   1.14511944753207        1.14488705814678        1.14459734377062     
   1.14425752640043        1.14384632634252        1.14340427799384     
   1.14284231167750        1.14234101674384        1.14153199862658     
   1.14115331924451        1.13974290296357        1.14016744648769     
   1.13685241487958        1.14100268499540        1.12987268530370     
   1.14413244963064        1.12769661609764        1.13591715713627     
   1.13089165456689        1.13073419895597        1.12928994605672     
   1.12820761541909        1.12708909376406        1.12617394448131     
   2.51489251828899        2.51489251828899        2.51494354557540     
   2.51494713540848        2.51495175828072        2.51495283667020     
   2.51494936653207        2.51494050241855        2.51492643865301     
   2.51490561317421        2.51488070288835        2.51484524045445     
   2.51481276481694        2.51475415494020        2.51473108187608     
   2.51461415585879        2.51467431206300        2.51434886544527     
   2.51480464762159        2.51364329103127        2.51581140200923     
   2.51134469815364        2.51757112320965        2.51136439234178     
   2.51505926705998        2.51348024321870        2.51374953075169     
   2.51360210042053        2.51354489188088        2.51345248932946     
   2.51337486682764        4.31935253268844        4.31935253268844     
   4.31937456381382        4.31937656923633        4.31937969623424     
   4.31938235566177        4.31938427335275        4.31938522104350     
   4.31938538084911        4.31938424738097        4.31938287936292     
   4.31937890438447        4.31937740016579        4.31936749501049     
   4.31937231045865        4.31934321164541        4.31938265381730     
   4.31927670841354        4.31947235661380        4.31904327528454     
   4.31991841530084        4.31815548613595        4.32065214452130     
   4.31824064716536        4.31972103873190        4.31914201490939     
   4.31926130172697        4.31923586486435        4.31923805630750     
   4.31922849628719        4.31922134599301        6.45395112957464     
   6.45395112957464        6.45396018277262        6.45396068583271     
   6.45396169249843        6.45396258379289        6.45396325899987     
   6.45396364150620        6.45396382196747        6.45396362729745     
   6.45396347788693        6.45396248732721        6.45396258608279     
   6.45395965551295        6.45396245793517        6.45395257289249     
   6.45396888317507        6.45393004790992        6.45400642914881     
   6.45384384778370        6.45418236382597        6.45350020477954     
   6.45446659976463        6.45354506903101        6.45411541215032     
   6.45390201570205        6.45394889067406        6.45394428917840     
   6.45394876597055        6.45394933570740        6.45395034968293     
   8.79463319744677        8.79463319744677        8.79463488814641     
   8.79463426824592        8.79463375605830        8.79463318188566     
   8.79463251093494        8.79463171731098        8.79463082039119     
   8.79462977153110        8.79462867677685        8.79462730310184     
   8.79462614784865        8.79462414171965        8.79462354940883     
   8.79461960061859        8.79462237030094        8.79461076239033     
   8.79462900731603        8.79458505315849        8.79467154076577     
   8.79449167709588        8.79474134109273        8.79450315919611     
   8.79465094448171        8.79459682257431        8.79460871027704     
   8.79460821484379        8.79460967824555        8.79461040078227     
   8.79461120935557        11.2053668025532        11.2053668025532     
   11.2053625853690        11.2053609065032        11.2053590208045     
   11.2053570865615        11.2053551116334        11.2053530985840     
   11.2053510032395        11.2053488529800        11.2053465173594     
   11.2053442157237        11.2053414168338        11.2053392027908     
   11.2053352267037        11.2053343767864        11.2053262912030     
   11.2053326130073        11.2053079690345        11.2053467924182     
   11.2052515163066        11.2054299311119        11.2051640510383     
   11.2054117399431        11.2052576131526        11.2053133668757     
   11.2052990911194        11.2052994895827        11.2052970274908     
   11.2052961511270        11.2052953021826        13.5460488704254     
   13.5460488704254        13.5460373458443        13.5460343857166     
   13.5460308491914        13.5460273223760        13.5460238680738     
   13.5460205303374        13.5460171853779        13.5460139747437     
   13.5460104426039        13.5460074473779        13.5460030080563     
   13.5460012393443        13.5459932607131        13.5459976146391     
   13.5459750176828        13.5460075076280        13.5459231032368     
   13.5460792802280        13.5457288278596        13.5464092316959     
   13.5454185104791        13.5463534200760        13.5457722708491     
   13.5459868521219        13.5459345164560        13.5459370888114     
   13.5459287677108        13.5459254569419        13.5459215160955     
   15.6806474673116        15.6806474673116        15.6806229798663     
   15.6806182559623        15.6806123955386        15.6806069243155     
   15.6806020669573        15.6805980113291        15.6805945361688     
   15.6805921055617        15.6805896137853        15.6805893895818     
   15.6805862892548        15.6805911756885        15.6805807519070     
   15.6806038065863        15.6805572694007        15.6806560818660     
   15.6804507350646        15.6808725629361        15.6799814406804     
   15.6817438390263        15.6792079758484        15.6816444259129     
   15.6801445028025        15.6807270132455        15.6805973164004     
   15.6806192825707        15.6806089310025        15.6806121634603     
   15.6806113832405        17.4851074817110        17.4851074817110     
   17.4850538183495        17.4850472112023        17.4850396431874     
   17.4850356059770        17.4850360562492        17.4850418045113     
   17.4850526231566        17.4850700418027        17.4850913471524     
   17.4851229754694        17.4851513186339        17.4852055103804     
   17.4852236917822        17.4853355435440        17.4852693849400     
   17.4855892130326        17.4851253297013        17.4862816356208     
   17.4841003673803        17.4885701248991        17.4822993876345     
   17.4885545475352        17.4848392166659        17.4864428798552     
   17.4861764206363        17.4863492735266        17.4864298912702     
   17.4865630706184        17.4866908518795        18.8545602565321     
   18.8545602565321        18.8544277071664        18.8544389156294     
   18.8544766902446        18.8545571390509        18.8546848266457     
   18.8548634043359        18.8550934370012        18.8553807461838     
   18.8557182936035        18.8561273008696        18.8565670983713     
   18.8571268602851        18.8576258005507        18.8584326890222     
   18.8588090429632        18.8602175139434        18.8597920241444     
   18.8631037915316        18.8589616179484        18.8700845212010     
   18.8558161017828        18.8723130591168        18.8641139047141     
   18.8692174348228        18.8694602778577        18.8710822403468     
   18.8724740939841        18.8743370976870        18.8780698728580     
   19.7094181742605        19.7094181742605        19.7090470401683     
   19.7104687065551        19.7133666763429        19.7177292457108     
   19.7234918731428        19.7305894903618        19.7389200380312     
   19.7484656749208        19.7589497183210        19.7707315856928     
   19.7826255425414        19.7968038699342        19.8087243498508     
   19.8259879878543        19.8359124396807        19.8584368877030     
   19.8605059527587        19.8980816514759        19.8765144637303     
   19.9450726158989        19.8990284813072        19.9567853997108     
   19.9587132865387        19.9747288516364        19.9907619071308     
   20.0027082568364        20.0158967746831        20.0263155870506     
   20.0353290647790        20.0000000000000        20.0000000000000     
   19.9996174026790        19.9985088756926        19.9966289786108     
   19.9939779063724        19.9905713573262        19.9864372962860     
   19.9816168260549        19.9761437235121        19.9700964634713     
   19.9634589138845        19.9564621158744        19.9488034668670     
   19.9412739390191        19.9326709823271        19.9249697381916     
   19.9163258316415        19.9065886102167        19.9014001198565     
   19.8881099210291        19.8829419513511        19.8745457122072     
   19.8640520213574        19.8534783015947        19.8456445158810     
   19.8372031135667        19.8296578125078        19.8222837629417     
   19.8156964150409        19.8100091319817     
 -6.536680706074363E-003 -6.536680706074363E-003  1.817381320119160E-004
  7.575961704733443E-003  1.531554165306038E-002  2.318759892985648E-002
  3.103587304748410E-002  3.873772236068389E-002  4.619183785558399E-002
  5.331307132919545E-002  6.002620372541683E-002  6.625846845031452E-002
  7.198885049549844E-002  7.704739277496185E-002  8.175241657376738E-002
  8.519715319743699E-002  8.934462004168139E-002  9.002290724402683E-002
  9.556859913801855E-002  8.961109525517745E-002  0.103365394707075     
  8.309359848055015E-002  0.107257827567642       8.919599148584656E-002
  9.061423103502118E-002  8.773632359075023E-002  8.211012596461929E-002
  7.772399109617434E-002  7.186589755505800E-002  6.618028661900469E-002
  6.030608580311088E-002 -6.536680706074363E-003 -6.536680706074363E-003
 -2.635026288682940E-002 -4.503695397781218E-002 -6.283185876999714E-002
 -7.979973348258684E-002 -9.593882141506886E-002 -0.111219531853236     
 -0.125590688042511      -0.139007345957985      -0.151397438503694     
 -0.162707842660920      -0.172969978215516      -0.181694223073038     
 -0.190454847892832      -0.194477665218339      -0.205719395070998     
 -0.197487792314586      -0.223927132999161      -0.183770212733349     
 -0.249654205595824      -0.156755766218395      -0.246931483932861     
 -0.180218163003047      -0.208106787003906      -0.194711543128577     
 -0.186401338937945      -0.182139875641773      -0.172422895109270     
 -0.165385464401061      -0.157339057253310      -6.536680706074363E-003
 -6.536680706074363E-003 -2.006266269253901E-002 -3.204309658720138E-002
 -4.307763544005165E-002 -5.346690593514984E-002 -6.338333561816313E-002
 -7.293551321981873E-002 -8.219430734189548E-002 -9.121153226581949E-002
 -0.100018997403665      -0.108649858568597      -0.117110431790703     
 -0.125434083485629      -0.133603573554635      -0.141636943122604     
 -0.149593704196258      -0.157127460607411      -0.165329904577692     
 -0.170962192033546      -0.181268664251036      -0.182581434233931     
 -0.184713033451336      -0.203389551391683      -0.207452005981782     
 -0.217126203194544      -0.222849215631662      -0.230729887162079     
 -0.236859964331112      -0.243138825911503      -0.248340844360453     