 Title = "Wing and Wake"
 VARIABLES = "X" "Y" "Z" "GAM"
 Zone I=    5 J=   14 K=1  T="Blade"
 DATAPACKING=BLOCK
 VARLOCATION=([4]=CELLCENTERED)
  -4.99619469809175       -4.74714602356881       -4.49809734904587     
  -4.24904867452294       -4.00000000000000       -4.99619469809175     
  -4.74714602356881       -4.49809734904587       -4.24904867452294     
  -4.00000000000000       -4.99619469809175       -4.74714602356881     
  -4.49809734904587       -4.24904867452294       -4.00000000000000     
  -4.99619469809175       -4.74714602356881       -4.49809734904587     
  -4.24904867452294       -4.00000000000000       -4.99619469809175     
  -4.74714602356881       -4.49809734904587       -4.24904867452294     
  -4.00000000000000       -4.99619469809175       -4.74714602356881     
  -4.49809734904587       -4.24904867452294       -4.00000000000000     
  -4.99619469809175       -4.74714602356881       -4.49809734904587     
  -4.24904867452294       -4.00000000000000       -4.99619469809175     
  -4.74714602356881       -4.49809734904587       -4.24904867452294     
  -4.00000000000000       -4.99619469809175       -4.74714602356881     
  -4.49809734904587       -4.24904867452294       -4.00000000000000     
  -4.99619469809175       -4.74714602356881       -4.49809734904587     
  -4.24904867452294       -4.00000000000000       -4.99619469809175     
  -4.74714602356881       -4.49809734904587       -4.24904867452294     
  -4.00000000000000       -4.99619469809175       -4.74714602356881     
  -4.49809734904587       -4.24904867452294       -4.00000000000000     
  -4.99619469809175       -4.74714602356881       -4.49809734904587     
  -4.24904867452294       -4.00000000000000       -4.99619469809175     
  -4.74714602356881       -4.49809734904587       -4.24904867452294     
  -4.00000000000000     
  0.000000000000000E+000  0.000000000000000E+000  0.000000000000000E+000
  0.000000000000000E+000  0.000000000000000E+000  0.290581825739480     
  0.290581825739480       0.290581825739480       0.290581825739480     
  0.290581825739480        1.14543974346790        1.14543974346790     
   1.14543974346790        1.14543974346790        1.14543974346790     
   2.51489251828899        2.51489251828899        2.51489251828899     
   2.51489251828899        2.51489251828899        4.31935253268844     
   4.31935253268844        4.31935253268844        4.31935253268844     
   4.31935253268844        6.45395112957464        6.45395112957464     
   6.45395112957464        6.45395112957464        6.45395112957464     
   8.79463319744677        8.79463319744677        8.79463319744677     
   8.79463319744677        8.79463319744677        11.2053668025532     
   11.2053668025532        11.2053668025532        11.2053668025532     
   11.2053668025532        13.5460488704254        13.5460488704254     
   13.5460488704254        13.5460488704254        13.5460488704254     
   15.6806474673116        15.6806474673116        15.6806474673116     
   15.6806474673116        15.6806474673116        17.4851074817110     
   17.4851074817110        17.4851074817110        17.4851074817110     
   17.4851074817110        18.8545602565321        18.8545602565321     
   18.8545602565321        18.8545602565321        18.8545602565321     
   19.7094181742605        19.7094181742605        19.7094181742605     
   19.7094181742605        19.7094181742605        20.0000000000000     
   20.0000000000000        20.0000000000000        20.0000000000000     
   20.0000000000000     
  8.715574274765817E-002  6.536680706074363E-002  4.357787137382908E-002
  2.178893568691454E-002  0.000000000000000E+000  8.715574274765817E-002
  6.536680706074363E-002  4.357787137382908E-002  2.178893568691454E-002
  0.000000000000000E+000  8.715574274765817E-002  6.536680706074363E-002
  4.357787137382908E-002  2.178893568691454E-002  0.000000000000000E+000
  8.715574274765817E-002  6.536680706074363E-002  4.357787137382908E-002
  2.178893568691454E-002  0.000000000000000E+000  8.715574274765817E-002
  6.536680706074363E-002  4.357787137382908E-002  2.178893568691454E-002
  0.000000000000000E+000  8.715574274765817E-002  6.536680706074363E-002
  4.357787137382908E-002  2.178893568691454E-002  0.000000000000000E+000
  8.715574274765817E-002  6.536680706074363E-002  4.357787137382908E-002
  2.178893568691454E-002  0.000000000000000E+000  8.715574274765817E-002
  6.536680706074363E-002  4.357787137382908E-002  2.178893568691454E-002
  0.000000000000000E+000  8.715574274765817E-002  6.536680706074363E-002
  4.357787137382908E-002  2.178893568691454E-002  0.000000000000000E+000
  8.715574274765817E-002  6.536680706074363E-002  4.357787137382908E-002
  2.178893568691454E-002  0.000000000000000E+000  8.715574274765817E-002
  6.536680706074363E-002  4.357787137382908E-002  2.178893568691454E-002
  0.000000000000000E+000  8.715574274765817E-002  6.536680706074363E-002
  4.357787137382908E-002  2.178893568691454E-002  0.000000000000000E+000
  8.715574274765817E-002  6.536680706074363E-002  4.357787137382908E-002
  2.178893568691454E-002  0.000000000000000E+000  8.715574274765817E-002
  6.536680706074363E-002  4.357787137382908E-002  2.178893568691454E-002
  0.000000000000000E+000
  0.704256636413893       0.944045079434569        1.07131445521381     
   1.13572176412294        1.01072677595024        1.41503127632038     
   1.64088722042427        1.75571938109035        1.16270232714007     
   1.64590388265649        1.92458172066670        2.06908215631870     
   1.22410945255550        1.73637563643760        2.03337458510582     
   2.18738471869599        1.24650154845314        1.76865506611520     
   2.07143359027663        2.22803175318206        1.25429735218684     
   1.77974370425908        2.08434418758057        2.24165670248486     
   1.25622345528071        1.78246695900143        2.08749720093711     
   2.24496685122837        1.25429735218684        1.77974370425908     
   2.08434418758057        2.24165670248487        1.24650154845314     
   1.76865506611521        2.07143359027663        2.22803175318206     
   1.22410945255550        1.73637563643760        2.03337458510582     
   2.18738471869599        1.16270232714007        1.64590388265649     
   1.92458172066670        2.06908215631870        1.01072677595024     
   1.41503127632038        1.64088722042427        1.75571938109035     
  0.704256636413893       0.944045079434569        1.07131445521381     
   1.13572176412294     
 Zone I=   17 J=   14 K=1  T="NearWake"
 DATAPACKING=BLOCK
 VARLOCATION=([4]=CELLCENTERED)
  -3.92528539764312       -3.67528539764312       -3.42482030970934     
  -3.17439287583100       -2.92402125340058       -2.67370658142558     
  -2.42352499913996       -2.17348489879924       -1.92365886324761     
  -1.67410125159150       -1.42490729975724       -1.17618095644221     
 -0.928038472872676      -0.680515059303061      -0.433230986618455     
 -0.180415034019389       5.728988133803840E-002  -3.92528539764312     
  -3.67528539764312       -3.42577991406566       -3.17562743566699     
  -2.92570279045485       -2.67561989310406       -2.42565982835448     
  -2.17569502352951       -1.92583633285623       -1.67603404996618     
  -1.42630675905317       -1.17653619736028      -0.926413877175503     
 -0.674826265717236      -0.417451320076288      -0.128836618168118     
  5.636818693140733E-002  -3.92528539764312       -3.67528539764312     
  -3.42638554489634       -3.17672290427239       -2.92733356846573     
  -2.67769763713399       -2.42814150423265       -2.17848512919434     
  -1.92882922945763       -1.67906844290232       -1.42915353062506     
  -1.17883516272714      -0.927571520599692      -0.673748419440026     
 -0.411770580691016      -0.103344122941379       3.810143755076010E-002
  -3.92528539764312       -3.67528539764312       -3.42637173309994     
  -3.17667630664190       -2.92725274182338       -2.67755681005760     
  -2.42792770968805       -2.17816184696653       -1.92836237002062     
  -1.67840454952511       -1.42823236501630       -1.17757652424287     
 -0.925870763324435      -0.671429966936209      -0.408437416883721     
 -9.609547653769809E-002  3.311400562709466E-002  -3.92528539764312     
  -3.67528539764312       -3.42635428757406       -3.17662887346857     
  -2.92717745551895       -2.67744305711501       -2.42777832587253     
  -2.17797090468681       -1.92813122635666       -1.67813059057667     
  -1.42791567528968       -1.17721377339665      -0.925454094989369     
 -0.670935592892125      -0.407797234450952      -9.473205066287740E-002
  3.177787734355828E-002  -3.92528539764312       -3.67528539764312     
  -3.42634805579307       -3.17661047073089       -2.92714980975366     
  -2.67740221829301       -2.42772693931993       -2.17790775780149     
  -1.92805803397598       -1.67804737361591       -1.42782315893542     
  -1.17711135789082      -0.925339864168014      -0.670803760852027     
 -0.407631892605034      -9.439822628412087E-002  3.145463191211054E-002
  -3.92528539764312       -3.67528539764312       -3.42634648831486     
  -3.17660503132098       -2.92714184192494       -2.67739035604648     
  -2.42771214098922       -2.17788961134977       -1.92803704228016     
  -1.67802347139775       -1.42779647230716       -1.17708162527992     
 -0.925306475665284      -0.670765086987776      -0.407583602170175     
 -9.430331412074944E-002  3.137376139623970E-002  -3.92528539764312     
  -3.67528539764312       -3.42634648831486       -3.17660503132098     
  -2.92714184192494       -2.67739035604648       -2.42771214098922     
  -2.17788961134977       -1.92803704228016       -1.67802347139775     
  -1.42779647230716       -1.17708162527992      -0.925306475665284     
 -0.670765086987776      -0.407583602170175      -9.430331412074955E-002
  3.137376139623973E-002  -3.92528539764312       -3.67528539764312     
  -3.42634805579307       -3.17661047073089       -2.92714980975366     
  -2.67740221829301       -2.42772693931993       -2.17790775780149     
  -1.92805803397598       -1.67804737361591       -1.42782315893542     
  -1.17711135789082      -0.925339864168014      -0.670803760852027     
 -0.407631892605034      -9.439822628412084E-002  3.145463191211056E-002
  -3.92528539764312       -3.67528539764312       -3.42635428757406     
  -3.17662887346857       -2.92717745551895       -2.67744305711501     
  -2.42777832587253       -2.17797090468681       -1.92813122635666     
  -1.67813059057667       -1.42791567528968       -1.17721377339665     
 -0.925454094989369      -0.670935592892125      -0.407797234450952     
 -9.473205066287745E-002  3.177787734355826E-002  -3.92528539764312     
  -3.67528539764312       -3.42637173309994       -3.17667630664190     
  -2.92725274182338       -2.67755681005760       -2.42792770968805     
  -2.17816184696653       -1.92836237002062       -1.67840454952511     
  -1.42823236501630       -1.17757652424287      -0.925870763324435     
 -0.671429966936209      -0.408437416883721      -9.609547653769826E-002
  3.311400562709461E-002  -3.92528539764312       -3.67528539764312     
  -3.42638554489634       -3.17672290427239       -2.92733356846573     
  -2.67769763713399       -2.42814150423265       -2.17848512919434     
  -1.92882922945763       -1.67906844290232       -1.42915353062506     
  -1.17883516272714      -0.927571520599692      -0.673748419440026     
 -0.411770580691016      -0.103344122941379       3.810143755075991E-002
  -3.92528539764312       -3.67528539764312       -3.42577991406566     
  -3.17562743566699       -2.92570279045485       -2.67561989310406     
  -2.42565982835448       -2.17569502352951       -1.92583633285623     
  -1.67603404996618       -1.42630675905317       -1.17653619736028     
 -0.926413877175503      -0.674826265717236      -0.417451320076288     
 -0.128836618168119       5.636818693140682E-002  -3.92528539764312     
  -3.67528539764312       -3.42482030970934       -3.17439287583100     
  -2.92402125340058       -2.67370658142558       -2.42352499913996     
  -2.17348489879924       -1.92365886324761       -1.67410125159150     
  -1.42490729975724       -1.17618095644221      -0.928038472872676     
 -0.680515059303061      -0.433230986618455      -0.180415034019389     
  5.728988133803896E-002
  0.000000000000000E+000  0.000000000000000E+000  5.403388561134453E-004
  1.927860154307779E-003  3.607819923860213E-003  5.895532185275616E-003
  8.481088255382394E-003  1.137203666348871E-002  1.435407138684794E-002
  1.727261165939395E-002  1.987830560551243E-002  2.190093220449939E-002
  2.305192404943927E-002  2.316265024673152E-002  2.333715653597527E-002
  1.454484327796147E-002  1.996264718336992E-002  0.290581825739480     
  0.290581825739480       0.291175103512663       0.288015633635328     
  0.285759483296555       0.281155288468515       0.276440962658536     
  0.270650302487707       0.264635321904501       0.258380729741713     
  0.252448640957457       0.247323527211309       0.243897030015083     
  0.243683460297718       0.249975088566681       0.261708594190184     
  0.301539316414170        1.14543974346790        1.14543974346790     
   1.14567217788288        1.14542816730842        1.14556633345749     
   1.14542464511115        1.14540281734505        1.14530155684966     
   1.14524697337766        1.14520239456871        1.14522566602121     
   1.14533833205467        1.14559922685050        1.14608579206769     
   1.14703790211179        1.14740926788577        1.15001451657443     
   2.51489251828899        2.51489251828899        2.51498173224879     
   2.51492495765212        2.51500094876343        2.51499921475382     
   2.51504157650576        2.51506694420730        2.51510769802598     
   2.51514846176243        2.51519725100413        2.51525061528450     
   2.51531339422023        2.51539519961248        2.51553720806946     
   2.51548295186165        2.51606017195968        4.31935253268844     
   4.31935253268844        4.31938716220558        4.31937260856675     
   4.31940134418925        4.31940509606048        4.31942168965765     
   4.31943216840641        4.31944558193080        4.31945713772094     
   4.31946873868112        4.31947932168007        4.31949005676468     
   4.31950299668166        4.31952689692773        4.31950001471557     
   4.31966691140379        6.45395112957464        6.45395112957464     
   6.45396372466910        6.45395949361980        6.45396920430520     
   6.45397057138521        6.45397569004440        6.45397862644295     
   6.45398219196848        6.45398497922602        6.45398760945694     
   6.45398983132633        6.45399203460081        6.45399483386175     
   6.45400075435906        6.45399158296638        6.45404979580297     
   8.79463319744677        8.79463319744677        8.79463635137011     
   8.79463536326058        8.79463769398302        8.79463799325795     
   8.79463914914825        8.79463976618497        8.79464051273306     
   8.79464106968477        8.79464159026785        8.79464202479489     
   8.79464246996594        8.79464307341683        8.79464443235812     
   8.79464225065721        8.79465701550399        11.2053668025532     
   11.2053668025532        11.2053636486299        11.2053646367394     
   11.2053623060170        11.2053620067420        11.2053608508517     
   11.2053602338150        11.2053594872669        11.2053589303152     
   11.2053584097321        11.2053579752051        11.2053575300341     
   11.2053569265832        11.2053555676419        11.2053577493428     
   11.2053429844960        13.5460488704254        13.5460488704254     
   13.5460362753309        13.5460405063802        13.5460307956948     
   13.5460294286148        13.5460243099556        13.5460213735570     
   13.5460178080315        13.5460150207740        13.5460123905431     
   13.5460101686737        13.5460079653992        13.5460051661382     
   13.5459992456409        13.5460084170336        13.5459502041970     
   15.6806474673116        15.6806474673116        15.6806128377944     
   15.6806273914332        15.6805986558107        15.6805949039395     
   15.6805783103423        15.6805678315936        15.6805544180692     
   15.6805428622791        15.6805312613189        15.6805206783199     
   15.6805099432353        15.6804970033183        15.6804731030723     
   15.6804999852844        15.6803330885962        17.4851074817110     
   17.4851074817110        17.4850182677512        17.4850750423479     
   17.4849990512366        17.4850007852462        17.4849584234942     
   17.4849330557927        17.4848923019740        17.4848515382376     
   17.4848027489959        17.4847493847155        17.4846866057798     
   17.4846048003875        17.4844627919305        17.4845170481383     
   17.4839398280403        18.8545602565321        18.8545602565321     
   18.8543278221171        18.8545718326916        18.8544336665425     
   18.8545753548888        18.8545971826549        18.8546984431503     
   18.8547530266223        18.8547976054313        18.8547743339788     
   18.8546616679453        18.8544007731495        18.8539142079323     
   18.8529620978882        18.8525907321142        18.8499854834256     
   19.7094181742605        19.7094181742605        19.7088248964873     
   19.7119843663647        19.7142405167034        19.7188447115315     
   19.7235590373415        19.7293496975123        19.7353646780955     
   19.7416192702583        19.7475513590425        19.7526764727887     
   19.7561029699849        19.7563165397023        19.7500249114333     
   19.7382914058098        19.6984606835858        20.0000000000000     
   20.0000000000000        19.9994596611439        19.9980721398457     
   19.9963921800761        19.9941044678147        19.9915189117446     
   19.9886279633365        19.9856459286132        19.9827273883406     
   19.9801216943945        19.9780990677955        19.9769480759506     
   19.9768373497533        19.9766628434640        19.9854551567220     
   19.9800373528166     
 -6.536680706074363E-003 -6.536680706074363E-003  4.686844565847392E-005
  3.867024940434771E-003  8.944752057455405E-003  1.295087749511445E-002
  1.669677114097300E-002  1.949666157890317E-002  2.137812047831737E-002
  2.200572665426090E-002  2.116269756493320E-002  1.850065517723259E-002
  1.360269126421932E-002  5.789264120915693E-003 -6.296773886359297E-003
 -2.266040422049717E-002  4.079233857727688E-002 -6.536680706074363E-003
 -6.536680706074363E-003 -3.606088152412242E-002 -4.912853688382822E-002
 -6.934742488565970E-002 -8.483042764899279E-002 -0.101742393307441     
 -0.116902117982066      -0.131979072273104      -0.146116071414871     
 -0.159769407125472      -0.172680361601739      -0.184793024712339     
 -0.195391418335927      -0.201877638939187      -0.189812566536748     
 -1.657885783081052E-002 -6.536680706074363E-003 -6.536680706074363E-003
 -2.775206483684256E-002 -3.633469897409926E-002 -5.012343870163193E-002
 -6.064535264844105E-002 -7.244212492700634E-002 -8.344964512657595E-002
 -9.488082491745206E-002 -0.106284766463274      -0.118033471989980     
 -0.130044704279910      -0.142307368380873      -0.154153397808094     
 -0.162535928258786      -0.154516257205544       3.964893051977664E-002
 -6.536680706074363E-003 -6.536680706074363E-003 -2.631973090823152E-002
 -3.376314269940826E-002 -4.606415450476214E-002 -5.517483190461179E-002
 -6.552074119580750E-002 -7.516059352376256E-002 -8.530311979187645E-002
 -9.553882554030324E-002 -0.106241195893623      -0.117315198152003     
 -0.128687898589692      -0.139554104381073      -0.146569317445703     
 -0.136296180487564       6.132108854105512E-002 -6.536680706074363E-003
 -6.536680706074363E-003 -2.588183807373851E-002 -3.293712906229822E-002
 -4.473328353717725E-002 -5.333796507594211E-002 -6.314945902966726E-002
 -7.225770757472637E-002 -8.187064378817355E-002 -9.158756177626498E-002
 -0.101782756253055      -0.112362061146678      -0.123251339338294     
 -0.133642770398836      -0.140179495140603      -0.129371532567186     
  6.880818966800585E-002 -6.536680706074363E-003 -6.536680706074363E-003
 -2.572684438633981E-002 -3.264419710213742E-002 -4.425992211380612E-002
 -5.268217963869927E-002 -6.229904214957233E-002 -7.121167382330038E-002
 -8.062824423669246E-002 -9.015252851001072E-002 -0.100161142318978     
 -0.110562995616308      -0.121286594703067      -0.131526085916796     
 -0.137922959611392      -0.126969292979036       7.134439746164425E-002
 -6.536680706074363E-003 -6.536680706074363E-003 -2.567380633305716E-002
 -3.254536115080067E-002 -4.410106938303692E-002 -5.246332864167175E-002
 -6.201639679088759E-002 -7.086538080300997E-002 -8.021846198612624E-002
 -8.968097820068185E-002 -9.963028626026929E-002 -0.109976257710867     
 -0.120648104238674      -0.130840367036019      -0.137193748624049     
 -0.126194678801498       7.215961350567641E-002 -6.536680706074363E-003
 -6.536680706074363E-003 -2.567380633305719E-002 -3.254536115080069E-002
 -4.410106938303694E-002 -5.246332864167181E-002 -6.201639679088765E-002
 -7.086538080300991E-002 -8.021846198612617E-002 -8.968097820068192E-002
 -9.963028626026937E-002 -0.109976257710867      -0.120648104238674     
 -0.130840367036020      -0.137193748624049      -0.126194678801498     
  7.215961350567644E-002 -6.536680706074363E-003 -6.536680706074363E-003
 -2.572684438633983E-002 -3.264419710213744E-002 -4.425992211380621E-002
 -5.268217963869926E-002 -6.229904214957230E-002 -7.121167382330043E-002
 -8.062824423669243E-002 -9.015252851001064E-002 -0.100161142318978     
 -0.110562995616308      -0.121286594703067      -0.131526085916796     
 -0.137922959611392      -0.126969292979036       7.134439746164428E-002
 -6.536680706074363E-003 -6.536680706074363E-003 -2.588183807373847E-002
 -3.293712906229834E-002 -4.473328353717730E-002 -5.333796507594205E-002
 -6.314945902966726E-002 -7.225770757472653E-002 -8.187064378817355E-002
 -9.158756177626477E-002 -0.101782756253055      -0.112362061146678     
 -0.123251339338294      -0.133642770398836      -0.140179495140603     
 -0.129371532567186       6.880818966800591E-002 -6.536680706074363E-003
 -6.536680706074363E-003 -2.631973090823159E-002 -3.376314269940834E-002
 -4.606415450476221E-002 -5.517483190461176E-002 -6.552074119580754E-002
 -7.516059352376252E-002 -8.530311979187633E-002 -9.553882554030313E-002
 -0.106241195893623      -0.117315198152003      -0.128687898589692     
 -0.139554104381073      -0.146569317445703      -0.136296180487564     
  6.132108854105524E-002 -6.536680706074363E-003 -6.536680706074363E-003
 -2.775206483684247E-002 -3.633469897409927E-002 -5.012343870163186E-002
 -6.064535264844099E-002 -7.244212492700632E-002 -8.344964512657585E-002
 -9.488082491745187E-002 -0.106284766463274      -0.118033471989980     
 -0.130044704279910      -0.142307368380873      -0.154153397808094     
 -0.162535928258786      -0.154516257205544       3.964893051977689E-002
 -6.536680706074363E-003 -6.536680706074363E-003 -3.606088152412237E-002
 -4.912853688382816E-002 -6.934742488565961E-002 -8.483042764899248E-002
 -0.101742393307440      -0.116902117982065      -0.131979072273103     
 -0.146116071414871      -0.159769407125472      -0.172680361601739     
 -0.184793024712340      -0.195391418335929      -0.201877638939189     
 -0.189812566536748      -1.657885783081015E-002 -6.536680706074363E-003
 -6.536680706074363E-003  4.686844565847392E-005  3.867024940434674E-003
  8.944752057455261E-003  1.295087749511436E-002  1.669677114097284E-002
  1.949666157890295E-002  2.137812047831699E-002  2.200572665426082E-002
  2.116269756493316E-002  1.850065517723277E-002  1.360269126421971E-002
  5.789264120916362E-003 -6.296773886358837E-003 -2.266040422049752E-002
  4.079233857727708E-002
   1.13572176412294        1.12784020016942        1.11896915097763     
   1.10892567638957        1.09747943126000        1.08433596959880     
   1.06911226722641        1.05129973883409        1.03020640715806     
   1.00486259147205       0.973858434038998       0.935043765751740     
  0.884911471366558       0.817122145994892       0.717952076931788     
  0.545687230928579        1.75571938109035        1.74221765493717     
   1.72697924614805        1.70967718973379        1.68989876312098     
   1.66711504942870        1.64063624387196        1.60954396139755     
   1.57258527955507        1.52799981794014        1.47322374154820     
   1.40435192360063        1.31507668024105        1.19436106594707     
   1.02014754055350       0.735561100336828        2.06908215631870     
   2.04987278178874        2.02817178256332        2.00352160552806     
   1.97535191638772        1.94294337235398        1.90537647195558     
   1.86145722279845        1.80960608475144        1.74768437980462     
   1.67270957966126        1.58035263084665        1.46395879974757     
   1.31238267385890        1.10391394579400       0.782326100572016     
   2.18738471869599        2.16383148377253        2.13736731139958     
   2.10749934788512        2.07362347682979        2.03499061728117     
   1.99065925364340        1.93942615290331        1.87972219649234     
   1.80944735323888        1.72569643953580        1.62426711239531     
   1.49868926620788        1.33806052524169        1.12094440580768     
  0.791278928221502        2.22803175318206        2.20214805155541     
   2.17323793467846        2.14081425119516        2.10428200377187     
   2.06290527298872        2.01576037746364        1.96166712793758     
   1.89908508255534        1.82594861530297        1.73939243491094     
   1.63525863329197        1.50712425988876        1.34413341106689     
   1.12488759619166       0.793323245359819        2.24165670248486     
   2.21480380361687        2.18490866014730        2.15148918053293     
   2.11395621316765        2.07158046516018        2.02344563356405     
   1.96837959004969        1.90485053854391        1.83080192530550     
   1.74337776595346        1.63842940476177        1.50954269403987     
   1.34586936362122        1.12601564997301       0.793911270808085     
   2.24496685122837        2.21785941458911        2.18770938772441     
   2.15403599325893        2.11625149747839        2.07362811755225     
   2.02525113883741        1.96995008087233        1.90619483520523     
   1.83193054857300        1.74430292194289        1.63916492624379     
   1.51010392089124        1.34627288741357        1.12627868704179     
  0.794049049972261        2.24165670248487        2.21480380361688     
   2.18490866014730        2.15148918053293        2.11395621316765     
   2.07158046516018        2.02344563356405        1.96837959004969     
   1.90485053854391        1.83080192530550        1.74337776595346     
   1.63842940476177        1.50954269403987        1.34586936362122     
   1.12601564997301       0.793911270808084        2.22803175318206     
   2.20214805155541        2.17323793467846        2.14081425119516     
   2.10428200377187        2.06290527298872        2.01576037746364     
   1.96166712793758        1.89908508255534        1.82594861530296     
   1.73939243491094        1.63525863329196        1.50712425988876     
   1.34413341106689        1.12488759619166       0.793323245359819     
   2.18738471869599        2.16383148377253        2.13736731139958     
   2.10749934788513        2.07362347682979        2.03499061728117     
   1.99065925364340        1.93942615290331        1.87972219649234     
   1.80944735323888        1.72569643953580        1.62426711239531     
   1.49868926620788        1.33806052524169        1.12094440580768     
  0.791278928221502        2.06908215631870        2.04987278178874     
   2.02817178256332        2.00352160552807        1.97535191638772     
   1.94294337235398        1.90537647195558        1.86145722279845     
   1.80960608475144        1.74768437980462        1.67270957966126     
   1.58035263084665        1.46395879974757        1.31238267385890     
   1.10391394579400       0.782326100572015        1.75571938109035     
   1.74221765493717        1.72697924614805        1.70967718973379     
   1.68989876312098        1.66711504942870        1.64063624387196     
   1.60954396139755        1.57258527955507        1.52799981794014     
   1.47322374154820        1.40435192360063        1.31507668024105     
   1.19436106594707        1.02014754055351       0.735561100336828     
   1.13572176412294        1.12784020016942        1.11896915097763     
   1.10892567638957        1.09747943126000        1.08433596959880     
   1.06911226722641        1.05129973883409        1.03020640715806     
   1.00486259147205       0.973858434038999       0.935043765751740     
  0.884911471366559       0.817122145994892       0.717952076931788     
  0.545687230928579     
 Zone I=    2 J=1   K=1   T="FarWake"
 DATAPACKING=BLOCK
 VARLOCATION=([4]=CELLCENTERED)
  5.728988133803896E-002  5.728988133803896E-002
   19.9800373528166        19.9800373528166     
  4.079233857727708E-002  4.079233857727708E-002
  0.000000000000000E+000
