 Title = "Wing and Wake"
 VARIABLES = "X" "Y" "Z" "GAM"
 Zone I=    5 J=   14 K=1  T="Blade"
 DATAPACKING=BLOCK
 VARLOCATION=([4]=CELLCENTERED)
  -7.99619469809175       -7.74714602356881       -7.49809734904587     
  -7.24904867452294       -7.00000000000000       -7.99619469809175     
  -7.74714602356881       -7.49809734904587       -7.24904867452294     
  -7.00000000000000       -7.99619469809175       -7.74714602356881     
  -7.49809734904587       -7.24904867452294       -7.00000000000000     
  -7.99619469809175       -7.74714602356881       -7.49809734904587     
  -7.24904867452294       -7.00000000000000       -7.99619469809175     
  -7.74714602356881       -7.49809734904587       -7.24904867452294     
  -7.00000000000000       -7.99619469809175       -7.74714602356881     
  -7.49809734904587       -7.24904867452294       -7.00000000000000     
  -7.99619469809175       -7.74714602356881       -7.49809734904587     
  -7.24904867452294       -7.00000000000000       -7.99619469809175     
  -7.74714602356881       -7.49809734904587       -7.24904867452294     
  -7.00000000000000       -7.99619469809175       -7.74714602356881     
  -7.49809734904587       -7.24904867452294       -7.00000000000000     
  -7.99619469809175       -7.74714602356881       -7.49809734904587     
  -7.24904867452294       -7.00000000000000       -7.99619469809175     
  -7.74714602356881       -7.49809734904587       -7.24904867452294     
  -7.00000000000000       -7.99619469809175       -7.74714602356881     
  -7.49809734904587       -7.24904867452294       -7.00000000000000     
  -7.99619469809175       -7.74714602356881       -7.49809734904587     
  -7.24904867452294       -7.00000000000000       -7.99619469809175     
  -7.74714602356881       -7.49809734904587       -7.24904867452294     
  -7.00000000000000     
  0.000000000000000E+000  0.000000000000000E+000  0.000000000000000E+000
  0.000000000000000E+000  0.000000000000000E+000  0.290581825739480     
  0.290581825739480       0.290581825739480       0.290581825739480     
  0.290581825739480        1.14543974346790        1.14543974346790     
   1.14543974346790        1.14543974346790        1.14543974346790     
   2.51489251828899        2.51489251828899        2.51489251828899     
   2.51489251828899        2.51489251828899        4.31935253268844     
   4.31935253268844        4.31935253268844        4.31935253268844     
   4.31935253268844        6.45395112957464        6.45395112957464     
   6.45395112957464        6.45395112957464        6.45395112957464     
   8.79463319744677        8.79463319744677        8.79463319744677     
   8.79463319744677        8.79463319744677        11.2053668025532     
   11.2053668025532        11.2053668025532        11.2053668025532     
   11.2053668025532        13.5460488704254        13.5460488704254     
   13.5460488704254        13.5460488704254        13.5460488704254     
   15.6806474673116        15.6806474673116        15.6806474673116     
   15.6806474673116        15.6806474673116        17.4851074817110     
   17.4851074817110        17.4851074817110        17.4851074817110     
   17.4851074817110        18.8545602565321        18.8545602565321     
   18.8545602565321        18.8545602565321        18.8545602565321     
   19.7094181742605        19.7094181742605        19.7094181742605     
   19.7094181742605        19.7094181742605        20.0000000000000     
   20.0000000000000        20.0000000000000        20.0000000000000     
   20.0000000000000     
  8.715574274765817E-002  6.536680706074363E-002  4.357787137382908E-002
  2.178893568691454E-002  0.000000000000000E+000  8.715574274765817E-002
  6.536680706074363E-002  4.357787137382908E-002  2.178893568691454E-002
  0.000000000000000E+000  8.715574274765817E-002  6.536680706074363E-002
  4.357787137382908E-002  2.178893568691454E-002  0.000000000000000E+000
  8.715574274765817E-002  6.536680706074363E-002  4.357787137382908E-002
  2.178893568691454E-002  0.000000000000000E+000  8.715574274765817E-002
  6.536680706074363E-002  4.357787137382908E-002  2.178893568691454E-002
  0.000000000000000E+000  8.715574274765817E-002  6.536680706074363E-002
  4.357787137382908E-002  2.178893568691454E-002  0.000000000000000E+000
  8.715574274765817E-002  6.536680706074363E-002  4.357787137382908E-002
  2.178893568691454E-002  0.000000000000000E+000  8.715574274765817E-002
  6.536680706074363E-002  4.357787137382908E-002  2.178893568691454E-002
  0.000000000000000E+000  8.715574274765817E-002  6.536680706074363E-002
  4.357787137382908E-002  2.178893568691454E-002  0.000000000000000E+000
  8.715574274765817E-002  6.536680706074363E-002  4.357787137382908E-002
  2.178893568691454E-002  0.000000000000000E+000  8.715574274765817E-002
  6.536680706074363E-002  4.357787137382908E-002  2.178893568691454E-002
  0.000000000000000E+000  8.715574274765817E-002  6.536680706074363E-002
  4.357787137382908E-002  2.178893568691454E-002  0.000000000000000E+000
  8.715574274765817E-002  6.536680706074363E-002  4.357787137382908E-002
  2.178893568691454E-002  0.000000000000000E+000  8.715574274765817E-002
  6.536680706074363E-002  4.357787137382908E-002  2.178893568691454E-002
  0.000000000000000E+000
  0.729195589615910       0.980567028401938        1.11650322076501     
   1.18798952385549        1.05086148940979        1.47556845863465     
   1.71686686057947        1.84417136852193        1.21827920536331     
   1.73032574094467        2.03113574223095        2.19362235960103     
   1.29326660666162        1.84145449717556        2.16596897523447     
   2.34222333969926        1.32484784991661        1.88748442007096     
   2.22104666621150        2.40226449764376        1.33733824487665     
   1.90550092405772        2.24239983157705        2.42534337132220     
   1.34064176674599        1.91024142477640        2.24799073982242     
   2.43135827692063        1.33733824487665        1.90550092405772     
   2.24239983157705        2.42534337132221        1.32484784991661     
   1.88748442007096        2.22104666621150        2.40226449764377     
   1.29326660666162        1.84145449717556        2.16596897523447     
   2.34222333969926        1.21827920536331        1.73032574094467     
   2.03113574223095        2.19362235960104        1.05086148940979     
   1.47556845863465        1.71686686057947        1.84417136852193     
  0.729195589615910       0.980567028401938        1.11650322076501     
   1.18798952385549     
 Zone I=   29 J=   14 K=1  T="NearWake"
 DATAPACKING=BLOCK
 VARLOCATION=([4]=CELLCENTERED)
  -6.92528539764312       -6.67528539764312       -6.42472121561184     
  -6.17417672228334       -5.92363017545554       -5.67307561007496     
  -5.42256385410225       -5.17207205081772       -4.92163059298315     
  -4.67123627215381       -4.42090882281098       -4.17065842941012     
  -3.92050564034840       -3.67047175525398       -3.42058586377652     
  -3.17088335404410       -2.92140968136003       -2.67222225451380     
  -2.42339438158288       -2.17501914817025       -1.92721371924027     
  -1.68012144159895       -1.43390620874640       -1.18872250443761     
 -0.944624903021383      -0.701235035533739      -0.457173261965038     
 -0.193106605719542       1.645496673830811E-002  -6.92528539764312     
  -6.67528539764312       -6.42561049373381       -6.17534429727783     
  -5.92518777645473       -5.67488391313645       -5.42460656522089     
  -5.17429062570344       -4.92398973946721       -4.67368987116561     
  -4.42341218630757       -4.17315836548656       -3.92294130888878     
  -3.67276881672801       -3.42265339765392       -3.17260725583861     
  -2.92264562625524       -2.67278474795346       -2.42304187919437     
  -2.17343115892103       -1.92395482749746       -1.67457899386219     
  -1.42517159313216       -1.17534232335527      -0.924049351985815     
 -0.668586291910209      -0.398866509371507      -5.385885967583500E-002
  1.322772282553016E-002  -6.92528539764312       -6.67528539764312     
  -6.42630598429381       -6.17663822228012       -5.92715162319613     
  -5.67746826420681       -5.42781004118212       -5.17808440509749     
  -4.92835656421633       -4.67860456132755       -4.42885094793892     
  -4.17909256313251       -3.92933932865709       -3.67959288156056     
  -3.42985815912015       -3.18013592263564       -2.93042507574408     
  -2.68071759914937       -2.43099435807831       -2.18121369960673     
  -1.93129049925544       -1.68105072316096       -1.43013068618431     
  -1.17773105348658      -0.921958067769076      -0.657765334810318     
 -0.369006989160321       4.064498412306949E-002 -3.591212617541752E-002
  -6.92528539764312       -6.67528539764312       -6.42631328427434     
  -6.17664689814277       -5.92716355801418       -5.67748423962838     
  -5.42783132420081       -5.17810888162221       -4.92838192175684     
  -4.67862505381922       -4.42885920769020       -4.17907730289459     
  -3.92928561148053       -3.67948026599126       -3.42965980945669     
  -3.17981657332407       -2.92993909184411       -2.68000622054176     
  -2.42998257320088       -2.17980635660559       -1.92936772648425     
  -1.67846208114166       -1.42668631380480       -1.17318299930149     
 -0.915948764886656      -0.649652260482242      -0.357166792803716     
  5.546335177711215E-002 -5.023190978408716E-002  -6.92528539764312     
  -6.67528539764312       -6.42630654497304       -6.17662391772074     
  -5.92712178313010       -5.67741933420241       -5.42774233853401     
  -5.17799261430708       -4.92823663045813       -4.67844726777301     
  -4.42864567828784       -4.17882352195318       -3.92898669659511     
  -3.67913039704347       -3.42925267698880       -3.17934531380683     
  -2.92939667872694       -2.67938573699607       -2.42927769904546     
  -2.17901178331756       -1.92847941701622       -1.67747684039079     
  -1.42559968151930       -1.17198313046381      -0.914600477270974     
 -0.648048996702565      -0.354923702849878       5.767838402446011E-002
 -5.458731127777692E-002  -6.92528539764312       -6.67528539764312     
  -6.42630235971790       -6.17660987211413       -5.92709728847213     
  -5.67738122279844       -5.42769054197061       -5.17792541372335     
  -4.92815384496109       -4.67834799096918       -4.42852971130224     
  -4.17869046697535       -3.92883654579996       -3.67896322470015     
  -3.42906888184464       -3.17914553451263       -2.92918188433709     
  -2.67915717946573       -2.42903687748397       -2.17876029092888     
  -1.92821867238695       -1.67720758267340       -1.42532105568781     
  -1.17169090953081      -0.914283141286708      -0.647676109808262     
 -0.354394820641766       5.813757374781695E-002 -5.574322865661534E-002
  -6.92528539764312       -6.67528539764312       -6.42630062787223     
  -6.17660406767334       -5.92708755081586       -5.67736623698167     
  -5.42767056215004       -5.17789988523899       -4.92812297337278     
  -4.67831168062673       -4.42848821239214       -4.17864396687504     
  -3.92878540304900       -3.67890782088859       -3.42900969253919     
  -3.17908306808829       -2.92911668637030       -2.67908978798424     
  -2.42896778845673       -2.17868989467589       -1.92814717002885     
  -1.67713485428260       -1.42524644114807       -1.17161278839054     
 -0.914197977512097      -0.647575502273639      -0.354252255149079     
  5.826300276034400E-002 -5.605012041383850E-002  -6.92528539764312     
  -6.67528539764312       -6.42630062787223       -6.17660406767334     
  -5.92708755081586       -5.67736623698167       -5.42767056215004     
  -5.17789988523899       -4.92812297337278       -4.67831168062673     
  -4.42848821239214       -4.17864396687504       -3.92878540304900     
  -3.67890782088859       -3.42900969253919       -3.17908306808829     
  -2.92911668637030       -2.67908978798424       -2.42896778845673     
  -2.17868989467589       -1.92814717002885       -1.67713485428260     
  -1.42524644114807       -1.17161278839054      -0.914197977512097     
 -0.647575502273639      -0.354252255149079       5.826300276034380E-002
 -5.605012041383842E-002  -6.92528539764312       -6.67528539764312     
  -6.42630235971790       -6.17660987211413       -5.92709728847213     
  -5.67738122279844       -5.42769054197061       -5.17792541372335     
  -4.92815384496109       -4.67834799096918       -4.42852971130224     
  -4.17869046697535       -3.92883654579996       -3.67896322470015     
  -3.42906888184464       -3.17914553451263       -2.92918188433709     
  -2.67915717946573       -2.42903687748397       -2.17876029092888     
  -1.92821867238695       -1.67720758267340       -1.42532105568781     
  -1.17169090953081      -0.914283141286708      -0.647676109808261     
 -0.354394820641766       5.813757374781700E-002 -5.574322865661537E-002
  -6.92528539764312       -6.67528539764312       -6.42630654497304     
  -6.17662391772074       -5.92712178313010       -5.67741933420241     
  -5.42774233853401       -5.17799261430708       -4.92823663045813     
  -4.67844726777301       -4.42864567828784       -4.17882352195318     
  -3.92898669659511       -3.67913039704347       -3.42925267698880     
  -3.17934531380683       -2.92939667872694       -2.67938573699607     
  -2.42927769904546       -2.17901178331756       -1.92847941701622     
  -1.67747684039079       -1.42559968151930       -1.17198313046381     
 -0.914600477270974      -0.648048996702565      -0.354923702849878     
  5.767838402445998E-002 -5.458731127777696E-002  -6.92528539764312     
  -6.67528539764312       -6.42631328427434       -6.17664689814277     
  -5.92716355801418       -5.67748423962838       -5.42783132420081     
  -5.17810888162221       -4.92838192175684       -4.67862505381922     
  -4.42885920769020       -4.17907730289459       -3.92928561148053     
  -3.67948026599126       -3.42965980945669       -3.17981657332407     
  -2.92993909184411       -2.68000622054176       -2.42998257320088     
  -2.17980635660559       -1.92936772648425       -1.67846208114166     
  -1.42668631380480       -1.17318299930149      -0.915948764886656     
 -0.649652260482242      -0.357166792803716       5.546335177711175E-002
 -5.023190978408743E-002  -6.92528539764312       -6.67528539764312     
  -6.42630598429381       -6.17663822228012       -5.92715162319613     
  -5.67746826420681       -5.42781004118212       -5.17808440509749     
  -4.92835656421633       -4.67860456132755       -4.42885094793892     
  -4.17909256313251       -3.92933932865709       -3.67959288156056     
  -3.42985815912015       -3.18013592263564       -2.93042507574408     
  -2.68071759914937       -2.43099435807831       -2.18121369960673     
  -1.93129049925544       -1.68105072316096       -1.43013068618431     
  -1.17773105348658      -0.921958067769076      -0.657765334810318     
 -0.369006989160321       4.064498412306936E-002 -3.591212617541792E-002
  -6.92528539764312       -6.67528539764312       -6.42561049373381     
  -6.17534429727783       -5.92518777645473       -5.67488391313645     
  -5.42460656522089       -5.17429062570344       -4.92398973946721     
  -4.67368987116561       -4.42341218630757       -4.17315836548656     
  -3.92294130888877       -3.67276881672801       -3.42265339765392     
  -3.17260725583861       -2.92264562625524       -2.67278474795346     
  -2.42304187919437       -2.17343115892103       -1.92395482749747     
  -1.67457899386219       -1.42517159313216       -1.17534232335527     
 -0.924049351985814      -0.668586291910207      -0.398866509371507     
 -5.385885967583602E-002  1.322772282552885E-002  -6.92528539764312     
  -6.67528539764312       -6.42472121561184       -6.17417672228334     
  -5.92363017545554       -5.67307561007496       -5.42256385410225     
  -5.17207205081772       -4.92163059298315       -4.67123627215381     
  -4.42090882281098       -4.17065842941012       -3.92050564034840     
  -3.67047175525398       -3.42058586377651       -3.17088335404410     
  -2.92140968136003       -2.67222225451380       -2.42339438158288     
  -2.17501914817026       -1.92721371924027       -1.68012144159895     
  -1.43390620874640       -1.18872250443761      -0.944624903021382     
 -0.701235035533738      -0.457173261965039      -0.193106605719543     
  1.645496673831025E-002
  0.000000000000000E+000  0.000000000000000E+000  5.981971582548135E-004
  2.292793999733429E-003  4.306199812994259E-003  7.204643839459189E-003
  1.061426140110903E-002  1.469365043751011E-002  1.928290279590913E-002
  2.437943268556766E-002  2.988427133310928E-002  3.573436804807807E-002
  4.183484976220507E-002  4.809214009220822E-002  5.439662522162051E-002
  6.062932158055809E-002  6.665629064915039E-002  7.232758336400567E-002
  7.747248926518137E-002  8.189447254743727E-002  8.536376815661431E-002
  8.761034341342359E-002  8.832034433918616E-002  8.713465768806554E-002
  8.395253087758685E-002  7.982791639772591E-002  7.891599128907491E-002
  4.668666320499931E-002  6.421832817206295E-002  0.290581825739480     
  0.290581825739480       0.291240642634468       0.287759727652289     
  0.285146350659939       0.279776353526231       0.274013945678222     
  0.266658457927511       0.258489939507634       0.249256011574382     
  0.239254464993085       0.228521925412255       0.217242850757737     
  0.205549401144519       0.193618485833561       0.181627687243554     
  0.169777936812579       0.158289638650440       0.147414469202480     
  0.137448743932098       0.128758310655465       0.121823567602394     
  0.117320600180198       0.116273255048197       0.120459535206973     
  0.133425226709532       0.165117278871386       0.217592196541471     
  0.323291608909188        1.14543974346790        1.14543974346790     
   1.14569377017679        1.14541100164687        1.14554370546332     
   1.14534384024135        1.14525588592611        1.14503842878726     
   1.14482181389408        1.14453805276223        1.14422500289671     
   1.14386649251048        1.14347630830853        1.14305506681357     
   1.14261338027022        1.14216092045958        1.14171337491983     
   1.14129065921895        1.14092029125303        1.14063925643890     
   1.14049767499003        1.14056317021767        1.14092724370698     
   1.14171597098412        1.14310905025846        1.14539203337131     
   1.14906723034545        1.15036404331190        1.16341125389278     
   2.51489251828899        2.51489251828899        2.51499002738462     
   2.51490570495593        2.51498074225900        2.51495078040557     
   2.51497110050567        2.51496048059475        2.51496256859601     
   2.51495561121712        2.51495210506288        2.51494732478393     
   2.51494578037870        2.51494771125531        2.51495601775743     
   2.51497274128687        2.51500078921028        2.51504289559470     
   2.51510190083463        2.51518044097082        2.51528084832337     
   2.51540501432095        2.51555473811074        2.51573373429285     
   2.51595311587019        2.51623349642365        2.51663373042303     
   2.51590581294989        2.51954154920481        4.31935253268844     
   4.31935253268844        4.31939387766476        4.31936571874422     
   4.31939965793230        4.31939542795125        4.31941131055216     
   4.31941760944042        4.31943010781600        4.31944103640530     
   4.31945461202498        4.31946897340346        4.31948527399919     
   4.31950309230304        4.31952271088565        4.31954394903532     
   4.31956670384310        4.31959062863803        4.31961524406888     
   4.31963991240365        4.31966393758924        4.31968668261407     
   4.31970779687880        4.31972775627382        4.31974896392619     
   4.31977544220866        4.31981865917486        4.31953992957351     
   4.32061039235895        6.45395112957464        6.45395112957464     
   6.45396867785315        6.45395950480198        6.45397395522021     
   6.45397425086084        6.45398204627879        6.45398642269435     
   6.45399304141859        6.45399906241186        6.45400588651609     
   6.45401276858262        6.45401999060507        6.45402728920354     
   6.45403463403791        6.45404184644584        6.45404878755045     
   6.45405526516141        6.45406107910614        6.45406602193736     
   6.45406991942556        6.45407266810134        6.45407429295521     
   6.45407507954775        6.45407584876008        6.45407781323336     
   6.45408395188485        6.45399175745783        6.45435519793959     
   8.79463319744677        8.79463319744677        8.79463808489000     
   8.79463592600398        8.79463990309607        8.79464021399508     
   8.79464242627970        8.79464374340538        8.79464559338802     
   8.79464725254702        8.79464906247177        8.79465083004376     
   8.79465261733118        8.79465435402426        8.79465602890776     
   8.79465759771004        8.79465902911177        8.79466028278875     
   8.79466132023919        8.79466210469345        8.79466261036947     
   8.79466283035546        8.79466278827614        8.79466256647359     
   8.79466236710079        8.79466247762169        8.79466357005710     
   8.79464169363701        8.79473275362925        11.2053668025532     
   11.2053668025532        11.2053619151100        11.2053640739960     
   11.2053600969039        11.2053597860049        11.2053575737203     
   11.2053562565946        11.2053544066120        11.2053527474530     
   11.2053509375282        11.2053491699562        11.2053473826688     
   11.2053456459757        11.2053439710922        11.2053424022900     
   11.2053409708882        11.2053397172112        11.2053386797608     
   11.2053378953065        11.2053373896305        11.2053371696445     
   11.2053372117239        11.2053374335264        11.2053376328992     
   11.2053375223783        11.2053364299429        11.2053583063630     
   11.2052672463707        13.5460488704254        13.5460488704254     
   13.5460313221468        13.5460404951980        13.5460260447798     
   13.5460257491392        13.5460179537212        13.5460135773057     
   13.5460069585814        13.5460009375881        13.5459941134839     
   13.5459872314174        13.5459800093949        13.5459727107964     
   13.5459653659621        13.5459581535542        13.5459512124496     
   13.5459447348386        13.5459389208939        13.5459339780626     
   13.5459300805744        13.5459273318987        13.5459257070448     
   13.5459249204523        13.5459241512399        13.5459221867666     
   13.5459160481151        13.5460082425422        13.5456448020604     
   15.6806474673116        15.6806474673116        15.6806061223352     
   15.6806342812558        15.6806003420677        15.6806045720487     
   15.6805886894478        15.6805823905596        15.6805698921840     
   15.6805589635947        15.6805453879750        15.6805310265965     
   15.6805147260008        15.6804969076970        15.6804772891143     
   15.6804560509647        15.6804332961569        15.6804093713620     
   15.6803847559311        15.6803600875963        15.6803360624108     
   15.6803133173859        15.6802922031212        15.6802722437262     
   15.6802510360738        15.6802245577913        15.6801813408251     
   15.6804600704265        15.6793896076411        17.4851074817110     
   17.4851074817110        17.4850099726154        17.4850942950441     
   17.4850192577410        17.4850492195944        17.4850288994943     
   17.4850395194052        17.4850374314040        17.4850443887829     
   17.4850478949371        17.4850526752161        17.4850542196213     
   17.4850522887447        17.4850439822426        17.4850272587131     
   17.4849992107897        17.4849571044053        17.4848980991654     
   17.4848195590292        17.4847191516766        17.4845949856790     
   17.4844452618892        17.4842662657072        17.4840468841298     
   17.4837665035763        17.4833662695770        17.4840941870501     
   17.4804584507952        18.8545602565321        18.8545602565321     
   18.8543062298232        18.8545889983531        18.8544562945367     
   18.8546561597586        18.8547441140739        18.8549615712127     
   18.8551781861059        18.8554619472378        18.8557749971033     
   18.8561335074895        18.8565236916915        18.8569449331864     
   18.8573866197298        18.8578390795404        18.8582866250802     
   18.8587093407810        18.8590797087470        18.8593607435611     
   18.8595023250100        18.8594368297823        18.8590727562930     
   18.8582840290159        18.8568909497415        18.8546079666287     
   18.8509327696545        18.8496359566881        18.8365887461072     
   19.7094181742605        19.7094181742605        19.7087593573655     
   19.7122402723477        19.7148536493401        19.7202236464738     
   19.7259860543218        19.7333415420725        19.7415100604924     
   19.7507439884256        19.7607455350069        19.7714780745877     
   19.7827571492423        19.7944505988555        19.8063815141664     
   19.8183723127564        19.8302220631874        19.8417103613496     
   19.8525855307975        19.8625512560679        19.8712416893445     
   19.8781764323976        19.8826793998198        19.8837267449518     
   19.8795404647930        19.8665747732905        19.8348827211286     
   19.7824078034585        19.6767083910908        20.0000000000000     
   20.0000000000000        19.9994018028417        19.9977072060003     
   19.9956938001870        19.9927953561605        19.9893857385989     
   19.9853063495625        19.9807170972041        19.9756205673144     
   19.9701157286669        19.9642656319519        19.9581651502378     
   19.9519078599078        19.9456033747784        19.9393706784194     
   19.9333437093508        19.9276724166360        19.9225275107348     
   19.9181055274526        19.9146362318434        19.9123896565866     
   19.9116796556608        19.9128653423119        19.9160474691224     
   19.9201720836023        19.9210840087109        19.9533133367950     
   19.9357816718279     
 -6.536680706074363E-003 -6.536680706074363E-003  1.839338492203749E-003
  6.847015705228803E-003  1.389427915183910E-002  1.993913892995421E-002
  2.628585281590129E-002  3.207867599129088E-002  3.759124432222986E-002
  4.254026921257004E-002  4.694270131157207E-002  5.067499906681867E-002
  5.369665525500703E-002  5.593580033538661E-002  5.734637616803336E-002
  5.787871807796477E-002  5.749330050526484E-002  5.615239306023339E-002
  5.382159633329762E-002  5.046467579707631E-002  4.603885776292090E-002
  4.048570471775125E-002  3.372121952189999E-002  2.562988499996714E-002
  1.600748176292305E-002  4.583841630462539E-003 -1.661128730977920E-002
 -3.604024675302814E-002  7.594199345335607E-002 -6.536680706074363E-003
 -6.536680706074363E-003 -3.622083291921739E-002 -4.930061058363520E-002
 -6.959736649623975E-002 -8.504481100245395E-002 -0.101906959881414     
 -0.116883067689727      -0.131670643534731      -0.145324182430817     
 -0.158298703850492      -0.170324761522579      -0.181533316774980     
 -0.191871447914184      -0.201415307912998      -0.210213375828119     
 -0.218375246824228      -0.226032981911093      -0.233369802004790     
 -0.240613893623908      -0.248050308095991      -0.256016612131297     
 -0.264875521078359      -0.274923484840253      -0.286092060412381     
 -0.296606608646662      -0.302728674527979      -0.256477513341891     
 -3.234360576304177E-002 -6.536680706074363E-003 -6.536680706074363E-003
 -2.730365169474280E-002 -3.550168053361294E-002 -4.869055490854564E-002
 -5.852924751466807E-002 -6.945413633570104E-002 -7.941355096844299E-002
 -8.955510886251010E-002 -9.939438530746339E-002 -0.109247358662885     
 -0.119018654974259      -0.128813730304587      -0.138635365777593     
 -0.148538546812939      -0.158555068482754      -0.168733499794515     
 -0.179121147024575      -0.189774748646516      -0.200755369866156     
 -0.212127335500537      -0.223944075329678      -0.236208617281628     
 -0.248753106000428      -0.260851630665104      -0.269888527094035     
 -0.265527436940491      -0.169105006033809       4.905228632066733E-002
 -6.536680706074363E-003 -6.536680706074363E-003 -2.560287019548695E-002
 -3.244789043500823E-002 -4.380635267235646E-002 -5.185438475826879E-002
 -6.084687048975908E-002 -6.887766173170247E-002 -7.706350947098706E-002
 -8.496954705770253E-002 -9.291570017603284E-002 -0.100830267534806     
 -0.108830693946892      -0.116936950761133      -0.125218815252583     
 -0.133724905608001      -0.142520752856300      -0.151671485665750     
 -0.161251138444021      -0.171335770772408      -0.181998298496911     
 -0.193286747503295      -0.205171059518258      -0.217398179643331     
 -0.229063296614771      -0.237206607154293      -0.230462015993901     
 -0.117793288854318       8.317888180420312E-002 -6.536680706074363E-003
 -6.536680706074363E-003 -2.500486172873547E-002 -3.133874950223432E-002
 -4.200594852418853E-002 -4.935376369205081E-002 -5.758212400436048E-002
 -6.483387188320285E-002 -7.221993653544495E-002 -7.932371984904503E-002
 -8.646983519547384E-002 -9.359645890831075E-002 -0.100827295041595     
 -0.108189318294185      -0.115757972039749      -0.123587065920572     
 -0.131746205012961      -0.140303405963194      -0.149333982012402     
 -0.158913340024848      -0.169111511460948      -0.179971299267337     
 -0.191455398001966      -0.203302417887568      -0.214599585657100     
 -0.222380342995212      -0.215196009385185      -9.911082596390482E-002
  9.731454636149699E-002 -6.536680706074363E-003 -6.536680706074363E-003