 Title = "Wing and Wake"
 VARIABLES = "X" "Y" "Z" "GAM"
 Zone I=    5 J=   14 K=1  T="Blade"
 DATAPACKING=BLOCK
 VARLOCATION=([4]=CELLCENTERED)
  -12.4961946980917       -12.2471460235688       -11.9980973490459     
  -11.7490486745229       -11.5000000000000       -12.4961946980917     
  -12.2471460235688       -11.9980973490459       -11.7490486745229     
  -11.5000000000000       -12.4961946980917       -12.2471460235688     
  -11.9980973490459       -11.7490486745229       -11.5000000000000     
  -12.4961946980917       -12.2471460235688       -11.9980973490459     
  -11.7490486745229       -11.5000000000000       -12.4961946980917     
  -12.2471460235688       -11.9980973490459       -11.7490486745229     
  -11.5000000000000       -12.4961946980917       -12.2471460235688     
  -11.9980973490459       -11.7490486745229       -11.5000000000000     
  -12.4961946980917       -12.2471460235688       -11.9980973490459     
  -11.7490486745229       -11.5000000000000       -12.4961946980917     
  -12.2471460235688       -11.9980973490459       -11.7490486745229     
  -11.5000000000000       -12.4961946980917       -12.2471460235688     
  -11.9980973490459       -11.7490486745229       -11.5000000000000     
  -12.4961946980917       -12.2471460235688       -11.9980973490459     
  -11.7490486745229       -11.5000000000000       -12.4961946980917     
  -12.2471460235688       -11.9980973490459       -11.7490486745229     
  -11.5000000000000       -12.4961946980917       -12.2471460235688     
  -11.9980973490459       -11.7490486745229       -11.5000000000000     
  -12.4961946980917       -12.2471460235688       -11.9980973490459     
  -11.7490486745229       -11.5000000000000       -12.4961946980917     
  -12.2471460235688       -11.9980973490459       -11.7490486745229     
  -11.5000000000000     
  0.000000000000000E+000  0.000000000000000E+000  0.000000000000000E+000
  0.000000000000000E+000  0.000000000000000E+000  0.290581825739480     
  0.290581825739480       0.290581825739480       0.290581825739480     
  0.290581825739480        1.14543974346790        1.14543974346790     
   1.14543974346790        1.14543974346790        1.14543974346790     
   2.51489251828899        2.51489251828899        2.51489251828899     
   2.51489251828899        2.51489251828899        4.31935253268844     
   4.31935253268844        4.31935253268844        4.31935253268844     
   4.31935253268844        6.45395112957464        6.45395112957464     
   6.45395112957464        6.45395112957464        6.45395112957464     
   8.79463319744677        8.79463319744677        8.79463319744677     
   8.79463319744677        8.79463319744677        11.2053668025532     
   11.2053668025532        11.2053668025532        11.2053668025532     
   11.2053668025532        13.5460488704254        13.5460488704254     
   13.5460488704254        13.5460488704254        13.5460488704254     
   15.6806474673116        15.6806474673116        15.6806474673116     
   15.6806474673116        15.6806474673116        17.4851074817110     
   17.4851074817110        17.4851074817110        17.4851074817110     
   17.4851074817110        18.8545602565321        18.8545602565321     
   18.8545602565321        18.8545602565321        18.8545602565321     
   19.7094181742605        19.7094181742605        19.7094181742605     
   19.7094181742605        19.7094181742605        20.0000000000000     
   20.0000000000000        20.0000000000000        20.0000000000000     
   20.0000000000000     
  8.715574274765817E-002  6.536680706074363E-002  4.357787137382908E-002
  2.178893568691454E-002  0.000000000000000E+000  8.715574274765817E-002
  6.536680706074363E-002  4.357787137382908E-002  2.178893568691454E-002
  0.000000000000000E+000  8.715574274765817E-002  6.536680706074363E-002
  4.357787137382908E-002  2.178893568691454E-002  0.000000000000000E+000
  8.715574274765817E-002  6.536680706074363E-002  4.357787137382908E-002
  2.178893568691454E-002  0.000000000000000E+000  8.715574274765817E-002
  6.536680706074363E-002  4.357787137382908E-002  2.178893568691454E-002
  0.000000000000000E+000  8.715574274765817E-002  6.536680706074363E-002
  4.357787137382908E-002  2.178893568691454E-002  0.000000000000000E+000
  8.715574274765817E-002  6.536680706074363E-002  4.357787137382908E-002
  2.178893568691454E-002  0.000000000000000E+000  8.715574274765817E-002
  6.536680706074363E-002  4.357787137382908E-002  2.178893568691454E-002
  0.000000000000000E+000  8.715574274765817E-002  6.536680706074363E-002
  4.357787137382908E-002  2.178893568691454E-002  0.000000000000000E+000
  8.715574274765817E-002  6.536680706074363E-002  4.357787137382908E-002
  2.178893568691454E-002  0.000000000000000E+000  8.715574274765817E-002
  6.536680706074363E-002  4.357787137382908E-002  2.178893568691454E-002
  0.000000000000000E+000  8.715574274765817E-002  6.536680706074363E-002
  4.357787137382908E-002  2.178893568691454E-002  0.000000000000000E+000
  8.715574274765817E-002  6.536680706074363E-002  4.357787137382908E-002
  2.178893568691454E-002  0.000000000000000E+000  8.715574274765817E-002
  6.536680706074363E-002  4.357787137382908E-002  2.178893568691454E-002
  0.000000000000000E+000
  0.754281110124675        1.01573928901968        1.15814310230001     
   1.23396627223136        1.08945803772154        1.53162431615916     
   1.78437380302362        1.91925232418204        1.26872760677473     
   1.80425123854860        2.12079109015215        2.29380625042359     
   1.35444914255902        1.93131062786040        2.27515837267188     
   2.46442239873504        1.39478830337109        1.99024588292614     
   2.34595472511596        2.54207212236488        1.41274494623122     
   2.01627197923946        2.37700722565888        2.57595413344710     
   1.41768954007029        2.02340663958976        2.38548734630182     
   2.58518180953030        1.41229234296750        2.01559991895011     
   2.37619083792644        2.57505848727710        1.39429719348836     
   1.98949788527020        2.34502452421371        2.54103006260899     
   1.35445969748851        1.93127285417718        2.27505197073423     
   2.46424593782538        1.26944369328706        1.80522606427336     
   2.12187811386045        2.29490593383937        1.09057737486756     
   1.53316510236365        1.78612297867284        1.92106506188158     
  0.755210272113113        1.01696047540242        1.15950724814066     
   1.23538242017312     
 Zone I=   31 J=   14 K=1  T="NearWake"
 DATAPACKING=BLOCK
 VARLOCATION=([4]=CELLCENTERED)
  -11.4252853976431       -11.1752853976431       -10.9249727046391     
  -10.6744319736735       -10.4238207822696       -10.1731998034311     
  -9.92257554053761       -9.67198381131444       -9.42136663797321     
  -9.17086043205595       -8.92022036023789       -8.66989735021536     
  -8.41911801584055       -8.16922620670920       -7.91806100264729     
  -7.66865329843233       -7.41762580124471       -7.16397540038062     
  -6.91606775363639       -6.66509210104024       -6.41497853676231     
  -6.16473474162809       -5.91450587647904       -5.66442645206634     
  -5.41439491174400       -5.16450284476246       -4.91472295286143     
  -4.66510446755975       -4.41565844964039       -4.16642152856927     
  -3.91739830110689       -11.4252853976431       -11.1752853976431     
  -10.9255021513805       -10.6753599559345       -10.4250625253655     
  -10.1746870817409       -9.92426221775924       -9.67380977438429     
  -9.42334059231378       -9.17283616834581       -8.92242753401916     
  -8.67171208098257       -8.42174630690548       -8.17027495151789     
  -7.92124579581376       -7.66870855852009       -7.41978148219052     
  -7.16717724870749       -6.91823215415309       -6.66770010799546     
  -6.41725351787475       -6.16694208119774       -5.91652527947299     
  -5.66619932384510       -5.41586093292196       -5.16558454809048     
  -4.91533822839656       -4.66515206224285       -4.41502896531519     
  -4.16499780582972       -3.91510270573601       -11.4252853976431     
  -11.1752853976431       -10.9259405762594       -10.6764508302124     
  -10.4268597220648       -10.1771952260435       -9.92747374758717     
  -9.67771038845773       -9.42791015061532       -9.17808483413812     
  -8.92823480062224       -8.67836221092927       -8.42849072233722     
  -8.17855129090495       -7.92872501507453       -7.67865535535140     
  -7.42868056611394       -7.17924272039255       -6.92916906320788     
  -6.67927873946438       -6.42932665899967       -6.17942389845665     
  -5.92952837273693       -5.67965351070092       -5.42979838502518     
  -5.17996400815295       -4.93015297643836       -4.68036535015205     
  -4.43060164157467       -4.18085971775201       -3.93113486229315     
  -11.4252853976431       -11.1752853976431       -10.9259554969595     
  -10.6764776536216       -10.4268995757217       -10.1772515239784     
  -9.92755053287771       -9.67781194592474       -9.42804002013702     
  -9.17824691923448       -8.92843171886317       -8.67859826590406     
  -8.42876700794892       -8.17887770067803       -7.92908309597437     
  -7.67907982541681       -7.42915925045577       -7.17973097913558     
  -6.92972326072256       -6.67987823538791       -6.42999656299720     
  -6.18011858678190       -5.93025324258948       -5.68038477768407     
  -5.43052619522064       -5.18066833158172       -4.93081574313709     
  -4.68096391425703       -4.43111225807499       -4.18125600698123     
  -3.93138821733391       -11.4252853976431       -11.1752853976431     
  -10.9259579484087       -10.6764742895870       -10.4268861476603     
  -10.1772260178053       -9.92751229651597       -9.67776086584997     
  -9.42797683944121       -9.17817123079599       -8.92834592065164     
  -8.67849810678157       -8.42866131168386       -8.17874676337719     
  -7.92896139038369       -7.67889561358924       -7.42905522100907     
  -7.17951822955810       -6.92953613152871       -6.67964734721172     
  -6.42976159441314       -6.17985308017033       -5.92996646378766     
  -5.68006541423643       -5.43017319100414       -5.18027467754967     
  -4.93037715677313       -4.68047439581427       -4.43056643808740     
  -4.18064788978127       -3.93071147884220       -11.4252853976431     
  -11.1752853976431       -10.9259602052364       -10.6764740995306     
  -10.4268807916353       -10.1772138217226       -9.92749234186766     
  -9.67773232704598       -9.42793981043454       -9.17812435702332     
  -8.92829120299074       -8.67843060271453       -8.42858982344585     
  -8.17865259004511       -7.92887854972070       -7.67875477340649     
  -7.42898834697867       -7.17935922585789       -6.92940244561075     
  -6.67948237835749       -6.42959398863602       -6.17966663191434     
  -5.92976858785616       -5.67985110849590       -5.42994388304157     
  -5.18002852768681       -4.93011409796959       -4.68019361454625     
  -4.43026768862492       -4.18033085379771       -3.93037602353917     
  -11.4252853976431       -11.1752853976431       -10.9259614436856     
  -10.6764746304848       -10.4268794587097       -10.1772098605981     
  -9.92748530090769       -9.67772172341963       -9.42792565336857     
  -9.17810580140865       -8.92826929705926       -8.67840254172796     
  -8.42856036863478       -8.17861156897990       -7.92884438711139     
  -7.67868922718228       -7.42896333397971       -7.17928585393443     
  -6.92934335877517       -6.67940896248985       -6.42952024570552     
  -6.17958519255037       -5.92968310506615       -5.67975969899894     
  -5.42984753760414       -5.17992686695846       -4.93000751166364     
  -4.68008219973681       -4.43015177484600       -4.18021073497735     
  -3.93025204848549       -11.4252853976431       -11.1752853976431     
  -10.9259613697198       -10.6764745819546       -10.4268794875851     
  -10.1772099962101       -9.92748555170619       -9.67772209145296     
  -9.42792610380854       -9.17810632670863       -8.92826978352807     
  -8.67840301388781       -8.42856055773862       -8.17861159632939     
  -7.92884383993947       -7.67868798706479       -7.42896083977063     
  -7.17928316687070       -6.92934010298954       -6.67940518334871     
  -6.42951587073927       -6.17958017442842       -5.92967737883061     
  -5.67975319718485       -5.42984018593645       -5.17991858655394     
  -4.92999821900875       -4.68007180745946       -4.43014019190459     
  -4.18019786562494       -3.93023778310880       -11.4252853976431     
  -11.1752853976431       -10.9259600657276       -10.6764740426939     
  -10.4268809454780       -10.1772142672365       -9.92749311490997     
  -9.67773344975750       -9.42794122008838       -9.17812605332943     
  -8.92829293500664       -8.67843244231489       -8.42859113978126     
  -8.17865368389178       -7.92887840862840       -7.67875311573826     
  -7.42898363938878       -7.17935420472344       -6.92939614791904     
  -6.67947489047761       -6.42958511332632       -6.17965621660412     
  -5.92975642245691       -5.67983695546231       -5.42992746241491     
  -5.18000951683100       -4.93009212554748       -4.68016825638362     
  -4.43023846134227       -4.18029720284621       -3.93033727217468     
  -11.4252853976431       -11.1752853976431       -10.9259578915071     
  -10.6764743198074       -10.4268863786359       -10.1772265403596     
  -9.92751317333812       -9.67776215286939       -9.42797852460120     
  -9.17817335641529       -8.92834830953449       -8.67850086986060     
  -8.42866390966202       -8.17874954915432       -7.92896337641624     
  -7.67889664534857       -7.42905348908093       -7.17951674003031     
  -6.92953393814941       -6.67964460997730       -6.42975826035390     
  -6.17984914404336       -5.92996187596853       -5.68006009745058     
  -5.43016700249881       -5.18026737921644       -4.93036835919695     
  -4.68046348759152       -4.43055248327008       -4.18062947749123     
  -3.93068638996295       -11.4252853976431       -11.1752853976431     
  -10.9259556096931       -10.6764777493573       -10.4268996355277     
  -10.1772515645625       -9.92755058986923       -9.67781206302481     
  -9.42804024429030       -9.17824729847059       -8.92843227544387     
  -8.67859906025564       -8.42876795298860       -8.17887898669403     
  -7.92908430074254       -7.67908108499443       -7.42915959992760     
  -7.17973145100734       -6.92972354786981       -6.67987836698248     
  -6.42999679798709       -6.18011929188670       -5.93025499164332     
  -5.68038845982208       -5.43053312453260       -5.18068043391201     
  -4.93083575221240       -4.68099559544326       -4.43116051333526     
  -4.18132661377866       -3.93148633042544       -11.4252853976431     
  -11.1752853976431       -10.9259408394046       -10.6764509068850     
  -10.4268594075567       -10.1771944232693       -9.92747243865137     
  -9.67770858383484       -9.42790793942374       -9.17808223964225     
  -8.92823201939568       -8.67835919734343       -8.42848778442218     
  -8.17854841618320       -7.92872219870869       -7.67865293929594     
  -7.42867907844789       -7.17923964321245       -6.92916440539297     
  -6.67927147008953       -6.42931625219088       -6.17940951473773     
  -5.92950905736222       -5.67962813799957       -5.42976566429387     
  -5.17992260657398       -4.93010179565501       -4.68030433662566     
  -4.43053399713236       -4.18080042424318       -3.93117600433911     
  -11.4252853976431       -11.1752853976431       -10.9255013794783     
  -10.6753569697772       -10.4250570793034       -10.1746793407949     
  -9.92425250044294       -9.67379841999371       -9.42332807501580     
  -9.17282273064381       -8.92241372080850       -8.67169818809226     
  -8.42173218229918       -8.17026229865298       -7.92123150958713     
  -7.66869927902832       -7.41977657150608       -7.16717290503224     
  -6.91822543908135       -6.66769203411192       -6.41724305099470     
  -6.16692886232625       -5.91650907974462       -5.66617962082806     
  -5.41583745331796       -5.16555690027534       -4.91530626289925     
  -4.66511573680837       -4.41498852811858       -4.16495281278038     
  -3.91504659538546       -11.4252853976431       -11.1752853976431     
  -10.9249731319986       -10.6744331168435       -10.4238230081223     
  -10.1732034868598       -9.92258102140918       -9.67199141033525     
  -9.42137657228639       -9.17087295125945       -8.92023542032590     
  -8.66991507967466       -8.41913813485137       -8.16924761581153     
  -7.91808512507799       -7.66867297598516       -7.41764447468205     
  -7.16399305163720       -6.91608507868236       -6.66510834320029     
  -6.41499321914837       -6.16474682250861       -5.91451402523153     
  -5.66442848321002       -5.41438769941061       -5.16448162595739     
  -4.91468064790811       -4.66503046760091       -4.41553723955667     
  -4.16623157817623       -3.91711440738198     
  0.000000000000000E+000  0.000000000000000E+000  3.748401277493078E-004
  1.462586682622893E-003  3.309745990361128E-003  5.918373866441108E-003
  9.250840752919163E-003  1.332693091735728E-002  1.795555945100272E-002
  2.345335687054455E-002  2.891042290650724E-002  3.608641224537652E-002
  4.139307043059613E-002  5.085734144965327E-002  5.446417680728897E-002
  6.854425075605558E-002  6.757808244235293E-002  8.490778551182494E-002
  9.215206105178035E-002  0.101362564184206       0.110713336674232     
  0.119455759566367       0.128300091636311       0.136674284447078     
  0.144802929404806       0.152445550152526       0.159625803755114     
  0.166230859796080       0.172194472273911       0.177352972810448     
  0.181302026722807       0.290581825739480       0.290581825739480     
  0.290944939614493       0.289529074072954       0.286660604242571     
  0.282322600825247       0.276687341853556       0.269518980249665     
  0.261751538205461       0.251430164382589       0.243184641465659     
  0.227912090418077       0.223564857335454       0.196661516840719     
  0.208328744092150       0.155269195490467       0.191274120227955     
  0.134150801634191       0.134622035113610       0.114528441947470     
  9.752226233491862E-002  8.292627451238137E-002  6.637236695027562E-002
  5.175890623859757E-002  3.691410337373262E-002  2.319365280285507E-002
  1.003798772853625E-002 -2.109097909929851E-003 -1.328079642646214E-002
 -2.311457159237242E-002 -3.082168629738689E-002   1.14543974346790     
   1.14543974346790        1.14556685464460        1.14555052705626     
   1.14550939512743        1.14542252204072        1.14529977885321     
   1.14510141824666        1.14491396987882        1.14453384600030     
   1.14440881724209        1.14356451057681        1.14406425783979     
   1.14160486047200        1.14504969002136        1.13685081810866     
   1.14723727042011        1.13547817408151        1.14142003860226     
   1.13780137284497        1.13755590560339        1.13641326531077     
   1.13539894652358        1.13427449343213        1.13314718018045     
   1.13200101687424        1.13086468146761        1.12976121089147     
   1.12872820461034        1.12781450226523        1.12707667926281     
   2.51489251828899        2.51489251828899        2.51494186413011     
   2.51494412841336        2.51494778108011        2.51494655340207     
   2.51494424628618        2.51492792226614        2.51492670165000     
   2.51487285930933        2.51491721655949        2.51472887133195     
   2.51502268150697        2.51427970335059        2.51571799192776     
   2.51276215758127        2.51691560550168        2.51271704171983     
   2.51522479418353        2.51413638823813        2.51428688407633     
   2.51417279553245        2.51410267057623        2.51401322702845     
   2.51393048695162        2.51385076781671        2.51377706501734     
   2.51371052488429        2.51365221368781        2.51360243191219     
   2.51355784277401        4.31935253268844        4.31935253268844     
   4.31937338440513        4.31937451553687        4.31937686713633     
   4.31937819803471        4.31938008190687        4.31937771115715     
   4.31938224649119        4.31936823673608        4.31939278550613     
   4.31933080854261        4.31945390403737        4.31918198513737     
   4.31975329634357        4.31860572544359        4.32024902242631     
   4.31863996181307        4.31963808044351        4.31924734821003     
   4.31932341888677        4.31931051709869        4.31931152694541     
   4.31930814743747        4.31930683790518        4.31930707685119     
   4.31930876405646        4.31931192599454        4.31931612410539     
   4.31932072922222        4.31932351462259        6.45395112957464     
   6.45395112957464        6.45395941352473        6.45395933954552     
   6.45395979989453        6.45395992977703        6.45396034691432     
   6.45395921327041        6.45396082391871        6.45395551575973     
   6.45396504547119        6.45394185704336        6.45398935184849     
   6.45388627281828        6.45410630519585        6.45366439647455     
   6.45429743314346        6.45368644555052        6.45407058569085     
   6.45392816160383        6.45395956473995        6.45395979144872     
   6.45396443823078        6.45396786599696        6.45397178560981     
   6.45397616301311        6.45398071893009        6.45398537680714     
   6.45398981749792        6.45399367331487        6.45399598234862     
   8.79463319744677        8.79463319744677        8.79463442787772     
   8.79463336714450        8.79463240024667        8.79463129254713     
   8.79463020289605        8.79462864309487        8.79462773512208     
   8.79462495619393        8.79462597976766        8.79461842175998     
   8.79462921113508        8.79460071712407        8.79465648279901     
   8.79453928855962        8.79470275473547        8.79454468568596     
   8.79464450965047        8.79460841282506        8.79461662281157     
   8.79461728969684        8.79461889691669        8.79462032366023     
   8.79462183746549        8.79462350274479        8.79462520235184     
   8.79462692935517        8.79462859116781        8.79463010210369     
   8.79463124052770        11.2053668025532        11.2053668025532     
   11.2053623438643        11.2053602602936        11.2053578959532     
   11.2053554698014        11.2053528042081        11.2053503652533     
   11.2053470061712        11.2053452531217        11.2053393558490     
   11.2053418408863        11.2053254211471        11.2053485449509     
   11.2052859711206        11.2053990238368        11.2052262946045     
   11.2053880455448        11.2052851740022        11.2053216949480     
   11.2053122148351        11.2053113019607        11.2053090937550     
   11.2053074608576        11.2053057838453        11.2053042221443     
   11.2053028235377        11.2053016843599        11.2053009153569     
   11.2053006796888        11.2053013236613        13.5460488704254     
   13.5460488704254        13.5460373061632        13.5460339919261     
   13.5460299338190        13.5460259528376        13.5460213970466     
   13.5460180570942        13.5460115994934        13.5460116590274     
   13.5459963778949        13.5460134412414        13.5459589753413     
   13.5460552588026        13.5458262465944        13.5462625823628     
   13.5456163480691        13.5462315048974        13.5458419114376     
   13.5459836933519        13.5459489690389        13.5459467859360     
   13.5459394310378        13.5459337131753        13.5459273525109     
   13.5459207535997        13.5459140870417        13.5459076011789     
   13.5459016740561        13.5458968515968        13.5458943694892     
   15.6806474673116        15.6806474673116        15.6806232570627     
   15.6806184041203        15.6806121103057        15.6806065252600     
   15.6806000201809        15.6805973263110        15.6805872241310     
   15.6805950867985        15.6805636633301        15.6806181465719     
   15.6804862628323        15.6807494353771        15.6801660386292     
   15.6813059288767        15.6796430681160        15.6812577675872     
   15.6802497121384        15.6806383539523        15.6805551325605     
   15.6805630223756        15.6805550868890        15.6805518278630     
   15.6805455013305        15.6805372823223        15.6805268661921     
   15.6805144508708        15.6805004197582        15.6804856469577     
   15.6804728210829        17.4851074817110        17.4851074817110     
   17.4850546299567        17.4850483695533        17.4850405355054     
   17.4850372705348        17.4850347054399        17.4850456721288     
   17.4850409858956        17.4850882987645        17.4850366000384     
   17.4852168756294        17.4849135170873        17.4856467304521     
   17.4841955098746        17.4871414647296        17.4829659999577     
   17.4871727633959        17.4846519588845        17.4857398063311     
   17.4855810178981        17.4856912636121        17.4857550428784     
   17.4858400612230        17.4859181711804        17.4859949763588     
   17.4860672841644        17.4861353717877        17.4861989239899     
   17.4862588639660        17.4863187210797        18.8545602565321     
   18.8545602565321        18.8544293850333        18.8544415196175     
   18.8544784629125        18.8545609800250        18.8546791267089     
   18.8548725530999        18.8550546327673        18.8554288654241     
   18.8555472744323        18.8563842923664        18.8558761790885     
   18.8583261407040        18.8548726170180        18.8630567555752     
   18.8526559952659        18.8644227880512        18.8584727404517     
   18.8620956121114        18.8623391614511        18.8634872995623     
   18.8645080804165        18.8656470714937        18.8667979924458     
   18.8679856270502        18.8691936009726        18.8704286321635     
   18.8717265613973        18.8732916597398        18.8766303864428     
   19.7094181742605        19.7094181742605        19.7090510555375     
   19.7104654112609        19.7133345399433        19.7176742980541     
   19.7233113849306        19.7304809020044        19.7382476620453     
   19.7485668930725        19.7568064500196        19.7720719933714     
   19.7764080089549        19.8032950262376        19.7916254183047     
   19.8446420911678        19.8086563586941        19.8657645342917     
   19.8652977310467        19.8853890024451        19.9023899430047     
   19.9169850670152        19.9335315397697        19.9481390160985     
   19.9629718251578        19.9766781161176        19.9898105897376     
   20.0019245167929        20.0130446200838        20.0228032072790     
   20.0304154964539        20.0000000000000        20.0000000000000     
   19.9996211314947        19.9985267197533        19.9966720304475     
   19.9940549145040        19.9907131031583        19.9866267689932     
   19.9819872037178        19.9764773178109        19.9710073560460     
   19.9638165009367        19.9584925380536        19.9490108571770     
   19.9453779620370        19.9312675546409        19.9322086462570     
   19.9148510260025        19.9075764983639        19.8983291366049     
   19.8889350214693        19.8801392305090        19.8712295648677     
   19.8627741521833        19.8545427015151        19.8467670577434     
   19.8394103743198        19.8325640380790        19.8262621005536     
   19.8206217060070        19.8159924709437     
 -6.536680706074363E-003 -6.536680706074363E-003  1.074963409551958E-004
  7.412651907055716E-003  1.504628257238716E-002  2.279666047569309E-002
  3.050044205517806E-002  3.804291979251246E-002  4.530949605903924E-002
  5.220554716679225E-002  5.877822391660045E-002  6.449160835870214E-002
  7.086459783498777E-002  7.335323593856548E-002  8.278477656797141E-002
  7.855011623996667E-002  9.260645794079474E-002  8.755279826234701E-002
  9.080565293000517E-002  9.156898801836708E-002  9.054011113449063E-002
  8.963329426819654E-002  8.747416361553802E-002  8.486804852655250E-002
  8.139136770176190E-002  7.734202033184126E-002  7.262469638219268E-002
  6.738544414407202E-002  6.166621058211211E-002  5.566106212549539E-002
  4.981258487373684E-002 -6.536680706074363E-003 -6.536680706074363E-003
 -2.633710394917332E-002 -4.500933752877284E-002 -6.278530510218849E-002
 -7.973895108813162E-002 -9.584060367015136E-002 -0.111128773610598     
 -0.125415376134999      -0.138768725102521      -0.151566118479880     
 -0.161096797444574      -0.175837522452147      -0.175112077009289     
 -0.200283417136065      -0.179838263326470      -0.212557585105281     
 -0.199017030646452      -0.213511122367356      -0.212358152258711     
 -0.212306744709813      -0.213052299928023      -0.210533633464247     
 -0.208243734744743      -0.204157042823570      -0.199736035996990     
 -0.194331938712533      -0.188590187590038      -0.182481333154706     
 -0.176552001166090      -0.171672155763042      -6.536680706074363E-003
 -6.536680706074363E-003 -2.007529951643867E-002 -3.207270934490834E-002
 -4.312414692000270E-002 -5.353594142404727E-002 -6.346580031690167E-002
 -7.304650277536148E-002 -8.229767180409633E-002 -9.135509423873507E-002
 -0.100093935688834      -0.108759711371964      -0.117067294794342     
 -0.125109453035777      -0.133415978226265      -0.140049904202929     
 -0.140250265130195      -0.162083313526917      -0.164555974804578     
 -0.175758766716707      -0.182082306044838      -0.191005576068170     
 -0.198478541890106      -0.206578404327890      -0.214260129580756     
 -0.222013358961773      -0.229535909619044      -0.236883844112539     
 -0.243879105930159      -0.250380059382447      -0.256086928647344     