 Title = "Wing and Wake"
 VARIABLES = "X" "Y" "Z" "GAM"
 Zone I=    5 J=   14 K=1  T="Blade"
 DATAPACKING=BLOCK
 VARLOCATION=([4]=CELLCENTERED)
  -3.74619469809175       -3.49714602356881       -3.24809734904587     
  -2.99904867452294       -2.75000000000000       -3.74619469809175     
  -3.49714602356881       -3.24809734904587       -2.99904867452294     
  -2.75000000000000       -3.74619469809175       -3.49714602356881     
  -3.24809734904587       -2.99904867452294       -2.75000000000000     
  -3.74619469809175       -3.49714602356881       -3.24809734904587     
  -2.99904867452294       -2.75000000000000       -3.74619469809175     
  -3.49714602356881       -3.24809734904587       -2.99904867452294     
  -2.75000000000000       -3.74619469809175       -3.49714602356881     
  -3.24809734904587       -2.99904867452294       -2.75000000000000     
  -3.74619469809175       -3.49714602356881       -3.24809734904587     
  -2.99904867452294       -2.75000000000000       -3.74619469809175     
  -3.49714602356881       -3.24809734904587       -2.99904867452294     
  -2.75000000000000       -3.74619469809175       -3.49714602356881     
  -3.24809734904587       -2.99904867452294       -2.75000000000000     
  -3.74619469809175       -3.49714602356881       -3.24809734904587     
  -2.99904867452294       -2.75000000000000       -3.74619469809175     
  -3.49714602356881       -3.24809734904587       -2.99904867452294     
  -2.75000000000000       -3.74619469809175       -3.49714602356881     
  -3.24809734904587       -2.99904867452294       -2.75000000000000     
  -3.74619469809175       -3.49714602356881       -3.24809734904587     
  -2.99904867452294       -2.75000000000000       -3.74619469809175     
  -3.49714602356881       -3.24809734904587       -2.99904867452294     
  -2.75000000000000     
  0.000000000000000E+000  0.000000000000000E+000  0.000000000000000E+000
  0.000000000000000E+000  0.000000000000000E+000  0.290581825739480     
  0.290581825739480       0.290581825739480       0.290581825739480     
  0.290581825739480        1.14543974346790        1.14543974346790     
   1.14543974346790        1.14543974346790        1.14543974346790     
   2.51489251828899        2.51489251828899        2.51489251828899     
   2.51489251828899        2.51489251828899        4.31935253268844     
   4.31935253268844        4.31935253268844        4.31935253268844     
   4.31935253268844        6.45395112957464        6.45395112957464     
   6.45395112957464        6.45395112957464        6.45395112957464     
   8.79463319744677        8.79463319744677        8.79463319744677     
   8.79463319744677        8.79463319744677        11.2053668025532     
   11.2053668025532        11.2053668025532        11.2053668025532     
   11.2053668025532        13.5460488704254        13.5460488704254     
   13.5460488704254        13.5460488704254        13.5460488704254     
   15.6806474673116        15.6806474673116        15.6806474673116     
   15.6806474673116        15.6806474673116        17.4851074817110     
   17.4851074817110        17.4851074817110        17.4851074817110     
   17.4851074817110        18.8545602565321        18.8545602565321     
   18.8545602565321        18.8545602565321        18.8545602565321     
   19.7094181742605        19.7094181742605        19.7094181742605     
   19.7094181742605        19.7094181742605        20.0000000000000     
   20.0000000000000        20.0000000000000        20.0000000000000     
   20.0000000000000     
  8.715574274765817E-002  6.536680706074363E-002  4.357787137382908E-002
  2.178893568691454E-002  0.000000000000000E+000  8.715574274765817E-002
  6.536680706074363E-002  4.357787137382908E-002  2.178893568691454E-002
  0.000000000000000E+000  8.715574274765817E-002  6.536680706074363E-002
  4.357787137382908E-002  2.178893568691454E-002  0.000000000000000E+000
  8.715574274765817E-002  6.536680706074363E-002  4.357787137382908E-002
  2.178893568691454E-002  0.000000000000000E+000  8.715574274765817E-002
  6.536680706074363E-002  4.357787137382908E-002  2.178893568691454E-002
  0.000000000000000E+000  8.715574274765817E-002  6.536680706074363E-002
  4.357787137382908E-002  2.178893568691454E-002  0.000000000000000E+000
  8.715574274765817E-002  6.536680706074363E-002  4.357787137382908E-002
  2.178893568691454E-002  0.000000000000000E+000  8.715574274765817E-002
  6.536680706074363E-002  4.357787137382908E-002  2.178893568691454E-002
  0.000000000000000E+000  8.715574274765817E-002  6.536680706074363E-002
  4.357787137382908E-002  2.178893568691454E-002  0.000000000000000E+000
  8.715574274765817E-002  6.536680706074363E-002  4.357787137382908E-002
  2.178893568691454E-002  0.000000000000000E+000  8.715574274765817E-002
  6.536680706074363E-002  4.357787137382908E-002  2.178893568691454E-002
  0.000000000000000E+000  8.715574274765817E-002  6.536680706074363E-002
  4.357787137382908E-002  2.178893568691454E-002  0.000000000000000E+000
  8.715574274765817E-002  6.536680706074363E-002  4.357787137382908E-002
  2.178893568691454E-002  0.000000000000000E+000  8.715574274765817E-002
  6.536680706074363E-002  4.357787137382908E-002  2.178893568691454E-002
  0.000000000000000E+000
  0.681602320378930       0.910040853797484        1.02813359826189     
   1.08433596959880       0.973392093853118        1.35749197704045     
   1.56688046306547        1.66711504942870        1.11007568111278     
   1.56439483645330        1.81938960450067        1.94294337235398     
   1.15978674169479        1.63701738525968        1.90563211672289     
   2.03499061728117        1.17594743788494        1.66004265711827     
   1.93235688930395        2.06290527298872        1.18116214631246     
   1.66737107987793        1.94075754220947        2.07158046516018     
   1.18241085475851        1.66911632891830        1.94274856818843     
   2.07362811755225        1.18116214631246        1.66737107987793     
   1.94075754220947        2.07158046516018        1.17594743788494     
   1.66004265711827        1.93235688930395        2.06290527298872     
   1.15978674169479        1.63701738525968        1.90563211672289     
   2.03499061728117        1.11007568111278        1.56439483645330     
   1.81938960450067        1.94294337235398       0.973392093853119     
   1.35749197704045        1.56688046306547        1.66711504942870     
  0.681602320378930       0.910040853797484        1.02813359826190     
   1.08433596959880     
 Zone I=   12 J=   14 K=1  T="NearWake"
 DATAPACKING=BLOCK
 VARLOCATION=([4]=CELLCENTERED)
  -2.67528539764312       -2.42528539764312       -2.17492585640688     
  -1.92463419451934       -1.67448222011161       -1.42448881393713     
  -1.17477877047631      -0.925407314456172      -0.676479163240492     
 -0.427890260758477      -0.177123513113843       6.736931557450571E-002
  -2.67528539764312       -2.42528539764312       -2.17595554723393     
  -1.92589754805677       -1.67621336999128       -1.42631432929791     
  -1.17659953760136      -0.926679675921967      -0.676249085055821     
 -0.423042565377954      -0.154133892687325       6.681283481540899E-002
  -2.67528539764312       -2.42528539764312       -2.17646461752778     
  -1.92676283464813       -1.67743247180113       -1.42770283846869     
  -1.17799005556099      -0.927737880393079      -0.676461284564106     
 -0.421349348005257      -0.144942428135928       5.871005894242193E-002
  -2.67528539764312       -2.42528539764312       -2.17642957672469     
  -1.92665613287553       -1.67725432067066       -1.42739870422682     
  -1.17754041723074      -0.927073940829630      -0.675506365377784     
 -0.419894921299227      -0.141821575015656       5.674408392330604E-002
  -2.67528539764312       -2.42528539764312       -2.17641146431073     
  -1.92660406943208       -1.67717810316400       -1.42728517566197     
  -1.17739623303100      -0.926889730363122      -0.675274866971383     
 -0.419582077761300      -0.141209684411241       5.625584455465867E-002
  -2.67528539764312       -2.42528539764312       -2.17640668798253     
  -1.92658813983145       -1.67715536699322       -1.42725137496940     
  -1.17735372023118      -0.926836078972513      -0.675208654862111     
 -0.419495721040543      -0.141052907525175       5.614835261211563E-002
  -2.67528539764312       -2.42528539764312       -2.17640553041176     
  -1.92658364733418       -1.67714888756561       -1.42724158786844     
  -1.17734124868572      -0.926820214087035      -0.675188979435092     
 -0.419470168375822      -0.141007627384011       5.612233807274519E-002
  -2.67528539764312       -2.42528539764312       -2.17640553041176     
  -1.92658364733418       -1.67714888756561       -1.42724158786844     
  -1.17734124868572      -0.926820214087035      -0.675188979435092     
 -0.419470168375822      -0.141007627384011       5.612233807274520E-002
  -2.67528539764312       -2.42528539764312       -2.17640668798253     
  -1.92658813983145       -1.67715536699322       -1.42725137496940     
  -1.17735372023118      -0.926836078972513      -0.675208654862111     
 -0.419495721040543      -0.141052907525175       5.614835261211562E-002
  -2.67528539764312       -2.42528539764312       -2.17641146431073     
  -1.92660406943208       -1.67717810316400       -1.42728517566197     
  -1.17739623303100      -0.926889730363122      -0.675274866971383     
 -0.419582077761300      -0.141209684411241       5.625584455465863E-002
  -2.67528539764312       -2.42528539764312       -2.17642957672469     
  -1.92665613287553       -1.67725432067066       -1.42739870422682     
  -1.17754041723074      -0.927073940829630      -0.675506365377784     
 -0.419894921299227      -0.141821575015656       5.674408392330603E-002
  -2.67528539764312       -2.42528539764312       -2.17646461752778     
  -1.92676283464813       -1.67743247180113       -1.42770283846869     
  -1.17799005556099      -0.927737880393079      -0.676461284564106     
 -0.421349348005257      -0.144942428135928       5.871005894242186E-002
  -2.67528539764312       -2.42528539764312       -2.17595554723393     
  -1.92589754805677       -1.67621336999128       -1.42631432929791     
  -1.17659953760136      -0.926679675921967      -0.676249085055821     
 -0.423042565377954      -0.154133892687326       6.681283481540880E-002
  -2.67528539764312       -2.42528539764312       -2.17492585640688     
  -1.92463419451934       -1.67448222011161       -1.42448881393713     
  -1.17477877047631      -0.925407314456172      -0.676479163240492     
 -0.427890260758477      -0.177123513113843       6.736931557450593E-002
  0.000000000000000E+000  0.000000000000000E+000  4.852507522299950E-004
  1.582831046525113E-003  2.889401227014395E-003  4.494730214222536E-003
  6.097960742517953E-003  7.538022290788971E-003  8.569695279879119E-003
  9.390094936637944E-003  6.333931767383220E-003  8.848519989628835E-003
  0.290581825739480       0.290581825739480       0.291116210649359     
  0.288305497546521       0.286466023062091       0.282807269510452     
  0.279517176933295       0.276101164609968       0.273912185390658     
  0.274396857423781       0.277256773455272       0.295675059620251     
   1.14543974346790        1.14543974346790        1.14566267984414     
   1.14547276866939        1.14563709619571        1.14558848994126     
   1.14567924407136        1.14576168202570        1.14595994572500     
   1.14636525324336        1.14641034105326        1.14744278847489     
   2.51489251828899        2.51489251828899        2.51497235888251     
   2.51493643144301        2.51500498334462        2.51501573044018     
   2.51505788805078        2.51508898590326        2.51513415044837     
   2.51520885670763        2.51518932718245        2.51540267839802     
   4.31935253268844        4.31935253268844        4.31937855302877     
   4.31936965244741        4.31938960576769        4.31939269259036     
   4.31940313519933        4.31940989430009        4.31941925754206     
   4.31943432742027        4.31942538641085        4.31948565358875     
   6.45395112957464        6.45395112957464        6.45395935109749     
   6.45395663701016        6.45396243294142        6.45396308191173     
   6.45396578544822        6.45396739038154        6.45396973156021     
   6.45397371305742        6.45397064099405        6.45399131903606     
   8.79463319744677        8.79463319744677        8.79463512590822     
   8.79463447211704        8.79463578581955        8.79463589681012     
   8.79463647988091        8.79463681454170        8.79463732751392     
   8.79463823630827        8.79463749531182        8.79464269684274     
   11.2053668025532        11.2053668025532        11.2053648740918     
   11.2053655278830        11.2053642141804        11.2053641031899     
   11.2053635201191        11.2053631854583        11.2053626724861     
   11.2053617636917        11.2053625046882        11.2053573031573     
   13.5460488704254        13.5460488704254        13.5460406489025     
   13.5460433629898        13.5460375670586        13.5460369180883     
   13.5460342145518        13.5460326096185        13.5460302684398     
   13.5460262869426        13.5460293590059        13.5460086809639     
   15.6806474673116        15.6806474673116        15.6806214469712     
   15.6806303475526        15.6806103942323        15.6806073074096     
   15.6805968648007        15.6805901056999        15.6805807424579     
   15.6805656725797        15.6805746135892        15.6805143464113     
   17.4851074817110        17.4851074817110        17.4850276411175     
   17.4850635685570        17.4849950166554        17.4849842695598     
   17.4849421119492        17.4849110140967        17.4848658495516     
   17.4847911432924        17.4848106728176        17.4845973216020     
   18.8545602565321        18.8545602565321        18.8543373201559     
   18.8545272313306        18.8543629038043        18.8544115100587     
   18.8543207559286        18.8542383179743        18.8540400542750     
   18.8536347467566        18.8535896589467        18.8525572115251     
   19.7094181742605        19.7094181742605        19.7088837893506     
   19.7116945024535        19.7135339769379        19.7171927304895     
   19.7204828230667        19.7238988353900        19.7260878146093     
   19.7256031425762        19.7227432265447        19.7043249403797     
   20.0000000000000        20.0000000000000        19.9995147492478     
   19.9984171689535        19.9971105987730        19.9955052697858     
   19.9939020392575        19.9924619777092        19.9914303047201     
   19.9906099050634        19.9936660682326        19.9911514800104     
 -6.536680706074363E-003 -6.536680706074363E-003 -1.716725268202396E-003
  8.280839340288710E-004  3.691740259305516E-003  5.187152732739750E-003
  5.473818415022209E-003  3.854222074658836E-003 -2.595965651674016E-004
 -7.755798769034453E-003 -1.900511832676168E-002  2.329911944260904E-002
 -6.536680706074363E-003 -6.536680706074363E-003 -3.579860813739232E-002
 -4.874277412330975E-002 -6.866475539737710E-002 -8.386528517627242E-002
 -0.100284980895027      -0.114712750536755      -0.128293209814393     
 -0.138755919235507      -0.139194561082844      -1.485473248696322E-002
 -6.536680706074363E-003 -6.536680706074363E-003 -2.817983293672143E-002
 -3.715066203452598E-002 -5.157137064269188E-002 -6.284615352624742E-002
 -7.562930427963094E-002 -8.777223851439589E-002 -0.100254830226224     
 -0.111160924097290      -0.114503191237649       2.333991672248302E-002
 -6.536680706074363E-003 -6.536680706074363E-003 -2.701420452461140E-002
 -3.505426489009410E-002 -4.831673088839147E-002 -5.852219971914316E-002
 -7.024591421786978E-002 -8.138145996442128E-002 -9.283328340347950E-002
 -0.102547124073949      -0.104492948448589       3.710060053136739E-002
 -6.536680706074363E-003 -6.536680706074363E-003 -2.667828115040068E-002
 -3.440448655641646E-002 -4.726536282888937E-002 -5.706097619910221E-002
 -6.835019122382696E-002 -7.904549668108019E-002 -9.005231251742973E-002
 -9.931961184866639E-002 -0.100850115703744       4.147487086863881E-002
 -6.536680706074363E-003 -6.536680706074363E-003 -2.655884472113851E-002
 -3.417580931456975E-002 -4.689578594913840E-002 -5.654941009593372E-002
 -6.768997306348151E-002 -7.823911472425346E-002 -8.910417113263649E-002
 -9.823704540751985E-002 -9.964689570126654E-002  4.286123965445199E-002
 -6.536680706074363E-003 -6.536680706074363E-003 -2.651838136306139E-002
 -3.410032725346043E-002 -4.677522882439153E-002 -5.638445811557918E-002
 -6.747902927033611E-002 -7.798357907578608E-002 -8.880575276327590E-002
 -9.789814998184308E-002 -9.927111905592025E-002  4.329046200033186E-002
 -6.536680706074363E-003 -6.536680706074363E-003 -2.651838136306137E-002
 -3.410032725346043E-002 -4.677522882439158E-002 -5.638445811557923E-002
 -6.747902927033612E-002 -7.798357907578612E-002 -8.880575276327597E-002
 -9.789814998184304E-002 -9.927111905592018E-002  4.329046200033188E-002
 -6.536680706074363E-003 -6.536680706074363E-003 -2.655884472113855E-002
 -3.417580931456973E-002 -4.689578594913837E-002 -5.654941009593368E-002
 -6.768997306348150E-002 -7.823911472425353E-002 -8.910417113263647E-002
 -9.823704540751985E-002 -9.964689570126649E-002  4.286123965445202E-002
 -6.536680706074363E-003 -6.536680706074363E-003 -2.667828115040072E-002
 -3.440448655641646E-002 -4.726536282888926E-002 -5.706097619910214E-002
 -6.835019122382695E-002 -7.904549668108023E-002 -9.005231251742979E-002
 -9.931961184866642E-002 -0.100850115703744       4.147487086863885E-002
 -6.536680706074363E-003 -6.536680706074363E-003 -2.701420452461140E-002
 -3.505426489009406E-002 -4.831673088839141E-002 -5.852219971914325E-002
 -7.024591421786985E-002 -8.138145996442135E-002 -9.283328340347953E-002
 -0.102547124073949      -0.104492948448589       3.710060053136746E-002
 -6.536680706074363E-003 -6.536680706074363E-003 -2.817983293672146E-002
 -3.715066203452592E-002 -5.157137064269178E-002 -6.284615352624739E-002
 -7.562930427963090E-002 -8.777223851439597E-002 -0.100254830226224     
 -0.111160924097290      -0.114503191237649       2.333991672248319E-002
 -6.536680706074363E-003 -6.536680706074363E-003 -3.579860813739223E-002
 -4.874277412330970E-002 -6.866475539737713E-002 -8.386528517627241E-002
 -0.100284980895027      -0.114712750536755      -0.128293209814394     
 -0.138755919235508      -0.139194561082844      -1.485473248696297E-002
 -6.536680706074363E-003 -6.536680706074363E-003 -1.716725268202417E-003
  8.280839340288467E-004  3.691740259305485E-003  5.187152732739784E-003
  5.473818415022440E-003  3.854222074659092E-003 -2.595965651669917E-004
 -7.755798769034055E-003 -1.900511832676185E-002  2.329911944260917E-002
   1.08433596959880        1.06911226722641        1.05129973883409     
   1.03020640715806        1.00486259147205       0.973858434038998     
  0.935043765751740       0.884911471366558       0.817122145994892     
  0.717952076931788       0.545687230928579        1.66711504942870     
   1.64063624387196        1.60954396139755        1.57258527955507     
   1.52799981794014        1.47322374154820        1.40435192360063     
   1.31507668024105        1.19436106594707        1.02014754055350     
  0.735561100336828        1.94294337235398        1.90537647195558     
   1.86145722279845        1.80960608475144        1.74768437980462     
   1.67270957966126        1.58035263084665        1.46395879974757     
   1.31238267385890        1.10391394579400       0.782326100572016     
   2.03499061728117        1.99065925364340        1.93942615290331     
   1.87972219649234        1.80944735323888        1.72569643953580     
   1.62426711239531        1.49868926620788        1.33806052524169     
   1.12094440580768       0.791278928221502        2.06290527298872     
   2.01576037746364        1.96166712793758        1.89908508255534     
   1.82594861530297        1.73939243491094        1.63525863329197     
   1.50712425988876        1.34413341106689        1.12488759619166     
  0.793323245359819        2.07158046516018        2.02344563356405     
   1.96837959004969        1.90485053854391        1.83080192530550     
   1.74337776595346        1.63842940476177        1.50954269403987     
   1.34586936362122        1.12601564997301       0.793911270808085     
   2.07362811755225        2.02525113883741        1.96995008087233     
   1.90619483520523        1.83193054857300        1.74430292194289     
   1.63916492624379        1.51010392089124        1.34627288741357     
   1.12627868704179       0.794049049972261        2.07158046516018     
   2.02344563356405        1.96837959004969        1.90485053854391     
   1.83080192530550        1.74337776595346        1.63842940476177     
   1.50954269403987        1.34586936362122        1.12601564997301     
  0.793911270808084        2.06290527298872        2.01576037746364     
   1.96166712793758        1.89908508255534        1.82594861530296     
   1.73939243491094        1.63525863329196        1.50712425988876     
   1.34413341106689        1.12488759619166       0.793323245359819     
   2.03499061728117        1.99065925364340        1.93942615290331     
   1.87972219649234        1.80944735323888        1.72569643953580     
   1.62426711239531        1.49868926620788        1.33806052524169     
   1.12094440580768       0.791278928221502        1.94294337235398     
   1.90537647195558        1.86145722279845        1.80960608475144     
   1.74768437980462        1.67270957966126        1.58035263084665     
   1.46395879974757        1.31238267385890        1.10391394579400     
  0.782326100572015        1.66711504942870        1.64063624387196     
   1.60954396139755        1.57258527955507        1.52799981794014     
   1.47322374154820        1.40435192360063        1.31507668024105     
   1.19436106594707        1.02014754055351       0.735561100336828     
   1.08433596959880        1.06911226722641        1.05129973883409     
   1.03020640715806        1.00486259147205       0.973858434038999     
  0.935043765751740       0.884911471366559       0.817122145994892     
  0.717952076931788       0.545687230928579     
 Zone I=    2 J=1   K=1   T="FarWake"
 DATAPACKING=BLOCK
 VARLOCATION=([4]=CELLCENTERED)
  6.736931557450593E-002  6.736931557450593E-002
   19.9911514800104        19.9911514800104     
  2.329911944260917E-002  2.329911944260917E-002
  0.000000000000000E+000
