 Title = "Wing and Wake"
 VARIABLES = "X" "Y" "Z" "GAM"
 Zone I=    5 J=   14 K=1  T="Blade"
 DATAPACKING=BLOCK
 VARLOCATION=([4]=CELLCENTERED)
  -9.99619469809175       -9.74714602356881       -9.49809734904587     
  -9.24904867452294       -9.00000000000000       -9.99619469809175     
  -9.74714602356881       -9.49809734904587       -9.24904867452294     
  -9.00000000000000       -9.99619469809175       -9.74714602356881     
  -9.49809734904587       -9.24904867452294       -9.00000000000000     
  -9.99619469809175       -9.74714602356881       -9.49809734904587     
  -9.24904867452294       -9.00000000000000       -9.99619469809175     
  -9.74714602356881       -9.49809734904587       -9.24904867452294     
  -9.00000000000000       -9.99619469809175       -9.74714602356881     
  -9.49809734904587       -9.24904867452294       -9.00000000000000     
  -9.99619469809175       -9.74714602356881       -9.49809734904587     
  -9.24904867452294       -9.00000000000000       -9.99619469809175     
  -9.74714602356881       -9.49809734904587       -9.24904867452294     
  -9.00000000000000       -9.99619469809175       -9.74714602356881     
  -9.49809734904587       -9.24904867452294       -9.00000000000000     
  -9.99619469809175       -9.74714602356881       -9.49809734904587     
  -9.24904867452294       -9.00000000000000       -9.99619469809175     
  -9.74714602356881       -9.49809734904587       -9.24904867452294     
  -9.00000000000000       -9.99619469809175       -9.74714602356881     
  -9.49809734904587       -9.24904867452294       -9.00000000000000     
  -9.99619469809175       -9.74714602356881       -9.49809734904587     
  -9.24904867452294       -9.00000000000000       -9.99619469809175     
  -9.74714602356881       -9.49809734904587       -9.24904867452294     
  -9.00000000000000     
  0.000000000000000E+000  0.000000000000000E+000  0.000000000000000E+000
  0.000000000000000E+000  0.000000000000000E+000  0.290581825739480     
  0.290581825739480       0.290581825739480       0.290581825739480     
  0.290581825739480        1.14543974346790        1.14543974346790     
   1.14543974346790        1.14543974346790        1.14543974346790     
   2.51489251828899        2.51489251828899        2.51489251828899     
   2.51489251828899        2.51489251828899        4.31935253268844     
   4.31935253268844        4.31935253268844        4.31935253268844     
   4.31935253268844        6.45395112957464        6.45395112957464     
   6.45395112957464        6.45395112957464        6.45395112957464     
   8.79463319744677        8.79463319744677        8.79463319744677     
   8.79463319744677        8.79463319744677        11.2053668025532     
   11.2053668025532        11.2053668025532        11.2053668025532     
   11.2053668025532        13.5460488704254        13.5460488704254     
   13.5460488704254        13.5460488704254        13.5460488704254     
   15.6806474673116        15.6806474673116        15.6806474673116     
   15.6806474673116        15.6806474673116        17.4851074817110     
   17.4851074817110        17.4851074817110        17.4851074817110     
   17.4851074817110        18.8545602565321        18.8545602565321     
   18.8545602565321        18.8545602565321        18.8545602565321     
   19.7094181742605        19.7094181742605        19.7094181742605     
   19.7094181742605        19.7094181742605        20.0000000000000     
   20.0000000000000        20.0000000000000        20.0000000000000     
   20.0000000000000     
  8.715574274765817E-002  6.536680706074363E-002  4.357787137382908E-002
  2.178893568691454E-002  0.000000000000000E+000  8.715574274765817E-002
  6.536680706074363E-002  4.357787137382908E-002  2.178893568691454E-002
  0.000000000000000E+000  8.715574274765817E-002  6.536680706074363E-002
  4.357787137382908E-002  2.178893568691454E-002  0.000000000000000E+000
  8.715574274765817E-002  6.536680706074363E-002  4.357787137382908E-002
  2.178893568691454E-002  0.000000000000000E+000  8.715574274765817E-002
  6.536680706074363E-002  4.357787137382908E-002  2.178893568691454E-002
  0.000000000000000E+000  8.715574274765817E-002  6.536680706074363E-002
  4.357787137382908E-002  2.178893568691454E-002  0.000000000000000E+000
  8.715574274765817E-002  6.536680706074363E-002  4.357787137382908E-002
  2.178893568691454E-002  0.000000000000000E+000  8.715574274765817E-002
  6.536680706074363E-002  4.357787137382908E-002  2.178893568691454E-002
  0.000000000000000E+000  8.715574274765817E-002  6.536680706074363E-002
  4.357787137382908E-002  2.178893568691454E-002  0.000000000000000E+000
  8.715574274765817E-002  6.536680706074363E-002  4.357787137382908E-002
  2.178893568691454E-002  0.000000000000000E+000  8.715574274765817E-002
  6.536680706074363E-002  4.357787137382908E-002  2.178893568691454E-002
  0.000000000000000E+000  8.715574274765817E-002  6.536680706074363E-002
  4.357787137382908E-002  2.178893568691454E-002  0.000000000000000E+000
  8.715574274765817E-002  6.536680706074363E-002  4.357787137382908E-002
  2.178893568691454E-002  0.000000000000000E+000  8.715574274765817E-002
  6.536680706074363E-002  4.357787137382908E-002  2.178893568691454E-002
  0.000000000000000E+000
  0.746920247690782        1.00505536244188        1.14498664702047     
   1.21871064914390        1.07771002054832        1.51400920164607     
   1.76231688507654        1.89346431556420        1.25267589264752     
   1.78000530224213        2.09028071839052        2.25807851115759     
   1.33449755924901        1.90115915553952        2.23722902396610     
   2.42007291592820        1.37170789541324        1.95538172913875     
   2.30213005009321        2.49088903721740        1.38773173729273     
   1.97850392821278        2.32955691691410        2.52057248193715     
   1.39215179166725        1.98485176548393        2.33705387521912     
   2.52865658142278        1.38757094301446        1.97827490922762     
   2.32929398908198        2.52030853531010        1.37149673398523     
   1.95507676321289        2.30177490350860        2.49052714784852     
   1.33439719802483        1.90100518091155        2.23703920799867     
   2.41986833961627        1.25276972319600        1.78012231110632     
   2.09039608075892        2.25817428121886        1.07793931015202     
   1.51431423189652        1.76264563887194        1.89377446550364     
  0.747128819622458        1.00532181138942        1.14527313658904     
   1.21898820387819     
 Zone I=   31 J=   14 K=1  T="NearWake"
 DATAPACKING=BLOCK
 VARLOCATION=([4]=CELLCENTERED)
  -8.92528539764312       -8.67528539764312       -8.42497468406593     
  -8.17453566774101       -7.92377263968442       -7.67353544479439     
  -7.42244155693295       -7.17122359954740       -6.92125693900756     
  -6.67060627626066       -6.42015670924894       -6.16967184886004     
  -5.91923577539675       -5.66884840452934       -5.41851127224033     
  -5.16824346909444       -4.91805142026606       -4.66795505620554     
  -4.41797089289310       -4.16812378708194       -3.91844134895485     
  -3.66895899719535       -3.41971952871472       -3.17077635262974     
  -2.92219542974339       -2.67405850220780       -2.42646561662347     
  -2.17953612165192       -1.93340247190708       -1.68817622248102     
  -1.44389859992505       -8.92528539764312       -8.67528539764312     
  -8.42551640897038       -8.17546994821592       -7.92506760071542     
  -7.67497400611056       -7.42402134299049       -7.17398611370751     
  -6.92344934949003       -6.67317457845283       -6.42269527671824     
  -6.17231966903132       -5.92190041290272       -5.67152073180223     
  -5.42114276089492       -5.17079602892855       -4.92047228077782     
  -4.67018540299581       -4.41993843726361       -4.16974179767555     
  -3.91960404027620       -3.66953746215022       -3.41955574048857     
  -3.16967602624748       -2.91991840617297       -2.67030650637148     
  -2.42086595867823       -2.17162029624856       -1.92257796789428     
  -1.67372343839358       -1.42493182848857       -8.92528539764312     
  -8.67528539764312       -8.42594446355294       -8.17650484721234     
  -7.92683763374863       -7.67737634075804       -7.42723527933378     
  -7.17833371381108       -6.92815871228567       -6.67850061071818     
  -6.42859053847926       -6.17879102302434       -5.92893236605784     
  -5.67910124383828       -5.42925824810723       -5.17942855325868     
  -4.92960444912609       -4.67979593389554       -4.43000377424445     
  -4.18023384984362       -3.93048902965280       -3.68077317666578     
  -3.43108800153651       -3.18143323770439       -2.93180362524863     
  -2.68218535081360       -2.43254835225513       -2.18283262559056     
  -1.93292238545202       -1.68260244793469       -1.43137142040294     
  -8.92528539764312       -8.67528539764312       -8.42595865613609     
  -8.17653020730789       -7.92686696422389       -7.67742324884444     
  -7.42727089406015       -7.17839710164872       -6.92825079932345     
  -6.67862058496687       -6.42874647939322       -6.17897399735125     
  -5.92914319994766       -5.67933481244861       -5.42951053124411     
  -5.17969240539264       -4.92987049818837       -4.68005147651990     
  -4.43023217590606       -4.18041379885204       -3.93059344449992     
  -3.68076806674453       -3.43093086712182       -3.18107124306101     
  -2.93117127000106       -2.68120180327918       -2.43111440058905     
  -2.18082747375850       -1.93020041946021       -1.67899053931664     
  -1.42655899504871       -8.92528539764312       -8.67528539764312     
  -8.42596037918197       -8.17652305678988       -7.92684933800275     
  -7.67738328744462       -7.42722028988170       -7.17832114659331     
  -6.92816208755565       -6.67850901845950       -6.42861870146890     
  -6.17882503409545       -5.92897313905957       -5.67914016969915     
  -5.42928839832917       -5.17943863964352       -4.92958032345774     
  -4.67971929196007       -4.42985148950123       -4.17997731950986     
  -3.93009303671448       -3.68019493176570       -3.43027568635363     
  -3.18032450845722       -2.93032369659906       -2.68024490256515     
  -2.43004112817479       -2.17963287165757       -1.92888207614575     
  -1.67754897722625       -1.42496709975821       -8.92528539764312     
  -8.67528539764312       -8.42596177369766       -8.17651902919337     
  -7.92684164612633       -7.67735704558108       -7.42719428968437     
  -7.17827051380965       -6.92810577066911       -6.67843590385787     
  -6.42853332473833       -6.17872440526338       -5.92885769573980     
  -5.67900877692494       -5.42914045962751       -5.17927335766696     
  -4.92939693237054       -4.67951711192445       -4.42962990327873     
  -4.17973590660994       -3.92983157713220       -3.67991351525695     
  -3.42997474694026       -3.18000489287900       -2.92998667747877     
  -2.67989216519472       -2.42967467462169       -2.17925482476500     
  -1.92849434200102       -1.67715281878631       -1.42455472293328     
  -8.92528539764312       -8.67528539764312       -8.42596236408575     
  -8.17651702997440       -7.92683858506778       -7.67734421474909     
  -7.42718302649397       -7.17824624328588       -6.92808009429992     
  -6.67840273483794       -6.42849501403754       -6.17867969660124     
  -5.92880698265605       -5.67895185819676       -5.42907740982039     
  -5.17920425115313       -4.92932190193894       -4.67943638014352     
  -4.42954374735384       -4.17964469807192       -3.92973575600224     
  -3.67981360400987       -3.42987132958289       -3.17989860448419     
  -2.92987817297404       -2.67978208224140       -2.42956357645895     
  -2.17914312436165       -1.92838220002052       -1.67704004149354     
  -1.42443855176072       -8.92528539764312       -8.67528539764312     
  -8.42596202823975       -8.17651630112436       -7.92683742077778     
  -7.67734244438441       -7.42718045097278       -7.17824339042504     
  -6.92807689597058       -6.67839918651652       -6.42849108950535     
  -6.17867537169184       -5.92880223062498       -5.67894665184708     
  -5.42907172159359       -5.17919805368900       -4.92931516855760     
  -4.67942908539313       -4.42953586761039       -4.17963621219851     
  -3.92972664605294       -3.67980385597724       -3.42986093416178     
  -3.17988755783680       -2.92986647746116       -2.67976974708975     
  -2.42955061832240       -2.17912956773382       -1.92836807744315     
  -1.67702539344918       -1.42442342564146       -8.92528539764312     
  -8.67528539764312       -8.42596100416312       -8.17651732855761     
  -7.92683887570943       -7.67735276378672       -7.42718795708925     
  -7.17826338738836       -6.92809765238977       -6.67842675144408     
  -6.42852303851884       -6.17871288323715       -5.92884482364041     
  -5.67899443174517       -5.42912450984124       -5.17925566387087     
  -4.92937734832071       -4.67949548581227       -4.42960607957448     
  -4.17970972850383       -3.92980288968627       -3.67988216939132     
  -3.42994060428345       -3.17996783153824       -2.92994659865277     
  -2.67984900049802       -2.42962839382352       -2.17920544350405     
  -1.92844192879521       -1.67709750014777       -1.42449668210695     
  -8.92528539764312       -8.67528539764312       -8.42595978207498     
  -8.17652167312266       -7.92684695009520       -7.67737944852229     
  -7.42721436086537       -7.17831421088932       -6.92815387907876     
  -6.67849942517824       -6.42860754405641       -6.17881210670882     
  -5.92895820388551       -5.67912295126135       -5.42926858055902     
  -5.17941585851257       -4.92955416084854       -4.67968926754440     
  -4.42981705249199       -4.17993783975545       -3.93004779597749     
  -3.68014311598712       -3.43021638032098       -3.18025669514909     
  -2.93024626438827       -2.68015666480635       -2.42994086083854     
  -2.17951937538411       -1.92875426796970       -1.67740601104059     
  -1.42480848325776       -8.92528539764312       -8.67528539764312     
  -8.42595878919039       -8.17653038828375       -7.92686696947046     
  -7.67742298911284       -7.42727002528855       -7.17839561387018     
  -6.92824851616342       -6.67861739067808       -6.42874223478924     
  -6.17896851851220       -5.92913627472040       -5.67932617865105     
  -5.42949987430521       -5.17967933957843       -4.92985455089811     
  -4.68003206253117       -4.43020856585842       -4.18038507531076     
  -3.93055844293009       -3.68072529360176       -3.43087838534134     
  -3.18100650843312       -2.93109089282177       -2.68110119265456     
  -2.43098722015289       -2.18066479240345       -1.92998938621732     
  -1.67871239652940       -1.42618623403320       -8.92528539764312     
  -8.67528539764312       -8.42594540911169       -8.17650680721542     
  -7.92684040181136       -7.67738031734154       -7.42724062489643     
  -7.17833909825141       -6.92816415397160       -6.67850604944810     
  -6.42859598115090       -6.17879643523787       -5.92893772989514     
  -5.67910652458417       -5.42926341051654       -5.17943354899689     
  -4.92960921988215       -4.67980040407935       -4.43000784797082     
  -4.18023740296413       -3.93049190151680       -3.68077515793389     
  -3.43108881933163       -3.18143253679903       -2.93180094701204     
  -2.68218011428862       -2.43253985520378       -2.18282013797932     
  -1.93290571698437       -1.68258575472669       -1.43140715046946     
  -8.92528539764312       -8.67528539764312       -8.42551763422269     
  -8.17547256581072       -7.92507130239294       -7.67498009333575     
  -7.42403072945193       -7.17399579312485       -6.92345969243796     
  -6.67318551381532       -6.42270693746742       -6.17233213242440     
  -5.92191382833344       -5.67153526109364       -5.42115862114177     
  -5.17081348442210       -4.92049167032495       -4.67020715561573     
  -4.41996310498680       -4.16977009414563       -3.91963689761175     
  -3.66957611059578       -3.41960182423339       -3.16973177101486     
  -2.91998686825715       -2.67039195305109       -2.42097446386025     
  -2.17176073786475       -1.92276383531107       -1.67397621680785     
  -1.42528775570055       -8.92528539764312       -8.67528539764312     
  -8.42497644672216       -8.17453970480821       -7.92377922275596     
  -7.67354451073456       -7.42245277600438       -7.17123562909170     
  -6.92126975435527       -6.67061999901390       -6.42017145974678     
  -6.16968777761132       -5.91925305552836       -5.66886724685807     
  -5.41853192982877       -5.16826625170019       -4.91807670871313     
  -4.66798332393652       -4.41800273382655       -4.16815995456879     
  -3.91848280900875       -3.66900700330364       -3.41977572825347     
  -3.17084294146720       -2.92227538198516       -2.67415592305933     
  -2.42658631227010       -2.17968858548747       -1.93359976835989     
  -1.68843990879346       -1.44426631693697     
  0.000000000000000E+000  0.000000000000000E+000  3.806827533037943E-004
  1.467974955434196E-003  2.800422013659549E-003  6.529072588550281E-003
  7.008067776493472E-003  1.476174785895242E-002  1.879478836259341E-002
  2.447910771870912E-002  3.061729564667185E-002  3.713770568280363E-002
  4.416725400372601E-002  5.147199632462342E-002  5.909155348249480E-002
  6.687501042354942E-002  7.477895071573878E-002  8.269564103031449E-002
  9.054770393067188E-002  9.823749732067776E-002  0.105673766407040     
  0.112758281446482       0.119391872284382       0.125469872599713     
  0.130881227635268       0.135503968866102       0.139199235530695     
  0.141802855845350       0.143096020956960       0.142854028631038     
  0.140526818965108       0.290581825739480       0.290581825739480     
  0.290949782582926       0.289051323843476       0.288625445739216     
  0.278457484607258       0.284058739075612       0.264717095295661     
  0.261065715705548       0.249824037501953       0.238820062401777     
  0.227527316154330       0.214665181543694       0.201692243287365     
  0.187872770808129       0.173835827173999       0.159444218852922     
  0.144984207894459       0.130517982020923       0.116230523691115     
  0.102244200193679       8.871206568230011E-002  7.577021690383517E-002
  6.356343243980814E-002  5.223816462816011E-002  4.195625990967726E-002
  3.290867315578075E-002  2.534770764431475E-002  1.966057539267164E-002
  1.657148788779246E-002  1.792482515023852E-002   1.14543974346790     
   1.14543974346790        1.14557264336645        1.14542714714415     
   1.14593255393192        1.14440225893600        1.14677622910024     
   1.14397070558034        1.14528524383438        1.14446784479712     
   1.14416049978591        1.14379306547491        1.14330080210929     
   1.14279913902733        1.14221833643382        1.14160296553047     
   1.14093151668787        1.14022078713418        1.13946917108139     
   1.13868770328879        1.13788408132856        1.13707191782606     
   1.13626696459127        1.13549060512293        1.13477010579775     
   1.13414136870936        1.13365152349568        1.13336304674485     
   1.13335985494596        1.13374234220729        1.13466186393219     
   2.51489251828899        2.51489251828899        2.51494118243612     
   2.51489508531471        2.51509677931040        2.51456517477544     
   2.51546640220851        2.51451965920936        2.51507192822421     
   2.51486562576105        2.51484799863728        2.51483626198025     
   2.51479092442465        2.51475854058878        2.51471326441172     
   2.51467162202199        2.51462634555469        2.51458317136239     
   2.51454146377319        2.51450439481135        2.51447369385952     
   2.51445237834395        2.51444334118263        2.51444999001838     
   2.51447570921703        2.51452371822822        2.51459655488109     
   2.51469571015939        2.51482128476949        2.51496773272350     
   2.51512622474973        4.31935253268844        4.31935253268844     
   4.31937164552010        4.31935324795040        4.31943232723243     
   4.31922598392093        4.31957604122560        4.31922095554967     
   4.31944188098383        4.31937436517189        4.31937813930045     
   4.31938905085443        4.31938857146157        4.31939545732043     
   4.31939947844622        4.31940681700564        4.31941456682782     
   4.31942454070686        4.31943613941568        4.31944996779403     
   4.31946596471015        4.31948430128015        4.31950487659549     
   4.31952750374471        4.31955173050736        4.31957681672895     
   4.31960163591170        4.31962468611477        4.31964406891760     
   4.31965638971704        4.31965671928802        6.45395112957464     
   6.45395112957464        6.45395799771940        6.45394998632526     
   6.45397962167813        6.45389961078406        6.45403256744669     
   6.45390013944652        6.45398597016237        6.45396329725456     
   6.45396708417533        6.45397442143391        6.45397757756893     
   6.45398376160491        6.45398901057515        6.45399553843966     
   6.45400216508196        6.45400941374486        6.45401692555352     
   6.45402475157515        6.45403270180803        6.45404066068993     
   6.45404842435597        6.45405577286072        6.45406242386502     
   6.45406803883907        6.45407220425174        6.45407444302177     
   6.45407420353609        6.45407051243554        6.45406181002673     
   8.79463319744677        8.79463319744677        8.79463351386445     
   8.79462972895815        8.79463591454347        8.79461324206969     
   8.79464654532570        8.79461251678588        8.79463506944983     
   8.79462960122801        8.79463088568297        8.79463319586991     
   8.79463441151043        8.79463642583339        8.79463819331795     
   8.79464027521374        8.79464235633164        8.79464455701192     
   8.79464677431581        8.79464900946773        8.79465120539906     
   8.79465332599937        8.79465531676109        8.79465712314612     
   8.79465867997517        8.79465991334413        8.79466073620194     
   8.79466105054313        8.79466074355357        8.79465960427320     
   8.79465727380075        11.2053668025532        11.2053668025532     
   11.2053616750586        11.2053601760628        11.2053489384982     
   11.2053660244180        11.2053281501607        11.2053622535436     
   11.2053393506012        11.2053447278792        11.2053432742325     
   11.2053408990408        11.2053396370883        11.2053376491168     
   11.2053359625011        11.2053340357170        11.2053321842802     
   11.2053302984737        11.2053284865984        11.2053267554631     
   11.2053251685467        11.2053237687699        11.2053226165797     
   11.2053217720052        11.2053213048210        11.2053212926648     
   11.2053218253332        11.2053230027556        11.2053249394553     
   11.2053278504831        11.2053321164972        13.5460488704254     
   13.5460488704254        13.5460364457579        13.5460381259979     
   13.5460022944824        13.5460752662124        13.5459362971523     
   13.5460683466223        13.5459815559461        13.5460035581474     
   13.5459989467569        13.5459908759908        13.5459869600306     
   13.5459800675177        13.5459741379569        13.5459669910710     
   13.5459598138773        13.5459521084036        13.5459442534149     
   13.5459362252703        13.5459282421471        13.5459204520401     
   13.5459130932367        13.5459064225314        13.5459007601218     
   13.5458964825293        13.5458940399086        13.5458939434075     
   13.5458967757604        13.5459035428385        13.5459158737944     
   15.6806474673116        15.6806474673116        15.6806217256827     
   15.6806322168469        15.6805451874356        15.6807421463517     
   15.6803837003535        15.6807374609636        15.6805143287528     
   15.6805799064081        15.6805738165397        15.6805605550578     
   15.6805584485074        15.6805488409066        15.6805418979735     
   15.6805314685500        15.6805204437482        15.6805070312037     
   15.6804918447793        15.6804743169600        15.6804545600316     
   15.6804324818128        15.6804082931515        15.6803823331111     
   15.6803552563330        15.6803280655001        15.6803022167784     
   15.6802796140117        15.6802626320425        15.6802552304550     
   15.6802631425491        17.4851074817110        17.4851074817110     
   17.4850514367630        17.4850884526055        17.4848775757844     
   17.4853978057393        17.4844864336666        17.4854308434809     
   17.4848751739910        17.4850782451353        17.4850919662922     
   17.4850995405294        17.4851401313140        17.4851672627271     
   17.4852066078910        17.4852415876851        17.4852793198484     
   17.4853139404147        17.4853459040200        17.4853718407792     
   17.4853897764074        17.4853964150681        17.4853885468367     
   17.4853624230797        17.4853143177186        17.4852407269966     
   17.4851389988995        17.4850079248256        17.4848484972909     
   17.4846688818384        17.4844831137148        18.8545602565321     
   18.8545602565321        18.8544198126332        18.8545558645525     
   18.8540413464584        18.8555591326498        18.8531752651552     
   18.8559778371718        18.8546596504163        18.8554734737120     
   18.8557764658265        18.8561392289411        18.8566261222105     
   18.8571217874028        18.8576957457889        18.8583033359842     
   18.8589658542407        18.8596663009854        18.8604059954574     
   18.8611735689798        18.8619608965670        18.8627538467798     
   18.8635360354033        18.8642853549145        18.8649738156504     
   18.8655651476014        18.8660133557804        18.8662624951992     
   18.8662560804343        18.8660247677942        18.8664264618805     
   19.7094181742605        19.7094181742605        19.7090428644705     
   19.7109321930688        19.7113497542379        19.7215038393673     
   19.7158948940132        19.7352334466003        19.7388816317635     
   19.7501202472960        19.7611203898917        19.7724091150468     
   19.7852666053921        19.7982344062112        19.8120480172802     
   19.8260783338945        19.8404623460063        19.8549136449202     
   19.8693697946473        19.8836455387351        19.8976181195731     
   19.9111340086237        19.9240565038787        19.9362400829046     
   19.9475373668373        19.9577854215131        19.9667920131394     
   19.9743036684456        19.9799328652032        19.9829579414302     
   19.9815478980714        20.0000000000000        20.0000000000000     
   19.9996119957377        19.9985150910898        19.9971735365295     
   19.9934315737685        19.9929435797580        19.9851855659408     
   19.9811487352813        19.9754597522383        19.9693164039477     
   19.9627900751030        19.9557538013049        19.9484413240986     
   19.9408128477095        19.9330190224004        19.9251029540570     
   19.9171719636101        19.9093028995220        19.9015926999077     
   19.8941316792198        19.8870167831520        19.8803454001709     
   19.8742196723630        19.8687470083165        19.8640440135933     
   19.8602415553647        19.8574920995735        19.8559978682699     
   19.8559629612774        19.8579263435338     
 -6.536680706074363E-003 -6.536680706074363E-003 -2.966951477943987E-004
  6.921898407526556E-003  1.347730754249125E-002  2.197455721462617E-002
  2.748187329438018E-002  3.832856399536665E-002  4.284518882656869E-002
  4.990921002071429E-002  5.497569449895699E-002  6.022420595408787E-002
  6.446376306837262E-002  6.822522667122342E-002  7.116852705841013E-002
  7.341406907713582E-002  7.485564805131247E-002  7.552041318924123E-002
  7.537741353699853E-002  7.443926695942518E-002  7.270925991543736E-002
  7.020925824271354E-002  6.696531520486511E-002  6.301534784554096E-002
  5.840596420224857E-002  5.319565253073643E-002  4.745723364562019E-002
  4.127811287215559E-002  3.477495709603850E-002  2.816757555511174E-002
  2.140801990527254E-002 -6.536680706074363E-003 -6.536680706074363E-003
 -2.594210157005612E-002 -4.551484969882479E-002 -6.113931167814023E-002
 -8.135409259327275E-002 -8.850664390428922E-002 -0.120476300258433     
 -0.127292072063588      -0.144543301187568      -0.155288690935876     
 -0.167873719730037      -0.177967515412249      -0.187758073562013     
 -0.196035980972631      -0.203455962719182      -0.209668275875808     
 -0.214910059285805      -0.219125277065859      -0.222453260335541     
 -0.224966011842452      -0.226814834659715      -0.228154349571586     
 -0.229188346872496      -0.230151963891421      -0.231330367695697     
 -0.233060646199899      -0.235749542166374      -0.239878407184291     
 -0.246011320991195      -0.255159945898371      -6.536680706074363E-003
 -6.536680706074363E-003 -1.989756369499244E-002 -3.265723615442827E-002
 -4.211155078232963E-002 -5.541724074876656E-002 -5.697908756161636E-002
 -8.180836272891012E-002 -8.372249943492738E-002 -9.680686635291556E-002
 -0.104121869402539      -0.114190085651185      -0.122767948583869     
 -0.132003312761026      -0.140847212449538      -0.149849530792242     
 -0.158759752054381      -0.167728063813343      -0.176704083978984     
 -0.185738027515020      -0.194829707469361      -0.204003763139255     
 -0.213271010307912      -0.222645936870758      -0.232134377970135     
 -0.241733036150098      -0.251417039722791      -0.261121455444990     
 -0.270701041942985      -0.279839885632464      -0.287980807951266     