 Title = "Wing and Wake"
 VARIABLES = "X" "Y" "Z" "GAM" "skew"
 Zone I=   11 J=   26 K=1  T="Blade"
 DATAPACKING=BLOCK
 VARLOCATION=([4]=CELLCENTERED,[5]=CELLCENTERED)
  0.140109059472865       0.121927267150093       0.103745474827320     
  8.556368250454766E-002  6.738189018177494E-002  4.920009785900257E-002
  3.101830553622996E-002  1.283651321345744E-002 -5.345279109314770E-003
 -2.352707143208767E-002 -4.170886375486008E-002  0.139287039644164     
  0.121105247321391       0.102923454998618       8.474166267584640E-002
  6.655987035307349E-002  4.837807803030109E-002  3.019628570752842E-002
  1.201449338475619E-002 -6.167298938016538E-003 -2.434909126078889E-002
 -4.253088358356168E-002  0.136833943901809       0.118652151579037     
  0.100470359256264       8.228856693349115E-002  6.410677461071870E-002
  4.592498228794616E-002  2.774318996517336E-002  9.561397642401217E-003
 -8.620394680371075E-003 -2.680218700314387E-002 -4.498397932591632E-002
  0.132788459031066       0.114606666708293       9.642487438552029E-002
  7.824308206274828E-002  6.006128973997566E-002  4.187949741720307E-002
  2.369770509443073E-002  5.515912771658086E-003 -1.266587955111461E-002
 -3.084767187388726E-002 -4.902946419665924E-002  0.127214384745002     
  0.109032592422230       9.085080009945641E-002  7.266900777668403E-002
  5.448721545391153E-002  3.630542313113899E-002  1.812363080836631E-002
 -5.816151440595297E-005 -1.823995383717857E-002 -3.642174615995088E-002
 -5.460353848272346E-002  0.120199627524898       0.102017835202126     
  8.383604287935326E-002  6.565425055658061E-002  4.747245823380845E-002
  2.929066591103537E-002  1.110887358826312E-002 -7.072918734509213E-003
 -2.525471105728204E-002 -4.343650338005452E-002 -6.161829570282727E-002
  0.111854814282530       9.367302195975727E-002  7.549122963698500E-002
  5.730943731421229E-002  3.912764499143970E-002  2.094585266866692E-002
  2.764060345894800E-003 -1.541773197687764E-002 -3.359952429964989E-002
 -5.178131662242247E-002 -6.996310894519504E-002  0.102311547707678     
  8.412975538490509E-002  6.594796306213244E-002  4.776617073936033E-002
  2.958437841658768E-002  1.140258609381520E-002 -6.779206228957130E-003
 -2.496099855172957E-002 -4.314279087450246E-002 -6.132458319727452E-002
 -7.950637552004729E-002  9.172033081509934E-002  7.353853849232597E-002
  5.535674616955381E-002  3.717495384678157E-002  1.899316152400931E-002
  8.113692012364680E-004 -1.737042312153620E-002 -3.555221544430874E-002
 -5.373400776708139E-002 -7.191580008985393E-002 -9.009759241262594E-002
  8.024819342207577E-002  6.206640109930355E-002  4.388460877653065E-002
  2.570281645375787E-002  7.521024130985468E-003 -1.066076819178654E-002
 -2.884256051455948E-002 -4.702435283733181E-002 -6.520614516010435E-002
 -8.338793748287689E-002 -0.101569729805649       6.807605798841854E-002
  4.989426566564568E-002  3.171247334287351E-002  1.353068102010137E-002
 -4.651111302671391E-003 -2.283290362544411E-002 -4.101469594821588E-002
 -5.919648827098994E-002 -7.737828059376115E-002 -9.556007291653440E-002
 -0.113741865239307       5.539588636119679E-002  3.721409403842515E-002
  1.903230171565163E-002  8.505093928794042E-004 -1.733128292989299E-002
 -3.551307525266510E-002 -5.369486757543764E-002 -7.187665989821061E-002
 -9.005845222098313E-002 -0.108240244543755      -0.126422036866527     
  4.240765242174057E-002  2.422586009896812E-002  6.044067776195042E-003
 -1.213772454657648E-002 -3.031951686934909E-002 -4.850130919212133E-002
 -6.668310151489483E-002 -8.486489383766713E-002 -0.103046686160439     
 -0.121228478483212      -0.139410270805984       2.931618837806953E-002
  1.113439605529621E-002 -7.047396267475092E-003 -2.522918859024803E-002
 -4.341098091302069E-002 -6.159277323579341E-002 -7.977456555856680E-002
 -9.795635788133709E-002 -0.116138150204111      -0.134319942526884     
 -0.152501734849656       1.632795443861283E-002 -1.853837884158865E-003
 -2.003563020693203E-002 -3.821742252970452E-002 -5.639921485247743E-002
 -7.458100717524907E-002 -9.276279949802164E-002 -0.110944591820796     
 -0.129126384143567      -0.147308176466339      -0.165489968789112     
  3.647782811392282E-003 -1.453400951138101E-002 -3.271580183415349E-002
 -5.089759415692451E-002 -6.907938647969815E-002 -8.726117880247056E-002
 -0.105442971125243      -0.123624763448015      -0.141806555770788     
 -0.159988348093560      -0.178170140416333      -8.524352622265412E-003
 -2.670614494503757E-002 -4.488793726781064E-002 -6.306972959058270E-002
 -8.125152191335550E-002 -9.943331423612803E-002 -0.117615106558901     
 -0.135796898881673      -0.153978691204446      -0.172160483527219     
 -0.190342275849990      -1.999649001528874E-002 -3.817828233806195E-002
 -5.636007466083431E-002 -7.454186698360600E-002 -9.272365930637883E-002
 -0.110905451629152      -0.129087243951924      -0.147269036274697     
 -0.165450828597469      -0.183632620920241      -0.201814413243013     
 -3.058770690786825E-002 -4.876949923064060E-002 -6.695129155341319E-002
 -8.513308387618500E-002 -0.103314876198957      -0.121496668521730     
 -0.139678460844502      -0.157860253167275      -0.176042045490048     
 -0.194223837812821      -0.212405630135593      -4.013097348271915E-002
 -5.831276580549317E-002 -7.649455812826425E-002 -9.467635045103810E-002
 -0.112858142773809      -0.131039935096583      -0.149221727419353     
 -0.167403519742127      -0.185585312064900      -0.203767104387672     
 -0.221948896710444      -4.847578672508882E-002 -6.665757904786096E-002
 -8.483937137063292E-002 -0.103021163693405      -0.121202956016178     
 -0.139384748338951      -0.157566540661724      -0.175748332984496     
 -0.193930125307267      -0.212111917630042      -0.230293709952813     
 -5.549054394519082E-002 -7.367233626796291E-002 -9.185412859073792E-002
 -0.110035920913509      -0.128217713236280      -0.146399505559054     
 -0.164581297881827      -0.182763090204599      -0.200944882527370     
 -0.219126674850145      -0.237308467172918      -6.106461823125605E-002
 -7.924641055402758E-002 -9.742820287680021E-002 -0.115609995199573     
 -0.133791787522346      -0.151973579845118      -0.170155372167890     
 -0.188337164490664      -0.206518956813436      -0.224700749136207     
 -0.242882541458981      -6.511010310199822E-002 -8.329189542476953E-002
 -0.101473687747543      -0.119655480070316      -0.137837272393089     
 -0.156019064715862      -0.174200857038634      -0.192382649361407     
 -0.210564441684178      -0.228746234006952      -0.246928026329724     
 -6.756319884435298E-002 -8.574499116712518E-002 -0.103926783489897     
 -0.122108575812671      -0.140290368135443      -0.158472160458217     
 -0.176653952780990      -0.194835745103761      -0.213017537426534     
 -0.231199329749306      -0.249381122072078      -6.838521867305374E-002
 -8.656701099582853E-002 -0.104748803318599      -0.122930595641373     
 -0.141112387964145      -0.159294180286918      -0.177475972609690     
 -0.195657764932462      -0.213839557255235      -0.232021349578008     
 -0.250203141900781     
 -0.226706286916232      -0.222627360200461      -0.218548433484689     
 -0.214469506768917      -0.210390580053146      -0.206311653337374     
 -0.202232726621602      -0.198153799905830      -0.194074873190058     
 -0.189995946474286      -0.185917019758515      -0.230370435564175     
 -0.226291508848404      -0.222212582132631      -0.218133655416860     
 -0.214054728701088      -0.209975801985316      -0.205896875269544     
 -0.201817948553772      -0.197739021838001      -0.193660095122229     
 -0.189581168406457      -0.241305095694968      -0.237226168979196     
 -0.233147242263424      -0.229068315547652      -0.224989388831880     
 -0.220910462116109      -0.216831535400337      -0.212752608684565     
 -0.208673681968793      -0.204594755253021      -0.200515828537249     
 -0.259337821186299      -0.255258894470527      -0.251179967754755     
 -0.247101041038984      -0.243022114323212      -0.238943187607439     
 -0.234864260891668      -0.230785334175896      -0.226706407460124     
 -0.222627480744352      -0.218548554028580      -0.284184225184941     
 -0.280105298469169      -0.276026371753397      -0.271947445037626     
 -0.267868518321854      -0.263789591606083      -0.259710664890311     
 -0.255631738174539      -0.251552811458767      -0.247473884742995     
 -0.243394958027223      -0.315452465057315      -0.311373538341544     
 -0.307294611625771      -0.303215684909999      -0.299136758194228     
 -0.295057831478457      -0.290978904762684      -0.286899978046913     
 -0.282821051331141      -0.278742124615369      -0.274663197899597     
 -0.352649421981891      -0.348570495266120      -0.344491568550348     
 -0.340412641834576      -0.336333715118804      -0.332254788403033     
 -0.328175861687261      -0.324096934971489      -0.320018008255717     
 -0.315939081539944      -0.311860154824173      -0.395188477727585     
 -0.391109551011813      -0.387030624296042      -0.382951697580270     
 -0.378872770864498      -0.374793844148726      -0.370714917432954     
 -0.366635990717183      -0.362557064001410      -0.358478137285638     
 -0.354399210569868      -0.442398765973686      -0.438319839257915     
 -0.434240912542142      -0.430161985826371      -0.426083059110599     
 -0.422004132394827      -0.417925205679054      -0.413846278963283     
 -0.409767352247512      -0.405688425531740      -0.401609498815968     
 -0.493535752272494      -0.489456825556722      -0.485377898840951     
 -0.481298972125178      -0.477220045409407      -0.473141118693634     
 -0.469062191977863      -0.464983265262092      -0.460904338546319     
 -0.456825411830547      -0.452746485114776      -0.547792975802323     
 -0.543714049086551      -0.539635122370778      -0.535556195655007     
 -0.531477268939235      -0.527398342223464      -0.523319415507690     
 -0.519240488791920      -0.515161562076147      -0.511082635360375     
 -0.507003708644603      -0.604314767736410      -0.600235841020638     
 -0.596156914304867      -0.592077987589093      -0.587999060873322     
 -0.583920134157551      -0.579841207441780      -0.575762280726007     
 -0.571683354010235      -0.567604427294463      -0.563525500578692     
 -0.662209745651477      -0.658130818935705      -0.654051892219932     
 -0.649972965504161      -0.645894038788389      -0.641815112072616     
 -0.637736185356845      -0.633657258641074      -0.629578331925302     
 -0.625499405209530      -0.621420478493758      -0.720564871161017     
 -0.716485944445244      -0.712407017729472      -0.708328091013700     
 -0.704249164297929      -0.700170237582157      -0.696091310866385     
 -0.692012384150613      -0.687933457434844      -0.683854530719070     
 -0.679775604003298      -0.778459849076081      -0.774380922360309     
 -0.770301995644539      -0.766223068928765      -0.762144142212994     
 -0.758065215497224      -0.753986288781451      -0.749907362065679     
 -0.745828435349906      -0.741749508634133      -0.737670581918365     
 -0.834981641010170      -0.830902714294398      -0.826823787578627     
 -0.822744860862855      -0.818665934147084      -0.814587007431311     
 -0.810508080715539      -0.806429153999768      -0.802350227283995     
 -0.798271300568222      -0.794192373852453      -0.889238864539998     
 -0.885159937824226      -0.881081011108453      -0.877002084392683     
 -0.872923157676910      -0.868844230961139      -0.864765304245367     
 -0.860686377529597      -0.856607450813824      -0.852528524098053     
 -0.848449597382281      -0.940375850838806      -0.936296924123033     
 -0.932217997407262      -0.928139070691491      -0.924060143975719     
 -0.919981217259948      -0.915902290544175      -0.911823363828403     
 -0.907744437112631      -0.903665510396859      -0.899586583681087     
 -0.987586139084905      -0.983507212369133      -0.979428285653363     
 -0.975349358937591      -0.971270432221820      -0.967191505506048     
 -0.963112578790274      -0.959033652074504      -0.954954725358733     
 -0.950875798642960      -0.946796871927188       -1.03012519483060     
  -1.02604626811483       -1.02196734139906       -1.01788841468329     
  -1.01380948796751       -1.00973056125174       -1.00565163453597     
  -1.00157270782020      -0.997493781104425      -0.993414854388655     
 -0.989335927672882       -1.06732215175518       -1.06324322503941     
  -1.05916429832363       -1.05508537160786       -1.05100644489209     
  -1.04692751817632       -1.04284859146055       -1.03876966474477     
  -1.03469073802900       -1.03061181131323       -1.02653288459746     
  -1.09859039162755       -1.09451146491178       -1.09043253819601     
  -1.08635361148023       -1.08227468476446       -1.07819575804869     
  -1.07411683133292       -1.07003790461715       -1.06595897790138     
  -1.06188005118560       -1.05780112446983       -1.12343679562619     
  -1.11935786891042       -1.11527894219465       -1.11120001547888     
  -1.10712108876311       -1.10304216204733       -1.09896323533156     
  -1.09488430861579       -1.09080538190002       -1.08672645518425     
  -1.08264752846847       -1.14146952111752       -1.13739059440175     
  -1.13331166768598       -1.12923274097021       -1.12515381425444     
  -1.12107488753866       -1.11699596082289       -1.11291703410712     
  -1.10883810739135       -1.10475918067558       -1.10068025395981     
  -1.15240418124831       -1.14832525453254       -1.14424632781677     
  -1.14016740110100       -1.13608847438523       -1.13200954766946     
  -1.12793062095368       -1.12385169423791       -1.11977276752214     
  -1.11569384080637       -1.11161491409060       -1.15606832989626     
  -1.15198940318049       -1.14791047646472       -1.14383154974894     
  -1.13975262303317       -1.13567369631740       -1.13159476960163     
  -1.12751584288585       -1.12343691617008       -1.11935798945431     
  -1.11527906273854     
  3.960717710078315E-002  3.564645939070483E-002  3.168574168062652E-002
  2.772502397054821E-002  2.376430626046989E-002  1.980358855039158E-002
  1.584287084031326E-002  1.188215313023495E-002  7.921435420156629E-003
  3.960717710078312E-003  0.000000000000000E+000  3.960717710078315E-002
  3.564645939070483E-002  3.168574168062652E-002  2.772502397054821E-002
  2.376430626046989E-002  1.980358855039158E-002  1.584287084031326E-002
  1.188215313023495E-002  7.921435420156629E-003  3.960717710078312E-003
  0.000000000000000E+000  3.960717710078315E-002  3.564645939070483E-002
  3.168574168062652E-002  2.772502397054821E-002  2.376430626046989E-002
  1.980358855039158E-002  1.584287084031326E-002  1.188215313023495E-002
  7.921435420156629E-003  3.960717710078312E-003  0.000000000000000E+000
  3.960717710078315E-002  3.564645939070483E-002  3.168574168062652E-002
  2.772502397054821E-002  2.376430626046989E-002  1.980358855039158E-002
  1.584287084031326E-002  1.188215313023495E-002  7.921435420156629E-003
  3.960717710078312E-003  0.000000000000000E+000  3.960717710078315E-002
  3.564645939070483E-002  3.168574168062652E-002  2.772502397054821E-002
  2.376430626046989E-002  1.980358855039158E-002  1.584287084031326E-002
  1.188215313023495E-002  7.921435420156629E-003  3.960717710078312E-003
  0.000000000000000E+000  3.960717710078315E-002  3.564645939070483E-002
  3.168574168062652E-002  2.772502397054821E-002  2.376430626046989E-002
  1.980358855039158E-002  1.584287084031326E-002  1.188215313023495E-002
  7.921435420156629E-003  3.960717710078312E-003  0.000000000000000E+000
  3.960717710078315E-002  3.564645939070483E-002  3.168574168062652E-002
  2.772502397054821E-002  2.376430626046989E-002  1.980358855039158E-002
  1.584287084031326E-002  1.188215313023495E-002  7.921435420156629E-003
  3.960717710078312E-003  0.000000000000000E+000  3.960717710078315E-002
  3.564645939070483E-002  3.168574168062652E-002  2.772502397054821E-002
  2.376430626046989E-002  1.980358855039158E-002  1.584287084031326E-002
  1.188215313023495E-002  7.921435420156629E-003  3.960717710078312E-003
  0.000000000000000E+000  3.960717710078315E-002  3.564645939070483E-002
  3.168574168062652E-002  2.772502397054821E-002  2.376430626046989E-002
  1.980358855039158E-002  1.584287084031326E-002  1.188215313023495E-002
  7.921435420156629E-003  3.960717710078312E-003  0.000000000000000E+000
  3.960717710078315E-002  3.564645939070483E-002  3.168574168062652E-002
  2.772502397054821E-002  2.376430626046989E-002  1.980358855039158E-002
  1.584287084031326E-002  1.188215313023495E-002  7.921435420156629E-003
  3.960717710078312E-003  0.000000000000000E+000  3.960717710078315E-002
  3.564645939070483E-002  3.168574168062652E-002  2.772502397054821E-002
  2.376430626046989E-002  1.980358855039158E-002  1.584287084031326E-002
  1.188215313023495E-002  7.921435420156629E-003  3.960717710078312E-003
  0.000000000000000E+000  3.960717710078315E-002  3.564645939070483E-002
  3.168574168062652E-002  2.772502397054821E-002  2.376430626046989E-002
  1.980358855039158E-002  1.584287084031326E-002  1.188215313023495E-002
  7.921435420156629E-003  3.960717710078312E-003  0.000000000000000E+000
  3.960717710078315E-002  3.564645939070483E-002  3.168574168062652E-002
  2.772502397054821E-002  2.376430626046989E-002  1.980358855039158E-002
  1.584287084031326E-002  1.188215313023495E-002  7.921435420156629E-003
  3.960717710078312E-003  0.000000000000000E+000  3.960717710078315E-002
  3.564645939070483E-002  3.168574168062652E-002  2.772502397054821E-002
  2.376430626046989E-002  1.980358855039158E-002  1.584287084031326E-002
  1.188215313023495E-002  7.921435420156629E-003  3.960717710078312E-003
  0.000000000000000E+000  3.960717710078315E-002  3.564645939070483E-002
  3.168574168062652E-002  2.772502397054821E-002  2.376430626046989E-002
  1.980358855039158E-002  1.584287084031326E-002  1.188215313023495E-002
  7.921435420156629E-003  3.960717710078312E-003  0.000000000000000E+000
  3.960717710078315E-002  3.564645939070483E-002  3.168574168062652E-002
  2.772502397054821E-002  2.376430626046989E-002  1.980358855039158E-002
  1.584287084031326E-002  1.188215313023495E-002  7.921435420156629E-003
  3.960717710078312E-003  0.000000000000000E+000  3.960717710078315E-002
  3.564645939070483E-002  3.168574168062652E-002  2.772502397054821E-002
  2.376430626046989E-002  1.980358855039158E-002  1.584287084031326E-002
  1.188215313023495E-002  7.921435420156629E-003  3.960717710078312E-003
  0.000000000000000E+000  3.960717710078315E-002  3.564645939070483E-002
  3.168574168062652E-002  2.772502397054821E-002  2.376430626046989E-002
  1.980358855039158E-002  1.584287084031326E-002  1.188215313023495E-002
  7.921435420156629E-003  3.960717710078312E-003  0.000000000000000E+000
  3.960717710078315E-002  3.564645939070483E-002  3.168574168062652E-002
  2.772502397054821E-002  2.376430626046989E-002  1.980358855039158E-002
  1.584287084031326E-002  1.188215313023495E-002  7.921435420156629E-003
  3.960717710078312E-003  0.000000000000000E+000  3.960717710078315E-002
  3.564645939070483E-002  3.168574168062652E-002  2.772502397054821E-002
  2.376430626046989E-002  1.980358855039158E-002  1.584287084031326E-002
  1.188215313023495E-002  7.921435420156629E-003  3.960717710078312E-003
  0.000000000000000E+000  3.960717710078315E-002  3.564645939070483E-002
  3.168574168062652E-002  2.772502397054821E-002  2.376430626046989E-002
  1.980358855039158E-002  1.584287084031326E-002  1.188215313023495E-002
  7.921435420156629E-003  3.960717710078312E-003  0.000000000000000E+000
  3.960717710078315E-002  3.564645939070483E-002  3.168574168062652E-002
  2.772502397054821E-002  2.376430626046989E-002  1.980358855039158E-002
  1.584287084031326E-002  1.188215313023495E-002  7.921435420156629E-003
  3.960717710078312E-003  0.000000000000000E+000  3.960717710078315E-002
  3.564645939070483E-002  3.168574168062652E-002  2.772502397054821E-002
  2.376430626046989E-002  1.980358855039158E-002  1.584287084031326E-002
  1.188215313023495E-002  7.921435420156629E-003  3.960717710078312E-003
  0.000000000000000E+000  3.960717710078315E-002  3.564645939070483E-002
  3.168574168062652E-002  2.772502397054821E-002  2.376430626046989E-002
  1.980358855039158E-002  1.584287084031326E-002  1.188215313023495E-002
  7.921435420156629E-003  3.960717710078312E-003  0.000000000000000E+000
  3.960717710078315E-002  3.564645939070483E-002  3.168574168062652E-002
  2.772502397054821E-002  2.376430626046989E-002  1.980358855039158E-002
  1.584287084031326E-002  1.188215313023495E-002  7.921435420156629E-003
  3.960717710078312E-003  0.000000000000000E+000  3.960717710078315E-002
  3.564645939070483E-002  3.168574168062652E-002  2.772502397054821E-002
  2.376430626046989E-002  1.980358855039158E-002  1.584287084031326E-002
  1.188215313023495E-002  7.921435420156629E-003  3.960717710078312E-003
  0.000000000000000E+000
  6.446104775141792E-002  0.108635937067335       0.150498558356253     
  0.190773335884300       0.228614994923605       0.263144536566104     
  0.293670103582600       0.319522990175674       0.340016849670067     
  0.354032313034483       0.111145339483306       0.186959494255545     
  0.258173534789316       0.326687297124837       0.391233617332532     
  0.450307991587296       0.502678355950464       0.547202148760743     
  0.582892151784670       0.608783590777941       0.161635834978905     
  0.268791703573123       0.367505603828700       0.462315483168018     
  0.552287814158677       0.635447165620223       0.709825073529647     
  0.773627397391961       0.825234669860006       0.861478173650425     
  0.215443808640374       0.349600692552776       0.468650342911824     
  0.581294103330913       0.688601653081961       0.789171999937396     
  0.880379989985027       0.959355485225965        1.02305002839390     
   1.06564050531366       0.276856354464405       0.436142325707948     
  0.569074177067101       0.689194865979603       0.800454589578673     
  0.903411808933463       0.996601518236372        1.07775433626613     
   1.14302570159436        1.18442596198625       0.352235093838912     
  0.541710292158359       0.690845826541126       0.818259461058105     
  0.929914370530038        1.02803991766560        1.11336735001923     
   1.18564794058848        1.24273913885972        1.27898932092764     
  0.444823409494381       0.673528968964717       0.846878822540661     
  0.990135411945880        1.11190368454011        1.21597590460413     
   1.30427044073676        1.37755909225077        1.43521065191250     
   1.47377662393478       0.555578104819916       0.832993183607472     
   1.03833610991633        1.20491013535605        1.34457034553518     
   1.46282885700445        1.56261999050783        1.64543838714850     
   1.71125650686980        1.75675105019353       0.684386211756243     
   1.01935366099593        1.26320982373660        1.45846455615103     
   1.62064823770589        1.75719900440451        1.87211389817274     
   1.96736304743301        2.04297999888708        2.09530479650141     
  0.830537844840394        1.23150385102676        1.51993559432289     
   1.74857289562951        1.93691680719500        2.09437493991591     
   2.22598485595449        2.33424104527207        2.41938974030534     
   2.47761192460064       0.992815802659605        1.46737801510328     
   1.80559697629488        2.07138286304151        2.28852656001772     
   2.46860044387496        2.61787689753681        2.73957191189826     
   2.83426662757937        2.89801167194273        1.16891740250958     
   1.72333538183873        2.11545691422973        2.42130065003165     
   2.66934436794164        2.87354012180677        3.04151251092732     
   3.17727028059954        3.28179473778432        3.35105968024176     
   1.35625621276360        1.99543889182266        2.44463158369437     
   2.79275231753609        3.07326303029329        3.30265436901852     
   3.49002296579358        3.64026328466550        3.75482797417615     
   3.82967942948373        1.55296822191845        2.28072520638955     
   2.78919608922723        3.18090560108844        3.49460677394561     
   3.74951834749666        3.95634042397386        4.12095668161895     
   4.24538614426350        4.32568439518065        1.75916442917465     
   2.57871051612509        3.14780514014159        3.58343208309060     
   3.93002118964672        4.20976358758175        4.43515298365280     
   4.61322426927729        4.74670723211861        4.83190841023077     
   1.97882323615158        2.89385604035883        3.52436729092738     
   4.00323176339056        4.38123830539274        4.68396420433801     
   4.92598142903992        5.11568811377345        5.25670614832996     
   5.34581411067274        2.21878670761621        3.23380094360338     
   3.92580226194368        4.44606739143679        4.85290459416436     
   5.17590027311853        5.43203497469170        5.63125427645513     
   5.77820690343715        5.87029185053126        2.46876764673764     
   3.58283248661792        4.33249947959557        4.88944492497325     
   5.32039708164293        5.65938087858290        5.92598383325392     
   6.13180062301749        6.28258681930930        6.37648722695293     
   2.68299253334529        3.87415830735823        4.66352852249343     
   5.24214684061627        5.68465190091018        6.02903054967834     
   6.29716556222259        6.50215388402785        6.65084662627142     
   6.74245716724674        2.81273572333697        4.03761083923526     
   4.83518611286183        5.41136914677111        5.84702107046069     
   6.18311084327064        6.44305990288514        6.64077443397453     
   6.78358223964554        6.87134724264629        2.78142706865271     
   3.96245936210388        4.71372517488887        5.24569414632043     
   5.64148305903793        5.94303248508814        6.17381896153448     
   6.34728006879689        6.47026716322192        6.54346450456238     
   2.58040396158659        3.62819079575722        4.27213129679828     
   4.71785303405095        5.04466748582250        5.29115170771195     
   5.47810085588358        5.61687034577518        5.71275904390942     
   5.76626102887896        2.22270928166451        3.05466685839163     
   3.54663395318342        3.88229271670567        4.12713013341370     
   4.31139941188967        4.45097886773897        4.55446300117169     
   4.62604705748243        4.66681288267520        1.69661479071879     
   2.25779903198230        2.58523284895976        2.80917335420026     
   2.97311975237020        3.09689106898336        3.19092510699876     
   3.26111323632467        3.31126444527465        3.34712269004619     
   1.03079987125911        1.34503256277139        1.53010405530912     
   1.65738714376125        1.75089240407373        1.82164377706249     
   1.87547631981014        1.91567069532172        1.94407325676988     
   1.96113396025600     
  0.000000000000000E+000  0.000000000000000E+000  0.000000000000000E+000
  0.000000000000000E+000  0.000000000000000E+000  0.000000000000000E+000
  0.000000000000000E+000  0.000000000000000E+000  0.000000000000000E+000
  0.000000000000000E+000  0.000000000000000E+000  0.000000000000000E+000
  0.000000000000000E+000  0.000000000000000E+000  0.000000000000000E+000
  0.000000000000000E+000  0.000000000000000E+000  0.000000000000000E+000
  0.000000000000000E+000  0.000000000000000E+000  0.000000000000000E+000
  0.000000000000000E+000  0.000000000000000E+000  0.000000000000000E+000
  0.000000000000000E+000  0.000000000000000E+000  0.000000000000000E+000
  0.000000000000000E+000  0.000000000000000E+000  0.000000000000000E+000
  0.000000000000000E+000  0.000000000000000E+000  0.000000000000000E+000
  0.000000000000000E+000  0.000000000000000E+000  0.000000000000000E+000
  0.000000000000000E+000  0.000000000000000E+000  0.000000000000000E+000
  0.000000000000000E+000  0.000000000000000E+000  0.000000000000000E+000
  0.000000000000000E+000  0.000000000000000E+000  0.000000000000000E+000
  0.000000000000000E+000  0.000000000000000E+000  0.000000000000000E+000
  0.000000000000000E+000  0.000000000000000E+000  0.000000000000000E+000
  0.000000000000000E+000  0.000000000000000E+000  0.000000000000000E+000
  0.000000000000000E+000  0.000000000000000E+000  0.000000000000000E+000
  0.000000000000000E+000  0.000000000000000E+000  0.000000000000000E+000
  0.000000000000000E+000  0.000000000000000E+000  0.000000000000000E+000
  0.000000000000000E+000  0.000000000000000E+000  0.000000000000000E+000
  0.000000000000000E+000  0.000000000000000E+000  0.000000000000000E+000
  0.000000000000000E+000  0.000000000000000E+000  0.000000000000000E+000
  0.000000000000000E+000  0.000000000000000E+000  0.000000000000000E+000
  0.000000000000000E+000  0.000000000000000E+000  0.000000000000000E+000
  0.000000000000000E+000  0.000000000000000E+000  0.000000000000000E+000
  0.000000000000000E+000  0.000000000000000E+000  0.000000000000000E+000
  0.000000000000000E+000  0.000000000000000E+000  0.000000000000000E+000
  0.000000000000000E+000  0.000000000000000E+000  0.000000000000000E+000
  0.000000000000000E+000  0.000000000000000E+000  0.000000000000000E+000
  0.000000000000000E+000  0.000000000000000E+000  0.000000000000000E+000
  0.000000000000000E+000  0.000000000000000E+000  0.000000000000000E+000
  0.000000000000000E+000  0.000000000000000E+000  0.000000000000000E+000
  0.000000000000000E+000  0.000000000000000E+000  0.000000000000000E+000
  0.000000000000000E+000  0.000000000000000E+000  0.000000000000000E+000
  0.000000000000000E+000  0.000000000000000E+000  0.000000000000000E+000
  0.000000000000000E+000  0.000000000000000E+000  0.000000000000000E+000
  0.000000000000000E+000  0.000000000000000E+000  0.000000000000000E+000