 Title = "Wing and Wake"
 VARIABLES = "X" "Y" "Z" "GAM" "skew"
 Zone I=   11 J=   26 K=1  T="Blade"
 DATAPACKING=BLOCK
 VARLOCATION=([4]=CELLCENTERED,[5]=CELLCENTERED)
 -7.978664192631733E-003  5.727472818646832E-003  1.943360982992549E-002
  3.313974684120425E-002  4.684588385248305E-002  6.055202086376141E-002
  7.425815787504020E-002  8.796429488631871E-002  0.101670431897597     
  0.115376568908876       0.129082705920155      -5.434635555638539E-003
  8.271501455640226E-003  2.197763846691874E-002  3.568377547819739E-002
  4.938991248947589E-002  6.309604950075461E-002  7.680218651203322E-002
  9.050832352331163E-002  0.104214460534591       0.117920597545869     
  0.131626734557148       2.157329504006259E-003  1.586346651528472E-002
  2.956960352656352E-002  4.327574053784216E-002  5.698187754912051E-002
  7.068801456039929E-002  8.439415157167827E-002  9.810028858295661E-002
  0.111806425594235       0.125512562605514       0.139218699616792     
  1.467750116209210E-002  2.838363817337103E-002  4.208977518464972E-002
  5.579591219592807E-002  6.950204920720662E-002  8.320818621848529E-002
  9.691432322976389E-002  0.110620460241042       0.124326597252321     
  0.138032734263600       0.151738871274878       3.192842883238274E-002
  4.563456584366118E-002  5.934070285494016E-002  7.304683986621867E-002
  8.675297687749729E-002  0.100459113888776       0.114165250900055     
  0.127871387911333       0.141577524922612       0.155283661933890     
  0.168989798945169       5.363805508031341E-002  6.734419209159236E-002
  8.105032910287054E-002  9.475646611414940E-002  0.108462603125428     
  0.122168740136707       0.135874877147985       0.149581014159264     
  0.163287151170543       0.176993288181821       0.190699425193100     
  7.946400613125197E-002  9.317014314253040E-002  0.106876280153809     
  0.120582417165088       0.134288554176366       0.147994691187646     
  0.161700828198924       0.175406965210202       0.189113102221480     
  0.202819239232759       0.216525376244037       0.108998991309450     
  0.122705128320728       0.136411265332007       0.150117402343286     
  0.163823539354564       0.177529676365842       0.191235813377121     
  0.204941950388400       0.218648087399678       0.232354224410957     
  0.246060361422236       0.141777226255301       0.155483363266581     
  0.169189500277859       0.182895637289137       0.196601774300416     
  0.210307911311694       0.224014048322973       0.237720185334252     
  0.251426322345531       0.265132459356809       0.278838596368087     
  0.177281778622943       0.190987915634221       0.204694052645500     
  0.218400189656779       0.232106326668057       0.245812463679335     
  0.259518600690614       0.273224737701893       0.286930874713171     
  0.300637011724450       0.314343148735728       0.214952720412145     
  0.228658857423423       0.242364994434701       0.256071131445980     
  0.269777268457259       0.283483405468538       0.297189542479815     
  0.310895679491095       0.324601816502373       0.338307953513652     
  0.352014090524930       0.254195958367361       0.267902095378639     
  0.281608232389919       0.295314369401196       0.309020506412475     
  0.322726643423754       0.336432780435033       0.350138917446311     
  0.363845054457590       0.377551191468868       0.391257328480146     
  0.294392603183265       0.308098740194543       0.321804877205822     
  0.335511014217100       0.349217151228379       0.362923288239657     
  0.376629425250937       0.390335562262215       0.404041699273493     
  0.417747836284772       0.431453973296050       0.334908729758797     
  0.348614866770075       0.362321003781352       0.376027140792631     
  0.389733277803911       0.403439414815190       0.417145551826469     
  0.430851688837745       0.444557825849027       0.458263962860304     
  0.471970099871582       0.375105374574699       0.388811511585977     
  0.402517648597257       0.416223785608535       0.429929922619814     
  0.443636059631093       0.457342196642371       0.471048333653651     
  0.484754470664928       0.498460607676206       0.512166744687486     
  0.414348612529916       0.428054749541194       0.441760886552474     
  0.455467023563751       0.469173160575031       0.482879297586309     
  0.496585434597587       0.510291571608866       0.523997708620144     
  0.537703845631422       0.551409982642703       0.452019554319118     
  0.465725691330396       0.479431828341674       0.493137965352954     
  0.506844102364232       0.520550239375511       0.534256376386790     
  0.547962513398069       0.561668650409347       0.575374787420626     
  0.589080924431904       0.487524106686759       0.501230243698038     
  0.514936380709316       0.528642517720595       0.542348654731873     
  0.556054791743153       0.569760928754431       0.583467065765709     
  0.597173202776988       0.610879339788266       0.624585476799544     
  0.520302341632611       0.534008478643889       0.547714615655168     
  0.561420752666446       0.575126889677725       0.588833026689004     
  0.602539163700281       0.616245300711561       0.629951437722840     
  0.643657574734119       0.657363711745396       0.549837326810808     
  0.563543463822087       0.577249600833365       0.590955737844646     
  0.604661874855922       0.618368011867201       0.632074148878479     
  0.645780285889759       0.659486422901038       0.673192559912317     
  0.686898696923593       0.575663277861747       0.589369414873026     
  0.603075551884303       0.616781688895581       0.630487825906861     
  0.644193962918139       0.657900099929419       0.671606236940697     
  0.685312373951975       0.699018510963254       0.712724647974532     
  0.597372904109676       0.611079041120955       0.624785178132235     
  0.638491315143513       0.652197452154791       0.665903589166071     
  0.679609726177349       0.693315863188627       0.707022000199905     
  0.720728137211186       0.734434274222465       0.614623831779969     
  0.628329968791246       0.642036105802524       0.655742242813804     
  0.669448379825083       0.683154516836361       0.696860653847639     
  0.710566790858920       0.724272927870197       0.737979064881475     
  0.751685201892754       0.627144003438054       0.640850140449331     
  0.654556277460610       0.668262414471889       0.681968551483169     
  0.695674688494448       0.709380825505726       0.723086962517005     
  0.736793099528281       0.750499236539562       0.764205373550840     
  0.634735968497697       0.648442105508976       0.662148242520254     
  0.675854379531533       0.689560516542813       0.703266653554093     
  0.716972790565371       0.730678927576649       0.744385064587928     
  0.758091201599206       0.771797338610483       0.637279997134690     
  0.650986134145971       0.664692271157248       0.678398408168528     
  0.692104545179806       0.705810682191085       0.719516819202364     
  0.733222956213641       0.746929093224921       0.760635230236199     
  0.774341367247480     
  0.266388119088328       0.253764449912961       0.241140780737593     
  0.228517111562226       0.215893442386858       0.203269773211490     
  0.190646104036123       0.178022434860755       0.165398765685388     
  0.152775096510020       0.140151427334653       0.269150295803739     
  0.256526626628372       0.243902957453003       0.231279288277637     
  0.218655619102268       0.206031949926901       0.193408280751533     
  0.180784611576166       0.168160942400798       0.155537273225431     
  0.142913604050063       0.277393264773123       0.264769595597756     
  0.252145926422388       0.239522257247020       0.226898588071653     
  0.214274918896285       0.201651249720918       0.189027580545550     
  0.176403911370183       0.163780242194815       0.151156573019447     
  0.290987029451724       0.278363360276356       0.265739691100989     
  0.253116021925622       0.240492352750254       0.227868683574886     
  0.215245014399519       0.202621345224151       0.189997676048783     
  0.177374006873416       0.164750337698048       0.309717208050037     
  0.297093538874670       0.284469869699302       0.271846200523935     
  0.259222531348567       0.246598862173200       0.233975192997832     
  0.221351523822465       0.208727854647097       0.196104185471730     
  0.183480516296362       0.333288414462702       0.320664745287336     
  0.308041076111967       0.295417406936600       0.282793737761233     
  0.270170068585865       0.257546399410497       0.244922730235130     
  0.232299061059762       0.219675391884394       0.207051722709027     
  0.361328916683835       0.348705247508467       0.336081578333100     
  0.323457909157733       0.310834239982364       0.298210570806998     
  0.285586901631630       0.272963232456262       0.260339563280895     
  0.247715894105527       0.235092224930159       0.393396499242824     
  0.380772830067456       0.368149160892089       0.355525491716722     
  0.342901822541353       0.330278153365986       0.317654484190618     
  0.305030815015251       0.292407145839883       0.279783476664515     
  0.267159807489149       0.428985437206468       0.416361768031101     
  0.403738098855733       0.391114429680366       0.378490760504999     
  0.365867091329630       0.353243422154262       0.340619752978895     
  0.327996083803528       0.315372414628160       0.302748745452792     
  0.467534471763280       0.454910802587913       0.442287133412545     
  0.429663464237177       0.417039795061810       0.404416125886442     
  0.391792456711074       0.379168787535708       0.366545118360339     
  0.353921449184972       0.341297780009604       0.508435661610223     
  0.495811992434855       0.483188323259487       0.470564654084120     
  0.457940984908752       0.445317315733385       0.432693646558016     
  0.420069977382649       0.407446308207282       0.394822639031914     
  0.382198969856546       0.551043970550221       0.538420301374854     
  0.525796632199487       0.513172963024117       0.500549293848751     
  0.487925624673384       0.475301955498016       0.462678286322648     
  0.450054617147280       0.437430947971913       0.424807278796545     
  0.594687440098324       0.582063770922957       0.569440101747588     
  0.556816432572222       0.544192763396854       0.531569094221486     
  0.518945425046118       0.506321755870751       0.493698086695383     
  0.481074417520015       0.468450748344648       0.638677786668413     
  0.626054117493043       0.613430448317676       0.600806779142308     
  0.588183109966941       0.575559440791574       0.562935771616205     
  0.550312102440838       0.537688433265472       0.525064764090103     
  0.512441094914735       0.682321256216513       0.669697587041145     
  0.657073917865779       0.644450248690410       0.631826579515042     
  0.619202910339677       0.606579241164308       0.593955571988940     
  0.581331902813572       0.568708233638204       0.556084564462838     
  0.724929565156513       0.712305895981144       0.699682226805777     
  0.687058557630411       0.674434888455043       0.661811219279675     
  0.649187550104307       0.636563880928940       0.623940211753572     
  0.611316542578203       0.598692873402837       0.765830755003455     
  0.753207085828087       0.740583416652719       0.727959747477353     
  0.715336078301984       0.702712409126617       0.690088739951249     
  0.677465070775883       0.664841401600514       0.652217732425146     
  0.639594063249780       0.804379789560267       0.791756120384898     
  0.779132451209531       0.766508782034164       0.753885112858796     
  0.741261443683430       0.728637774508061       0.716014105332693     
  0.703390436157326       0.690766766981958       0.678143097806591     
  0.839968727523910       0.827345058348542       0.814721389173175     
  0.802097719997808       0.789474050822441       0.776850381647073     
  0.764226712471704       0.751603043296338       0.738979374120971     
  0.726355704945602       0.713732035770234       0.872036310082900     
  0.859412640907531       0.846788971732163       0.834165302556797     
  0.821541633381430       0.808917964206060       0.796294295030694     
  0.783670625855327       0.771046956679958       0.758423287504591     
  0.745799618329223       0.900076812304031       0.887453143128666     
  0.874829473953295       0.862205804777928       0.849582135602561     
  0.836958466427194       0.824334797251827       0.811711128076458     
  0.799087458901092       0.786463789725723       0.773840120550355     
  0.923648018716696       0.911024349541330       0.898400680365961     
  0.885777011190594       0.873153342015227       0.860529672839860     
  0.847906003664491       0.835282334489124       0.822658665313757     
  0.810034996138388       0.797411326963022       0.942378197315010     
  0.929754528139643       0.917130858964274       0.904507189788908     
  0.891883520613540       0.879259851438173       0.866636182262806     
  0.854012513087439       0.841388843912070       0.828765174736703     
  0.816141505561333       0.955971961993612       0.943348292818244     
  0.930724623642876       0.918100954467509       0.905477285292142     
  0.892853616116773       0.880229946941407       0.867606277766038     
  0.854982608590669       0.842358939415301       0.829735270239934     
  0.964214930962994       0.951591261787628       0.938967592612262     
  0.926343923436892       0.913720254261525       0.901096585086157     
  0.888472915910789       0.875849246735422       0.863225577560056     
  0.850601908384687       0.837978239209319       0.966977107678405     
  0.954353438503037       0.941729769327671       0.929106100152303     
  0.916482430976935       0.903858761801569       0.891235092626202     
  0.878611423450832       0.865987754275466       0.853364085100097     
  0.840740415924732     
  3.960717710078315E-002  3.564645939070483E-002  3.168574168062652E-002
  2.772502397054821E-002  2.376430626046989E-002  1.980358855039158E-002
  1.584287084031326E-002  1.188215313023495E-002  7.921435420156629E-003
  3.960717710078312E-003  0.000000000000000E+000  3.960717710078315E-002
  3.564645939070483E-002  3.168574168062652E-002  2.772502397054821E-002
  2.376430626046989E-002  1.980358855039158E-002  1.584287084031326E-002
  1.188215313023495E-002  7.921435420156629E-003  3.960717710078312E-003
  0.000000000000000E+000  3.960717710078315E-002  3.564645939070483E-002
  3.168574168062652E-002  2.772502397054821E-002  2.376430626046989E-002
  1.980358855039158E-002  1.584287084031326E-002  1.188215313023495E-002
  7.921435420156629E-003  3.960717710078312E-003  0.000000000000000E+000
  3.960717710078315E-002  3.564645939070483E-002  3.168574168062652E-002
  2.772502397054821E-002  2.376430626046989E-002  1.980358855039158E-002
  1.584287084031326E-002  1.188215313023495E-002  7.921435420156629E-003
  3.960717710078312E-003  0.000000000000000E+000  3.960717710078315E-002
  3.564645939070483E-002  3.168574168062652E-002  2.772502397054821E-002
  2.376430626046989E-002  1.980358855039158E-002  1.584287084031326E-002
  1.188215313023495E-002  7.921435420156629E-003  3.960717710078312E-003
  0.000000000000000E+000  3.960717710078315E-002  3.564645939070483E-002
  3.168574168062652E-002  2.772502397054821E-002  2.376430626046989E-002
  1.980358855039158E-002  1.584287084031326E-002  1.188215313023495E-002
  7.921435420156629E-003  3.960717710078312E-003  0.000000000000000E+000
  3.960717710078315E-002  3.564645939070483E-002  3.168574168062652E-002
  2.772502397054821E-002  2.376430626046989E-002  1.980358855039158E-002
  1.584287084031326E-002  1.188215313023495E-002  7.921435420156629E-003
  3.960717710078312E-003  0.000000000000000E+000  3.960717710078315E-002
  3.564645939070483E-002  3.168574168062652E-002  2.772502397054821E-002
  2.376430626046989E-002  1.980358855039158E-002  1.584287084031326E-002
  1.188215313023495E-002  7.921435420156629E-003  3.960717710078312E-003
  0.000000000000000E+000  3.960717710078315E-002  3.564645939070483E-002
  3.168574168062652E-002  2.772502397054821E-002  2.376430626046989E-002
  1.980358855039158E-002  1.584287084031326E-002  1.188215313023495E-002
  7.921435420156629E-003  3.960717710078312E-003  0.000000000000000E+000
  3.960717710078315E-002  3.564645939070483E-002  3.168574168062652E-002
  2.772502397054821E-002  2.376430626046989E-002  1.980358855039158E-002
  1.584287084031326E-002  1.188215313023495E-002  7.921435420156629E-003
  3.960717710078312E-003  0.000000000000000E+000  3.960717710078315E-002
  3.564645939070483E-002  3.168574168062652E-002  2.772502397054821E-002
  2.376430626046989E-002  1.980358855039158E-002  1.584287084031326E-002
  1.188215313023495E-002  7.921435420156629E-003  3.960717710078312E-003
  0.000000000000000E+000  3.960717710078315E-002  3.564645939070483E-002
  3.168574168062652E-002  2.772502397054821E-002  2.376430626046989E-002
  1.980358855039158E-002  1.584287084031326E-002  1.188215313023495E-002
  7.921435420156629E-003  3.960717710078312E-003  0.000000000000000E+000
  3.960717710078315E-002  3.564645939070483E-002  3.168574168062652E-002
  2.772502397054821E-002  2.376430626046989E-002  1.980358855039158E-002
  1.584287084031326E-002  1.188215313023495E-002  7.921435420156629E-003
  3.960717710078312E-003  0.000000000000000E+000  3.960717710078315E-002
  3.564645939070483E-002  3.168574168062652E-002  2.772502397054821E-002
  2.376430626046989E-002  1.980358855039158E-002  1.584287084031326E-002
  1.188215313023495E-002  7.921435420156629E-003  3.960717710078312E-003
  0.000000000000000E+000  3.960717710078315E-002  3.564645939070483E-002
  3.168574168062652E-002  2.772502397054821E-002  2.376430626046989E-002
  1.980358855039158E-002  1.584287084031326E-002  1.188215313023495E-002
  7.921435420156629E-003  3.960717710078312E-003  0.000000000000000E+000
  3.960717710078315E-002  3.564645939070483E-002  3.168574168062652E-002
  2.772502397054821E-002  2.376430626046989E-002  1.980358855039158E-002
  1.584287084031326E-002  1.188215313023495E-002  7.921435420156629E-003
  3.960717710078312E-003  0.000000000000000E+000  3.960717710078315E-002
  3.564645939070483E-002  3.168574168062652E-002  2.772502397054821E-002
  2.376430626046989E-002  1.980358855039158E-002  1.584287084031326E-002
  1.188215313023495E-002  7.921435420156629E-003  3.960717710078312E-003
  0.000000000000000E+000  3.960717710078315E-002  3.564645939070483E-002
  3.168574168062652E-002  2.772502397054821E-002  2.376430626046989E-002
  1.980358855039158E-002  1.584287084031326E-002  1.188215313023495E-002
  7.921435420156629E-003  3.960717710078312E-003  0.000000000000000E+000
  3.960717710078315E-002  3.564645939070483E-002  3.168574168062652E-002
  2.772502397054821E-002  2.376430626046989E-002  1.980358855039158E-002
  1.584287084031326E-002  1.188215313023495E-002  7.921435420156629E-003
  3.960717710078312E-003  0.000000000000000E+000  3.960717710078315E-002
  3.564645939070483E-002  3.168574168062652E-002  2.772502397054821E-002
  2.376430626046989E-002  1.980358855039158E-002  1.584287084031326E-002
  1.188215313023495E-002  7.921435420156629E-003  3.960717710078312E-003
  0.000000000000000E+000  3.960717710078315E-002  3.564645939070483E-002
  3.168574168062652E-002  2.772502397054821E-002  2.376430626046989E-002
  1.980358855039158E-002  1.584287084031326E-002  1.188215313023495E-002
  7.921435420156629E-003  3.960717710078312E-003  0.000000000000000E+000
  3.960717710078315E-002  3.564645939070483E-002  3.168574168062652E-002
  2.772502397054821E-002  2.376430626046989E-002  1.980358855039158E-002
  1.584287084031326E-002  1.188215313023495E-002  7.921435420156629E-003
  3.960717710078312E-003  0.000000000000000E+000  3.960717710078315E-002
  3.564645939070483E-002  3.168574168062652E-002  2.772502397054821E-002
  2.376430626046989E-002  1.980358855039158E-002  1.584287084031326E-002
  1.188215313023495E-002  7.921435420156629E-003  3.960717710078312E-003
  0.000000000000000E+000  3.960717710078315E-002  3.564645939070483E-002
  3.168574168062652E-002  2.772502397054821E-002  2.376430626046989E-002
  1.980358855039158E-002  1.584287084031326E-002  1.188215313023495E-002
  7.921435420156629E-003  3.960717710078312E-003  0.000000000000000E+000
  3.960717710078315E-002  3.564645939070483E-002  3.168574168062652E-002
  2.772502397054821E-002  2.376430626046989E-002  1.980358855039158E-002
  1.584287084031326E-002  1.188215313023495E-002  7.921435420156629E-003
  3.960717710078312E-003  0.000000000000000E+000  3.960717710078315E-002
  3.564645939070483E-002  3.168574168062652E-002  2.772502397054821E-002
  2.376430626046989E-002  1.980358855039158E-002  1.584287084031326E-002
  1.188215313023495E-002  7.921435420156629E-003  3.960717710078312E-003
  0.000000000000000E+000
  2.015313153823871E-002  4.262173332959298E-002  6.605522993774413E-002
  8.990311010272765E-002  0.113352263747104       0.135327215720006     
  0.155246594720867       0.174064829340738       0.192698832974254     
  0.210745792473383       3.823823797914592E-002  7.684153775878926E-002
  0.116667562929163       0.157054709877917       0.196776705027749     
  0.234209705453708       0.268538060656079       0.301024983082305     
  0.333126372275527       0.364671305911378       6.769531933632135E-002
  0.124043031253351       0.179920947555203       0.235763338806250     
  0.290628997740636       0.343067783158993       0.392306492884740     
  0.439064574975381       0.484369187647303       0.526718751962889     
  0.111940756759799       0.189108210210128       0.260479395334218     
  0.329510794540347       0.396692306655146       0.461571446301727     
  0.523562697147276       0.582389930755795       0.637543428309783     
  0.686229782199536       0.173805320941555       0.277935949114015     
  0.367126393317247       0.449418340463561       0.527331564711663     
  0.601615185417841       0.672109195634372       0.738174953600448     
  0.798564754113278       0.849534182179925       0.255871461794623     
  0.396058936300426       0.508912392049387       0.608214630387619     
  0.698611348708027       0.781901226128594       0.858538235324517     
  0.928181518632400       0.989669813012454        1.03911735681093     
  0.360080157601004       0.546835326984638       0.690624434926836     
  0.812301080988364       0.919097639223664        1.01409461369298     
   1.09856107570045        1.17272375105396        1.23573682151356     
   1.28383456256577       0.485682279300397       0.728810774888816     
  0.910089388506261        1.05897564576258        1.18601708200255     
   1.29602216592487        1.39129997390435        1.47269751481730     
   1.53964094609870        1.58836084067392       0.629253108069138     
  0.937021003837809        1.16146399361755        1.34193689438629     
   1.49282793905084        1.62092791769208        1.72969541477467     
   1.82062469235265        1.89344046714141        1.94439291649960     
  0.787809328478369        1.16733073965369        1.43999898977455     
   1.65605732720428        1.83410187990284        1.98307601403561     
   2.10768571571450        2.21015904820996        2.29056264534293     
   2.34510760247126       0.959518248079634        1.41701492485636     
   1.74232765696288        1.99745712627788        2.20553735219165     
   2.37782047809254        2.52034712948763        2.63612868378614     
   2.72562728743831        2.78501613937957        1.14278173676533     
   1.68361681031763        2.06531821464456        2.36242110928023     
   2.60288340928347        2.80040068508454        2.96243801441353     
   3.09288781465114        3.19266051057311        3.25783946432469     
   1.33590912208483        1.96445635411676        2.40542858329363     
   2.74658906088064        3.02099895086332        3.24496266369224     
   3.42746693444787        3.57333318916689        3.68397033427940     
   3.75542740394216        1.53742714921945        2.25702981563408     
   2.75917734979653        3.14551693456091        3.45449577087888     
   3.70519429164193        3.90823810771631        4.06946491050225     
   4.19087315767176        4.26858591138549        1.74756371158838     
   2.56100813144591        3.12536263437860        3.55696020346178     
   3.90000611790516        4.17659132833992        4.39916139223472     
   4.57472644491994        4.70600586414105        4.78936017772599     
   1.97035953539095        2.88091539766963        3.50793290182121     
   3.98382065506761        4.35921143747680        4.65961705956473     
   4.89957728070446        5.08747340447206        5.22692401812060     
   5.31474926338076        2.21260576100675        3.22430673800498     
   3.91369308140304        4.43171310924248        4.83657380737346     
   5.15782179856961        5.41241614777144        5.61028589881361     
   5.75606705692245        5.84717471987628        2.46370410234598     
   3.57503639886411        4.32251764688253        4.87755980818284     
   5.30681768006223        5.64429045024216        5.90954285611348     
   6.11413627985045        6.26378571016332        6.35662009804516     
   2.67790105458876        3.86639084441038        4.65362269436084     
   5.23036871392156        5.67122119855149        6.01414596829112     
   6.28097606570964        6.48473653767115        6.63219413619098     
   6.72250040596724        2.80621510581175        4.02793175138553     
   4.82308586799539        5.39716312885631        5.83094336103604     
   6.16536238551251        6.42377527351415        6.61999903081207     
   6.76125285257952        6.84730360153715        2.77417264330864     
   3.95181095154376        4.70058912313735        5.23046476727161     
   5.62438684225555        5.92422259701478        6.15338535837985     
   6.32524005274906        6.44654863240951        6.51792374667119     
   2.57367122012485        3.61841057623153        4.26018777472297     
   4.70413080314836        5.02937379283727        5.27441140926016     
   5.45998068824195        5.59738072673303        5.69184532125052     
   5.74382269191320        2.21706164712427        3.04661519786175     
   3.53691732441831        3.87121781116232        4.11485731990052     
   4.29802152682636        4.43654417344782        4.53897941024101     
   4.60947628370603        4.64908307795988        1.69240188361208     
   2.25195984670613        2.57826965513579        2.80128775436190     
   2.96441746926468        3.08743315293039        3.18074335365929     
   3.25021253330560        3.29961504828489        3.33464803264694     
   1.02826525646616        1.34158125508267        1.52601165997118     
   1.65276548871208        1.74580081045011        1.81611671005942     
   1.86953195525444        1.90931241178665        1.93728654557641     
   1.95389034170477     
  0.000000000000000E+000  0.000000000000000E+000  0.000000000000000E+000
  0.000000000000000E+000  0.000000000000000E+000  0.000000000000000E+000
  0.000000000000000E+000  0.000000000000000E+000  0.000000000000000E+000
  0.000000000000000E+000  0.000000000000000E+000  0.000000000000000E+000
  0.000000000000000E+000  0.000000000000000E+000  0.000000000000000E+000
  0.000000000000000E+000  0.000000000000000E+000  0.000000000000000E+000
  0.000000000000000E+000  0.000000000000000E+000  0.000000000000000E+000
  0.000000000000000E+000  0.000000000000000E+000  0.000000000000000E+000
  0.000000000000000E+000  0.000000000000000E+000  0.000000000000000E+000
  0.000000000000000E+000  0.000000000000000E+000  0.000000000000000E+000
  0.000000000000000E+000  0.000000000000000E+000  0.000000000000000E+000
  0.000000000000000E+000  0.000000000000000E+000  0.000000000000000E+000
  0.000000000000000E+000  0.000000000000000E+000  0.000000000000000E+000
  0.000000000000000E+000  0.000000000000000E+000  0.000000000000000E+000
  0.000000000000000E+000  0.000000000000000E+000  0.000000000000000E+000
  0.000000000000000E+000  0.000000000000000E+000  0.000000000000000E+000
  0.000000000000000E+000  0.000000000000000E+000  0.000000000000000E+000
  0.000000000000000E+000  0.000000000000000E+000  0.000000000000000E+000
  0.000000000000000E+000  0.000000000000000E+000  0.000000000000000E+000
  0.000000000000000E+000  0.000000000000000E+000  0.000000000000000E+000
  0.000000000000000E+000  0.000000000000000E+000  0.000000000000000E+000
  0.000000000000000E+000  0.000000000000000E+000  0.000000000000000E+000
  0.000000000000000E+000  0.000000000000000E+000  0.000000000000000E+000
  0.000000000000000E+000  0.000000000000000E+000  0.000000000000000E+000
  0.000000000000000E+000  0.000000000000000E+000  0.000000000000000E+000
  0.000000000000000E+000  0.000000000000000E+000  0.000000000000000E+000
  0.000000000000000E+000  0.000000000000000E+000  0.000000000000000E+000
  0.000000000000000E+000  0.000000000000000E+000  0.000000000000000E+000
  0.000000000000000E+000  0.000000000000000E+000  0.000000000000000E+000
  0.000000000000000E+000  0.000000000000000E+000  0.000000000000000E+000
  0.000000000000000E+000  0.000000000000000E+000  0.000000000000000E+000
  0.000000000000000E+000  0.000000000000000E+000  0.000000000000000E+000
  0.000000000000000E+000  0.000000000000000E+000  0.000000000000000E+000
  0.000000000000000E+000  0.000000000000000E+000  0.000000000000000E+000
  0.000000000000000E+000  0.000000000000000E+000  0.000000000000000E+000
  0.000000000000000E+000  0.000000000000000E+000  0.000000000000000E+000
  0.000000000000000E+000  0.000000000000000E+000  0.000000000000000E+000
  0.000000000000000E+000  0.000000000000000E+000  0.000000000000000E+000
  0.000000000000000E+000  0.000000000000000E+000  0.000000000000000E+000