 Title = "Wing and Wake"
 VARIABLES = "X" "Y" "Z" "GAM" "skew"
 Zone I=   11 J=   26 K=1  T="Blade"
 DATAPACKING=BLOCK
 VARLOCATION=([4]=CELLCENTERED,[5]=CELLCENTERED)
  7.660264231998207E-002  6.009799461426466E-002  4.359334690854733E-002
  2.708869920282998E-002  1.058405149711238E-002 -5.920596208604840E-003
 -2.242524391432219E-002 -3.892989162003968E-002 -5.543453932575687E-002
 -7.193918703147428E-002 -8.844383473719172E-002  7.485954554545297E-002
  5.835489783973544E-002  4.185025013401815E-002  2.534560242830087E-002
  8.840954722583493E-003 -7.663692983133851E-003 -2.416834068885123E-002
 -4.067298839456861E-002 -5.717763610028602E-002 -7.368228380600336E-002
 -9.018693151172079E-002  6.965774489927584E-002  5.315309719355863E-002
  3.664844948784111E-002  2.014380178212375E-002  3.639154076406424E-003
 -1.286549362931099E-002 -2.937014133502844E-002 -4.587478904074572E-002
 -6.237943674646312E-002 -7.888408445218052E-002 -9.538873215789787E-002
  6.107927588504573E-002  4.457462817932845E-002  2.806998047361090E-002
  1.156533276789382E-002 -4.939314937823611E-003 -2.144396264354107E-002
 -3.794861034925850E-002 -5.445325805497583E-002 -7.095790576069319E-002
 -8.746255346641060E-002 -0.103967201172128       4.925942608364631E-002
  3.275477837792898E-002  1.625013067221151E-002 -2.545170335057165E-004
 -1.675916473922323E-002 -3.326381244494058E-002 -4.976846015065793E-002
 -6.627310785637526E-002 -8.277775556209267E-002 -9.928240326780997E-002
 -0.115787050973527       3.438460158728149E-002  1.787995388156408E-002
  1.375306175846837E-003 -1.512934152987054E-002 -3.163398923558803E-002
 -4.813863694130566E-002 -6.464328464702268E-002 -8.114793235274009E-002
 -9.765258005845767E-002 -0.114157227764175      -0.130661875469892     
  1.668938726404838E-002  1.847395583310306E-004 -1.631990814738626E-002
 -3.282455585310377E-002 -4.932920355882119E-002 -6.583385126453846E-002
 -8.233849897025566E-002 -9.884314667597319E-002 -0.115347794381690     
 -0.131852442087408      -0.148357089793125      -3.547152785566865E-003
 -2.005180049128425E-002 -3.655644819700165E-002 -5.306109590271897E-002
 -6.956574360843623E-002 -8.607039131415370E-002 -0.102575039019871     
 -0.119079686725588      -0.135584334431306      -0.152088982137023     
 -0.168593629842741      -2.600587623625894E-002 -4.251052394197626E-002
 -5.901517164769347E-002 -7.551981935341071E-002 -9.202446705912821E-002
 -0.108529114764846      -0.125033762470563      -0.141538410176280     
 -0.158043057881998      -0.174547705587715      -0.191052353293432     
 -5.033259560301901E-002 -6.683724330873625E-002 -8.334189101445387E-002
 -9.984653872017134E-002 -0.116351186425889      -0.132855834131606     
 -0.149360481837323      -0.165865129543041      -0.182369777248758     
 -0.198874424954476      -0.215379072660193      -7.614366398935597E-002
 -9.264831169507337E-002 -0.109152959400791      -0.125657607106508     
 -0.142162254812225      -0.158666902517943      -0.175171550223660     
 -0.191676197929378      -0.208180845635095      -0.224685493340812     
 -0.241190141046529      -0.103032025428032      -0.119536673133749     
 -0.136041320839467      -0.152545968545184      -0.169050616250901     
 -0.185555263956619      -0.202059911662336      -0.218564559368054     
 -0.235069207073771      -0.251573854779488      -0.268078502485206     
 -0.130573634396831      -0.147078282102548      -0.163582929808266     
 -0.180087577513983      -0.196592225219701      -0.213096872925417     
 -0.229601520631135      -0.246106168336852      -0.262610816042569     
 -0.279115463748287      -0.295620111454005      -0.158334143269755     
 -0.174838790975472      -0.191343438681189      -0.207848086386907     
 -0.224352734092625      -0.240857381798342      -0.257362029504060     
 -0.273866677209776      -0.290371324915494      -0.306875972621212     
 -0.323380620326928      -0.185875752238554      -0.202380399944271     
 -0.218885047649989      -0.235389695355705      -0.251894343061424     
 -0.268398990767141      -0.284903638472857      -0.301408286178575     
 -0.317912933884293      -0.334417581590010      -0.350922229295728     
 -0.212764113677230      -0.229268761382947      -0.245773409088664     
 -0.262278056794381      -0.278782704500099      -0.295287352205817     
 -0.311791999911534      -0.328296647617252      -0.344801295322968     
 -0.361305943028686      -0.377810590734404      -0.238575182063567     
 -0.255079829769284      -0.271584477475001      -0.288089125180719     
 -0.304593772886436      -0.321098420592154      -0.337603068297871     
 -0.354107716003588      -0.370612363709306      -0.387117011415023     
 -0.403621659120741      -0.262901901430327      -0.279406549136044     
 -0.295911196841762      -0.312415844547479      -0.328920492253196     
 -0.345425139958914      -0.361929787664631      -0.378434435370349     
 -0.394939083076066      -0.411443730781784      -0.427948378487500     
 -0.285360624881019      -0.301865272586737      -0.318369920292453     
 -0.334874567998171      -0.351379215703889      -0.367883863409606     
 -0.384388511115323      -0.400893158821040      -0.417397806526758     
 -0.433902454232476      -0.450407101938193      -0.305597164930634     
 -0.322101812636352      -0.338606460342068      -0.355111108047787     
 -0.371615755753503      -0.388120403459221      -0.404625051164938     
 -0.421129698870656      -0.437634346576373      -0.454138994282091     
 -0.470643641987808      -0.323292379253867      -0.339797026959585     
 -0.356301674665301      -0.372806322371019      -0.389310970076737     
 -0.405815617782454      -0.422320265488172      -0.438824913193889     
 -0.455329560899606      -0.471834208605324      -0.488338856311041     
 -0.338167203750232      -0.354671851455949      -0.371176499161667     
 -0.387681146867384      -0.404185794573101      -0.420690442278820     
 -0.437195089984536      -0.453699737690253      -0.470204385395971     
 -0.486709033101688      -0.503213680807406      -0.349987053551632     
 -0.366491701257349      -0.382996348963067      -0.399500996668784     
 -0.416005644374501      -0.432510292080219      -0.449014939785936     
 -0.465519587491653      -0.482024235197371      -0.498528882903088     
 -0.515033530608805      -0.358565522565862      -0.375070170271579     
 -0.391574817977296      -0.408079465683014      -0.424584113388731     
 -0.441088761094449      -0.457593408800166      -0.474098056505884     
 -0.490602704211601      -0.507107351917318      -0.523611999623035     
 -0.363767323212039      -0.380271970917755      -0.396776618623472     
 -0.413281266329191      -0.429785914034908      -0.446290561740626     
 -0.462795209446343      -0.479299857152061      -0.495804504857778     
 -0.512309152563494      -0.528813800269212      -0.365510419986567     
 -0.382015067692285      -0.398519715398002      -0.415024363103720     
 -0.431529010809437      -0.448033658515154      -0.464538306220872     
 -0.481042953926589      -0.497547601632307      -0.514052249338024     
 -0.530556897043742     
 -0.255261286260400      -0.246611903662132      -0.237962521063863     
 -0.229313138465595      -0.220663755867326      -0.212014373269058     
 -0.203364990670789      -0.194715608072521      -0.186066225474252     
 -0.177416842875984      -0.168767460277715      -0.258587442532679     
 -0.249938059934411      -0.241288677336142      -0.232639294737874     
 -0.223989912139606      -0.215340529541337      -0.206691146943069     
 -0.198041764344800      -0.189392381746532      -0.180742999148263     
 -0.172093616549995      -0.268513455878154      -0.259864073279885     
 -0.251214690681617      -0.242565308083348      -0.233915925485080     
 -0.225266542886811      -0.216617160288543      -0.207967777690274     
 -0.199318395092006      -0.190669012493737      -0.182019629895469     
 -0.284882787136852      -0.276233404538584      -0.267584021940316     
 -0.258934639342047      -0.250285256743779      -0.241635874145510     
 -0.232986491547242      -0.224337108948973      -0.215687726350705     
 -0.207038343752436      -0.198388961154168      -0.307437282176260     
 -0.298787899577992      -0.290138516979724      -0.281489134381455     
 -0.272839751783187      -0.264190369184918      -0.255540986586650     
 -0.246891603988382      -0.238242221390113      -0.229592838791845     
 -0.220943456193576      -0.335821243136205      -0.327171860537937     
 -0.318522477939668      -0.309873095341400      -0.301223712743132     
 -0.292574330144863      -0.283924947546594      -0.275275564948326     
 -0.266626182350058      -0.257976799751789      -0.249327417153520     
 -0.369587037996591      -0.360937655398323      -0.352288272800054     
 -0.343638890201786      -0.334989507603517      -0.326340125005249     
 -0.317690742406980      -0.309041359808712      -0.300391977210443     
 -0.291742594612175      -0.283093212013906      -0.408202160001763     
 -0.399552777403494      -0.390903394805226      -0.382254012206957     
 -0.373604629608688      -0.364955247010420      -0.356305864412152     
 -0.347656481813883      -0.339007099215614      -0.330357716617346     
 -0.321708334019078      -0.451057625610141      -0.442408243011873     
 -0.433758860413604      -0.425109477815336      -0.416460095217067     
 -0.407810712618799      -0.399161330020530      -0.390511947422262     
 -0.381862564823994      -0.373213182225725      -0.364563799627456     
 -0.497477578528469      -0.488828195930201      -0.480178813331932     
 -0.471529430733664      -0.462880048135395      -0.454230665537127     
 -0.445581282938858      -0.436931900340590      -0.428282517742321     
 -0.419633135144053      -0.410983752545785      -0.546729948369289     
 -0.538080565771021      -0.529431183172753      -0.520781800574484     
 -0.512132417976215      -0.503483035377947      -0.494833652779678     
 -0.486184270181410      -0.477534887583141      -0.468885504984873     
 -0.460236122386604      -0.598037995838271      -0.589388613240003     
 -0.580739230641734      -0.572089848043465      -0.563440465445197     
 -0.554791082846928      -0.546141700248660      -0.537492317650392     
 -0.528842935052123      -0.520193552453855      -0.511544169855587     
 -0.650592562376888      -0.641943179778619      -0.633293797180350     
 -0.624644414582082      -0.615995031983813      -0.607345649385545     
 -0.598696266787276      -0.590046884189008      -0.581397501590740     
 -0.572748118992471      -0.564098736394203      -0.703564831076248     
 -0.694915448477980      -0.686266065879711      -0.677616683281442     
 -0.668967300683174      -0.660317918084905      -0.651668535486638     
 -0.643019152888368      -0.634369770290100      -0.625720387691832     
 -0.617071005093563      -0.756119397614865      -0.747470015016596     
 -0.738820632418328      -0.730171249820059      -0.721521867221790     
 -0.712872484623523      -0.704223102025253      -0.695573719426984     
 -0.686924336828717      -0.678274954230448      -0.669625571632180     
 -0.807427445083847      -0.798778062485577      -0.790128679887310     
 -0.781479297289041      -0.772829914690772      -0.764180532092504     
 -0.755531149494235      -0.746881766895967      -0.738232384297699     
 -0.729583001699430      -0.720933619101162      -0.856679814924666     
 -0.848030432326398      -0.839381049728129      -0.830731667129861     
 -0.822082284531592      -0.813432901933324      -0.804783519335055     
 -0.796134136736787      -0.787484754138519      -0.778835371540250     
 -0.770185988941982      -0.903099767842995      -0.894450385244725     
 -0.885801002646457      -0.877151620048189      -0.868502237449920     
 -0.859852854851652      -0.851203472253383      -0.842554089655115     
 -0.833904707056847      -0.825255324458578      -0.816605941860309     
 -0.945955233451372      -0.937305850853105      -0.928656468254836     
 -0.920007085656567      -0.911357703058299      -0.902708320460031     
 -0.894058937861762      -0.885409555263494      -0.876760172665225     
 -0.868110790066956      -0.859461407468688      -0.984570355456544     
 -0.975920972858276      -0.967271590260006      -0.958622207661739     
 -0.949972825063470      -0.941323442465201      -0.932674059866933     
 -0.924024677268665      -0.915375294670396      -0.906725912072128     
 -0.898076529473859       -1.01833615031693       -1.00968676771866     
  -1.00103738512039      -0.992388002522125      -0.983738619923856     
 -0.975089237325587      -0.966439854727319      -0.957790472129050     
 -0.949141089530782      -0.940491706932513      -0.931842324334245     
  -1.04672011127687       -1.03807072867861       -1.02942134608034     
  -1.02077196348207       -1.01212258088380       -1.00347319828553     
 -0.994823815687264      -0.986174433088995      -0.977525050490727     
 -0.968875667892458      -0.960226285294190       -1.06927460631628     
  -1.06062522371801       -1.05197584111975       -1.04332645852148     
  -1.03467707592321       -1.02602769332494       -1.01737831072667     
  -1.00872892812840       -1.00007954553013      -0.991430162931867     
 -0.982780780333598       -1.08564393757498       -1.07699455497671     
  -1.06834517237844       -1.05969578978018       -1.05104640718191     
  -1.04239702458364       -1.03374764198537       -1.02509825938710     
  -1.01644887678883       -1.00779949419057      -0.999150111592296     
  -1.09556995092046       -1.08692056832219       -1.07827118572392     
  -1.06962180312565       -1.06097242052738       -1.05232303792911     
  -1.04367365533084       -1.03502427273258       -1.02637489013431     
  -1.01772550753604       -1.00907612493777       -1.09889610719273     
  -1.09024672459447       -1.08159734199620       -1.07294795939793     
  -1.06429857679966       -1.05564919420139       -1.04699981160312     
  -1.03835042900486       -1.02970104640659       -1.02105166380832     
  -1.01240228121005     
  3.960717710078315E-002  3.564645939070483E-002  3.168574168062652E-002
  2.772502397054821E-002  2.376430626046989E-002  1.980358855039158E-002
  1.584287084031326E-002  1.188215313023495E-002  7.921435420156629E-003
  3.960717710078312E-003  0.000000000000000E+000  3.960717710078315E-002
  3.564645939070483E-002  3.168574168062652E-002  2.772502397054821E-002
  2.376430626046989E-002  1.980358855039158E-002  1.584287084031326E-002
  1.188215313023495E-002  7.921435420156629E-003  3.960717710078312E-003
  0.000000000000000E+000  3.960717710078315E-002  3.564645939070483E-002
  3.168574168062652E-002  2.772502397054821E-002  2.376430626046989E-002
  1.980358855039158E-002  1.584287084031326E-002  1.188215313023495E-002
  7.921435420156629E-003  3.960717710078312E-003  0.000000000000000E+000
  3.960717710078315E-002  3.564645939070483E-002  3.168574168062652E-002
  2.772502397054821E-002  2.376430626046989E-002  1.980358855039158E-002
  1.584287084031326E-002  1.188215313023495E-002  7.921435420156629E-003
  3.960717710078312E-003  0.000000000000000E+000  3.960717710078315E-002
  3.564645939070483E-002  3.168574168062652E-002  2.772502397054821E-002
  2.376430626046989E-002  1.980358855039158E-002  1.584287084031326E-002
  1.188215313023495E-002  7.921435420156629E-003  3.960717710078312E-003
  0.000000000000000E+000  3.960717710078315E-002  3.564645939070483E-002
  3.168574168062652E-002  2.772502397054821E-002  2.376430626046989E-002
  1.980358855039158E-002  1.584287084031326E-002  1.188215313023495E-002
  7.921435420156629E-003  3.960717710078312E-003  0.000000000000000E+000
  3.960717710078315E-002  3.564645939070483E-002  3.168574168062652E-002
  2.772502397054821E-002  2.376430626046989E-002  1.980358855039158E-002
  1.584287084031326E-002  1.188215313023495E-002  7.921435420156629E-003
  3.960717710078312E-003  0.000000000000000E+000  3.960717710078315E-002
  3.564645939070483E-002  3.168574168062652E-002  2.772502397054821E-002
  2.376430626046989E-002  1.980358855039158E-002  1.584287084031326E-002
  1.188215313023495E-002  7.921435420156629E-003  3.960717710078312E-003
  0.000000000000000E+000  3.960717710078315E-002  3.564645939070483E-002
  3.168574168062652E-002  2.772502397054821E-002  2.376430626046989E-002
  1.980358855039158E-002  1.584287084031326E-002  1.188215313023495E-002
  7.921435420156629E-003  3.960717710078312E-003  0.000000000000000E+000
  3.960717710078315E-002  3.564645939070483E-002  3.168574168062652E-002
  2.772502397054821E-002  2.376430626046989E-002  1.980358855039158E-002
  1.584287084031326E-002  1.188215313023495E-002  7.921435420156629E-003
  3.960717710078312E-003  0.000000000000000E+000  3.960717710078315E-002
  3.564645939070483E-002  3.168574168062652E-002  2.772502397054821E-002
  2.376430626046989E-002  1.980358855039158E-002  1.584287084031326E-002
  1.188215313023495E-002  7.921435420156629E-003  3.960717710078312E-003
  0.000000000000000E+000  3.960717710078315E-002  3.564645939070483E-002
  3.168574168062652E-002  2.772502397054821E-002  2.376430626046989E-002
  1.980358855039158E-002  1.584287084031326E-002  1.188215313023495E-002
  7.921435420156629E-003  3.960717710078312E-003  0.000000000000000E+000
  3.960717710078315E-002  3.564645939070483E-002  3.168574168062652E-002
  2.772502397054821E-002  2.376430626046989E-002  1.980358855039158E-002
  1.584287084031326E-002  1.188215313023495E-002  7.921435420156629E-003
  3.960717710078312E-003  0.000000000000000E+000  3.960717710078315E-002
  3.564645939070483E-002  3.168574168062652E-002  2.772502397054821E-002
  2.376430626046989E-002  1.980358855039158E-002  1.584287084031326E-002
  1.188215313023495E-002  7.921435420156629E-003  3.960717710078312E-003
  0.000000000000000E+000  3.960717710078315E-002  3.564645939070483E-002
  3.168574168062652E-002  2.772502397054821E-002  2.376430626046989E-002
  1.980358855039158E-002  1.584287084031326E-002  1.188215313023495E-002
  7.921435420156629E-003  3.960717710078312E-003  0.000000000000000E+000
  3.960717710078315E-002  3.564645939070483E-002  3.168574168062652E-002
  2.772502397054821E-002  2.376430626046989E-002  1.980358855039158E-002
  1.584287084031326E-002  1.188215313023495E-002  7.921435420156629E-003
  3.960717710078312E-003  0.000000000000000E+000  3.960717710078315E-002
  3.564645939070483E-002  3.168574168062652E-002  2.772502397054821E-002
  2.376430626046989E-002  1.980358855039158E-002  1.584287084031326E-002
  1.188215313023495E-002  7.921435420156629E-003  3.960717710078312E-003
  0.000000000000000E+000  3.960717710078315E-002  3.564645939070483E-002
  3.168574168062652E-002  2.772502397054821E-002  2.376430626046989E-002
  1.980358855039158E-002  1.584287084031326E-002  1.188215313023495E-002
  7.921435420156629E-003  3.960717710078312E-003  0.000000000000000E+000
  3.960717710078315E-002  3.564645939070483E-002  3.168574168062652E-002
  2.772502397054821E-002  2.376430626046989E-002  1.980358855039158E-002
  1.584287084031326E-002  1.188215313023495E-002  7.921435420156629E-003
  3.960717710078312E-003  0.000000000000000E+000  3.960717710078315E-002
  3.564645939070483E-002  3.168574168062652E-002  2.772502397054821E-002
  2.376430626046989E-002  1.980358855039158E-002  1.584287084031326E-002
  1.188215313023495E-002  7.921435420156629E-003  3.960717710078312E-003
  0.000000000000000E+000  3.960717710078315E-002  3.564645939070483E-002
  3.168574168062652E-002  2.772502397054821E-002  2.376430626046989E-002
  1.980358855039158E-002  1.584287084031326E-002  1.188215313023495E-002
  7.921435420156629E-003  3.960717710078312E-003  0.000000000000000E+000
  3.960717710078315E-002  3.564645939070483E-002  3.168574168062652E-002
  2.772502397054821E-002  2.376430626046989E-002  1.980358855039158E-002
  1.584287084031326E-002  1.188215313023495E-002  7.921435420156629E-003
  3.960717710078312E-003  0.000000000000000E+000  3.960717710078315E-002
  3.564645939070483E-002  3.168574168062652E-002  2.772502397054821E-002
  2.376430626046989E-002  1.980358855039158E-002  1.584287084031326E-002
  1.188215313023495E-002  7.921435420156629E-003  3.960717710078312E-003
  0.000000000000000E+000  3.960717710078315E-002  3.564645939070483E-002
  3.168574168062652E-002  2.772502397054821E-002  2.376430626046989E-002
  1.980358855039158E-002  1.584287084031326E-002  1.188215313023495E-002
  7.921435420156629E-003  3.960717710078312E-003  0.000000000000000E+000
  3.960717710078315E-002  3.564645939070483E-002  3.168574168062652E-002
  2.772502397054821E-002  2.376430626046989E-002  1.980358855039158E-002
  1.584287084031326E-002  1.188215313023495E-002  7.921435420156629E-003
  3.960717710078312E-003  0.000000000000000E+000  3.960717710078315E-002
  3.564645939070483E-002  3.168574168062652E-002  2.772502397054821E-002
  2.376430626046989E-002  1.980358855039158E-002  1.584287084031326E-002
  1.188215313023495E-002  7.921435420156629E-003  3.960717710078312E-003
  0.000000000000000E+000
  0.269675762451387       0.369930355005846       0.439734880744073     
  0.494805612046164       0.540365611219792       0.578506803884171     
  0.609966772417875       0.635008455262385       0.654348848335451     
  0.668836792137134       0.439641716592373       0.614598611499878     
  0.735276812156372       0.830162021939240       0.908525606256567     
  0.974155191561642        1.02844894061158        1.07186784325189     
   1.10588948058763        1.13389648572195       0.558824997507971     
  0.806934568691916       0.979492866204982        1.11514699863090     
   1.22712306160193        1.32112652003829        1.39944099085161     
   1.46229920812145        1.51098103071737        1.54734730595736     
  0.613013520121066       0.908644687315494        1.12157998600928     
   1.29146303308468        1.43263698398208        1.55154664590434     
   1.65095952825787        1.72973650238971        1.78818172281714     
   1.82762666466331       0.612980640141022       0.925595221371328     
   1.15952206589169        1.35076084502872        1.51201041718700     
   1.64867674089932        1.76241036669718        1.85122094017016     
   1.91655356756977        1.95832244986049       0.588129310559525     
  0.898175021089140        1.13624103669372        1.33444558844366     
   1.50344651150336        1.64738904010739        1.76733217805488     
   1.86292236008291        1.93391777802332        1.97830098253116     
  0.581109512862511       0.887361330195709        1.12297838564551     
   1.31945853817291        1.48737388981587        1.63103494635364     
   1.75201651427711        1.85032428333148        1.92486300395384     
   1.97216481605664       0.619115372756296       0.937035724286493     
   1.17743461789269        1.37573319533073        1.54428279390406     
   1.68852777070057        1.81071434334026        1.91111546196834     
   1.98834686260680        2.03795566153800       0.707428803616046     
   1.06021151838401        1.32126848349355        1.53326023424339     
   1.71140492448853        1.86260188225643        1.99008218226803     
   2.09481550549246        2.17569004139244        2.22802616622777     
  0.838189417983077        1.24688226266217        1.54352915758288     
   1.78050800603564        1.97693041516401        2.14174187323731     
   2.27938240558670        2.39166091258765        2.47806645359268     
   2.53406803006923       0.996697610186749        1.47552580857010     
   1.81831744433800        2.08868352898068        2.31013788242604     
   2.49394765906200        2.64599807420204        2.76906019445296     
   2.86323340296183        2.92410832646235        1.17514350825230     
   1.73389955366022        2.12992333729044        2.43929045362724     
   2.69039132633674        2.89702381536993        3.06660027958091     
   3.20286853923719        3.30649190455659        3.37312042818525     
   1.37007740439576        2.01638625581008        2.47089006153669     
   2.82321676237527        3.10704115652605        3.33890655621508     
   3.52786646357881        3.67870105564201        3.79266998470578     
   3.86549335416600        1.57960590332291        2.31951361048788     
   2.83617221241362        3.23388357289111        3.55206207162030     
   3.81023684870712        4.01924816363000        4.18500455417014     
   4.30943520667299        4.38840452265891        1.80100012662938     
   2.63846274791228        3.21894950633155        3.66253987314715     
   4.01488471248645        4.29879565382611        4.52710098734455     
   4.70697917128255        4.84113289357313        4.92567859837627     
   2.02695177022921        2.96178200053146        3.60443084303093     
   4.09153218332758        4.47536346297937        4.78226622278047     
   5.02723781537285        5.21887783542108        5.36080464289535     
   5.44958309726506        2.24056094473403        3.26441824884755     
   3.96175518460370        4.48546186839674        4.89441653663976     
   5.21852834712751        5.47502388035553        5.67400730164062     
   5.82014408267897        5.91072248424862        2.41552937422674     
   3.50777947184935        4.24378558315273        4.79068411395768     
   5.21328285219843        5.54475215841601        5.80438966191624     
   6.00374334342025        6.14858396471025        6.23726409521840     
   2.52495598420336        3.65178203955241        4.40099066318169     
   4.95038846409107        5.36949646375906        5.69414171361818     
   5.94529040540862        6.13564547603527        6.27196298094839     
   6.35396138932790        2.54881733522500        3.66538675112129     
   4.39421581682322        4.91945620471834        5.31378203413660     
   5.61473455201799        5.84418845471591        6.01535053814691     
   6.13549603952811        6.20575881718607        2.47347528529938     
   3.52608397949103        4.19501723358525        4.66634668997941     
   5.01378557230008        5.27492516934410        5.47114607205056     
   5.61497747915524        5.71322896670515        5.76790650468768     
   2.28716806023646        3.21404862360657        3.78128140196773     
   4.17109113877125        4.45386789177743        4.66404174379177     
   4.82039610533517        4.93345259017079        5.00854824377481     
   5.04734899028507        1.97450050416214        2.70926495259917     
   3.14067302518735        3.43230198752428        3.64245081769106     
   3.79814177962247        3.91370526596291        3.99710147904420     
   4.05255386487548        4.08200822337876        1.51139332150891     
   2.00664620175545        2.29300945312639        2.48681264377175     
   2.62684694204883        2.73083110978476        2.80818915354884     
   2.86437006340028        2.90307845643174        2.93001782401138     
  0.919462722999717        1.19659986434634        1.35826626691839     
   1.46824539511057        1.54795914244933        1.60726703439684     
   1.65143973957298        1.68351503362638        1.70531922304877     
   1.71762447572310     
  0.000000000000000E+000  0.000000000000000E+000  0.000000000000000E+000
  0.000000000000000E+000  0.000000000000000E+000  0.000000000000000E+000
  0.000000000000000E+000  0.000000000000000E+000  0.000000000000000E+000
  0.000000000000000E+000  0.000000000000000E+000  0.000000000000000E+000
  0.000000000000000E+000  0.000000000000000E+000  0.000000000000000E+000
  0.000000000000000E+000  0.000000000000000E+000  0.000000000000000E+000
  0.000000000000000E+000  0.000000000000000E+000  0.000000000000000E+000
  0.000000000000000E+000  0.000000000000000E+000  0.000000000000000E+000
  0.000000000000000E+000  0.000000000000000E+000  0.000000000000000E+000
  0.000000000000000E+000  0.000000000000000E+000  0.000000000000000E+000
  0.000000000000000E+000  0.000000000000000E+000  0.000000000000000E+000
  0.000000000000000E+000  0.000000000000000E+000  0.000000000000000E+000
  0.000000000000000E+000  0.000000000000000E+000  0.000000000000000E+000
  0.000000000000000E+000  0.000000000000000E+000  0.000000000000000E+000
  0.000000000000000E+000  0.000000000000000E+000  0.000000000000000E+000
  0.000000000000000E+000  0.000000000000000E+000  0.000000000000000E+000
  0.000000000000000E+000  0.000000000000000E+000  0.000000000000000E+000
  0.000000000000000E+000  0.000000000000000E+000  0.000000000000000E+000
  0.000000000000000E+000  0.000000000000000E+000  0.000000000000000E+000
  0.000000000000000E+000  0.000000000000000E+000  0.000000000000000E+000
  0.000000000000000E+000  0.000000000000000E+000  0.000000000000000E+000
  0.000000000000000E+000  0.000000000000000E+000  0.000000000000000E+000
  0.000000000000000E+000  0.000000000000000E+000  0.000000000000000E+000
  0.000000000000000E+000  0.000000000000000E+000  0.000000000000000E+000
  0.000000000000000E+000  0.000000000000000E+000  0.000000000000000E+000
  0.000000000000000E+000  0.000000000000000E+000  0.000000000000000E+000
  0.000000000000000E+000  0.000000000000000E+000  0.000000000000000E+000
  0.000000000000000E+000  0.000000000000000E+000  0.000000000000000E+000
  0.000000000000000E+000  0.000000000000000E+000  0.000000000000000E+000
  0.000000000000000E+000  0.000000000000000E+000  0.000000000000000E+000
  0.000000000000000E+000  0.000000000000000E+000  0.000000000000000E+000
  0.000000000000000E+000  0.000000000000000E+000  0.000000000000000E+000
  0.000000000000000E+000  0.000000000000000E+000  0.000000000000000E+000
  0.000000000000000E+000  0.000000000000000E+000  0.000000000000000E+000
  0.000000000000000E+000  0.000000000000000E+000  0.000000000000000E+000
  0.000000000000000E+000  0.000000000000000E+000  0.000000000000000E+000
  0.000000000000000E+000  0.000000000000000E+000  0.000000000000000E+000
  0.000000000000000E+000  0.000000000000000E+000  0.000000000000000E+000
  0.000000000000000E+000  0.000000000000000E+000  0.000000000000000E+000