 Title = "Wing and Wake"
 VARIABLES = "X" "Y" "Z" "GAM" "skew"
 Zone I=   11 J=   26 K=1  T="Blade"
 DATAPACKING=BLOCK
 VARLOCATION=([4]=CELLCENTERED,[5]=CELLCENTERED)
  0.266387561601440       0.253764849020411       0.241142136439382     
  0.228519423858354       0.215896711277325       0.203273998696296     
  0.190651286115267       0.178028573534238       0.165405860953209     
  0.152783148372180       0.140160435791152       0.269149915860164     
  0.256527203279135       0.243904490698106       0.231281778117078     
  0.218659065536048       0.206036352955019       0.193413640373990     
  0.180790927792962       0.168168215211933       0.155545502630904     
  0.142922790049875       0.277393414659524       0.264770702078496     
  0.252147989497466       0.239525276916438       0.226902564335409     
  0.214279851754380       0.201657139173351       0.189034426592323     
  0.176411714011294       0.163789001430264       0.151166288849236     
  0.290988053099029       0.278365340518000       0.265742627936971     
  0.253119915355942       0.240497202774913       0.227874490193884     
  0.215251777612856       0.202629065031827       0.190006352450798     
  0.177383639869769       0.164760927288740       0.309719435609441     
  0.297096723028413       0.284474010447383       0.271851297866355     
  0.259228585285326       0.246605872704298       0.233983160123269     
  0.221360447542240       0.208737734961211       0.196115022380182     
  0.183492309799153       0.333292157098989       0.320669444517961     
  0.308046731936931       0.295424019355902       0.282801306774874     
  0.270178594193845       0.257555881612816       0.244933169031787     
  0.232310456450758       0.219687743869729       0.207065031288700     
  0.361334461668119       0.348711749087091       0.336089036506062     
  0.323466323925033       0.310843611344004       0.298220898762976     
  0.285598186181947       0.272975473600917       0.260352761019889     
  0.247730048438859       0.235107335857830       0.393404105422117     
  0.380781392841088       0.368158680260060       0.355535967679031     
  0.342913255098002       0.330290542516973       0.317667829935944     
  0.305045117354916       0.292422404773886       0.279799692192857     
  0.267176979611829       0.428995330921505       0.416372618340476     
  0.403749905759447       0.391127193178418       0.378504480597390     
  0.365881768016360       0.353259055435331       0.340636342854303     
  0.328013630273274       0.315390917692245       0.302768205111216     
  0.467546843278989       0.454924130697960       0.442301418116932     
  0.429678705535903       0.417055992954874       0.404433280373845     
  0.391810567792816       0.379187855211788       0.366565142630758     
  0.353942430049729       0.341319717468700       0.508450662115137     
  0.495827949534108       0.483205236953079       0.470582524372050     
  0.457959811791021       0.445337099209993       0.432714386628962     
  0.420091674047934       0.407468961466905       0.394846248885876     
  0.382223536304847       0.551061709772142       0.538438997191113     
  0.525816284610085       0.513193572029054       0.500570859448026     
  0.487948146866999       0.475325434285969       0.462702721704940     
  0.450080009123911       0.437457296542882       0.424834583961853     
  0.594707984573851       0.582085271992821       0.569462559411792     
  0.556839846830764       0.544217134249735       0.531594421668706     
  0.518971709087677       0.506348996506648       0.493726283925620     
  0.481103571344590       0.468480858763561       0.638701158693618     
  0.626078446112588       0.613455733531559       0.600833020950530     
  0.588210308369501       0.575587595788473       0.562964883207443     
  0.550342170626415       0.537719458045388       0.525096745464357     
  0.512474032883328       0.682347433495324       0.669724720914296     
  0.657102008333267       0.644479295752237       0.631856583171209     
  0.619233870590182       0.606611158009152       0.593988445428122     
  0.581365732847093       0.568743020266064       0.556120307685037     
  0.724958481152331       0.712335768571301       0.699713055990273     
  0.687090343409245       0.674467630828217       0.661844918247187     
  0.649222205666158       0.636599493085129       0.623976780504100     
  0.611354067923070       0.598731355342043       0.765862299988478     
  0.753239587407449       0.740616874826419       0.727994162245392     
  0.715371449664362       0.702748737083334       0.690126024502304     
  0.677503311921277       0.664880599340247       0.652257886759218     
  0.639635174178191       0.804413812345962       0.791791099764933     
  0.779168387183904       0.766545674602876       0.753922962021847     
  0.741300249440818       0.728677536859789       0.716054824278759     
  0.703432111697731       0.690809399116702       0.678186686535674     
  0.840005037845349       0.827382325264319       0.814759612683291     
  0.802136900102263       0.789514187521234       0.776891474940205     
  0.764268762359175       0.751646049778147       0.739023337197120     
  0.726400624616089       0.713777912035060       0.872074681599348     
  0.859451969018317       0.846829256437289       0.834206543856261     
  0.821583831275232       0.808961118694201       0.796338406113175     
  0.783715693532146       0.771092980951115       0.758470268370088     
  0.745847555789059       0.900116986168478       0.887494273587450     
  0.874871561006418       0.862248848425389       0.849626135844362     
  0.837003423263333       0.824380710682305       0.811757998101275     
  0.799135285520248       0.786512572939217       0.773889860358187     
  0.923689707658024       0.911066995076997       0.898444282495966     
  0.885821569914938       0.873198857333911       0.860576144752882     
  0.847953432171851       0.835330719590823       0.822708007009796     
  0.810085294428765       0.797462581847737       0.942421090168439     
  0.929798377587409       0.917175665006379       0.904552952425352     
  0.891930239844324       0.879307527263294       0.866684814682266     
  0.854062102101237       0.841439389520208       0.828816676939179     
  0.816193964358148       0.956015728607943       0.943393016026915     
  0.930770303445884       0.918147590864856       0.905524878283828     
  0.892902165702797       0.880279453121770       0.867656740540739     
  0.855034027959710       0.842411315378681       0.829788602797654     
  0.964259227407302       0.951636514826274       0.939013802245247     
  0.926391089664214       0.913768377083187       0.901145664502157     
  0.888522951921128       0.875900239340100       0.863277526759074     
  0.850654814178042       0.838032101597013       0.967021581666026     
  0.954398869084997       0.941776156503970       0.929153443922939     
  0.916530731341912       0.903908018760882       0.891285306179855     
  0.878662593598824       0.866039881017796       0.853417168436766     
  0.840794455855740     
  7.997255638958273E-003 -5.709762356134617E-003 -1.941678035122743E-002
 -3.312379834632063E-002 -4.683081634141389E-002 -6.053783433650647E-002
 -7.424485233159948E-002 -8.795187032669248E-002 -0.101658888321785     
 -0.115365906316878      -0.129072924311971       5.453419782951153E-003
 -8.253598212141942E-003 -2.196061620723473E-002 -3.566763420232764E-002
 -4.937465219742054E-002 -6.308167019251350E-002 -7.678868818760645E-002
 -9.049570618269927E-002 -0.104202724177793      -0.117909742172885     
 -0.131616760167978      -2.137969974006504E-003 -1.584498796909945E-002
 -2.955200596419244E-002 -4.325902395928544E-002 -5.696604195437817E-002
 -7.067305994947132E-002 -8.438007794456445E-002 -9.808709593965721E-002
 -0.111794113934750      -0.125501131929843      -0.139208149924936     
 -1.465719288057176E-002 -2.836421087566468E-002 -4.207122887075809E-002
 -5.577824686585062E-002 -6.948526486094365E-002 -8.319228285603646E-002
 -9.689930085112924E-002 -0.110606318846222      -0.124313336841315     
 -0.138020354836408      -0.151727372831501      -3.190681331288598E-002
 -4.561383130797855E-002 -5.932084930307202E-002 -7.302786729816500E-002
 -8.673488529325776E-002 -0.100441903288351      -0.114148921283444     
 -0.127855939278537      -0.141562957273630      -0.155269975268722     
 -0.168976993263815      -5.361479445230839E-002 -6.732181244740160E-002
 -8.102883044249430E-002 -9.473584843758728E-002 -0.108442866432680     
 -0.122149884427774      -0.135856902422866      -0.149563920417959     
 -0.163270938413052      -0.176977956408145      -0.190684974403238     
 -7.943878846855065E-002 -9.314580646364393E-002 -0.106852824458737     
 -0.120559842453830      -0.134266860448922      -0.147973878444016     
 -0.161680896439109      -0.175387914434201      -0.189094932429294     
 -0.202801950424386      -0.216508968419479      -0.108971535549471     
 -0.122678553544564      -0.136385571539657      -0.150092589534750     
 -0.163799607529843      -0.177506625524935      -0.191213643520028     
 -0.204920661515121      -0.218627679510214      -0.232334697505307     
 -0.246041715500401      -0.141747286631594      -0.155454304626688     
 -0.169161322621780      -0.182868340616873      -0.196575358611966     
 -0.210282376607059      -0.223989394602152      -0.237696412597245     
 -0.251403430592338      -0.265110448587431      -0.278817466582523     
 -0.177249148541072      -0.190956166536164      -0.204663184531258     
 -0.218370202526351      -0.232077220521444      -0.245784238516536     
 -0.259491256511629      -0.273198274506722      -0.286905292501815     
 -0.300612310496907      -0.314319328492001      -0.214917235707806     
 -0.228624253702899      -0.242331271697992      -0.256038289693084     
 -0.269745307688178      -0.283452325683271      -0.297159343678362     
 -0.310866361673457      -0.324573379668549      -0.338280397663642     
 -0.351987415658735      -0.254157499895353      -0.267864517890446     
 -0.281571535885540      -0.295278553880631      -0.308985571875725     
 -0.322692589870818      -0.336399607865911      -0.350106625861004     
 -0.363813643856096      -0.377520661851189      -0.391227679846281     
 -0.294351098696478      -0.308058116691571      -0.321765134686664     
 -0.335472152681756      -0.349179170676850      -0.362886188671942     
 -0.376593206667036      -0.390300224662129      -0.404007242657222     
 -0.417714260652314      -0.431421278647406      -0.334864155047595     
 -0.348571173042689      -0.362278191037780      -0.375985209032873     
 -0.389692227027967      -0.403399245023060      -0.417106263018153     
 -0.430813281013244      -0.444520299008340      -0.458227317003431     
 -0.471934334998524      -0.375057753848719      -0.388764771843812     
 -0.402471789838906      -0.416178807833998      -0.429885825829091     
 -0.443592843824185      -0.457299861819277      -0.471006879814371     
 -0.484713897809462      -0.498420915804555      -0.512127933799650     
 -0.414298018036266      -0.428005036031360      -0.441712054026453     
 -0.455419072021545      -0.469126090016639      -0.482833108011732     
 -0.496540126006823      -0.510247144001917      -0.523954161997010     
 -0.537661179992102      -0.551368197987197      -0.451966105203002     
 -0.465673123198094      -0.479380141193187      -0.493087159188280     
 -0.506794177183373      -0.520501195178466      -0.534208213173559     
 -0.547915231168653      -0.561622249163744      -0.575329267158839     
 -0.589036285153931      -0.487467967112478      -0.501174985107571     
 -0.514882003102664      -0.528589021097757      -0.542296039092850     
 -0.556003057087944      -0.569710075083036      -0.583417093078129     
 -0.597124111073221      -0.610831129068314      -0.624538147063407     
 -0.520243718194602      -0.533950736189694      -0.547657754184787     
 -0.561364772179880      -0.575071790174973      -0.588778808170067     
 -0.602485826165158      -0.616192844160252      -0.629899862155345     
 -0.643606880150438      -0.657313898145530      -0.549776465275522     
 -0.563483483270615      -0.577190501265707      -0.590897519260802     
 -0.604604537255893      -0.618311555250987      -0.632018573246078     
 -0.645725591241173      -0.659432609236266      -0.673139627231359     
 -0.686846645226450      -0.575600459291765      -0.589307477286858     
 -0.603014495281949      -0.616721513277041      -0.630428531272136     
 -0.644135549267228      -0.657842567262323      -0.671549585257415     
 -0.685256603252506      -0.698963621247601      -0.712670639242692     
 -0.597308440431185      -0.611015458426278      -0.624722476421374     
 -0.638429494416465      -0.652136512411557      -0.665843530406653     
 -0.679550548401745      -0.693257566396836      -0.706964584391929     
 -0.720671602387024      -0.734378620382118      -0.614558060863502     
 -0.628265078858593      -0.641972096853686      -0.655679114848780     
 -0.669386132843873      -0.683093150838965      -0.696800168834059     
 -0.710507186829153      -0.724214204824244      -0.737921222819337     
 -0.751628240814429      -0.627077283770066      -0.640784301765158     
 -0.654491319760251      -0.668198337755344      -0.681905355750439     
 -0.695612373745532      -0.709319391740625      -0.723026409735717     
 -0.736733427730807      -0.750440445725903      -0.764147463720996     
 -0.634668673527023      -0.648375691522115      -0.662082709517209     
 -0.675789727512301      -0.689496745507394      -0.703203763502489     
 -0.716910781497581      -0.730617799492673      -0.744324817487768     
 -0.758031835482860      -0.771738853477952      -0.637212509383029     
 -0.650919527378125      -0.664626545373216      -0.678333563368310     
 -0.692040581363404      -0.705747599358496      -0.719454617353589     
 -0.733161635348681      -0.746868653343774      -0.760575671338867     
 -0.774282689333962     
  3.960717710078315E-002  3.564645939070483E-002  3.168574168062652E-002
  2.772502397054821E-002  2.376430626046989E-002  1.980358855039158E-002
  1.584287084031326E-002  1.188215313023495E-002  7.921435420156629E-003
  3.960717710078312E-003  0.000000000000000E+000  3.960717710078315E-002
  3.564645939070483E-002  3.168574168062652E-002  2.772502397054821E-002
  2.376430626046989E-002  1.980358855039158E-002  1.584287084031326E-002
  1.188215313023495E-002  7.921435420156629E-003  3.960717710078312E-003
  0.000000000000000E+000  3.960717710078315E-002  3.564645939070483E-002
  3.168574168062652E-002  2.772502397054821E-002  2.376430626046989E-002
  1.980358855039158E-002  1.584287084031326E-002  1.188215313023495E-002
  7.921435420156629E-003  3.960717710078312E-003  0.000000000000000E+000
  3.960717710078315E-002  3.564645939070483E-002  3.168574168062652E-002
  2.772502397054821E-002  2.376430626046989E-002  1.980358855039158E-002
  1.584287084031326E-002  1.188215313023495E-002  7.921435420156629E-003
  3.960717710078312E-003  0.000000000000000E+000  3.960717710078315E-002
  3.564645939070483E-002  3.168574168062652E-002  2.772502397054821E-002
  2.376430626046989E-002  1.980358855039158E-002  1.584287084031326E-002
  1.188215313023495E-002  7.921435420156629E-003  3.960717710078312E-003
  0.000000000000000E+000  3.960717710078315E-002  3.564645939070483E-002
  3.168574168062652E-002  2.772502397054821E-002  2.376430626046989E-002
  1.980358855039158E-002  1.584287084031326E-002  1.188215313023495E-002
  7.921435420156629E-003  3.960717710078312E-003  0.000000000000000E+000
  3.960717710078315E-002  3.564645939070483E-002  3.168574168062652E-002
  2.772502397054821E-002  2.376430626046989E-002  1.980358855039158E-002
  1.584287084031326E-002  1.188215313023495E-002  7.921435420156629E-003
  3.960717710078312E-003  0.000000000000000E+000  3.960717710078315E-002
  3.564645939070483E-002  3.168574168062652E-002  2.772502397054821E-002
  2.376430626046989E-002  1.980358855039158E-002  1.584287084031326E-002
  1.188215313023495E-002  7.921435420156629E-003  3.960717710078312E-003
  0.000000000000000E+000  3.960717710078315E-002  3.564645939070483E-002
  3.168574168062652E-002  2.772502397054821E-002  2.376430626046989E-002
  1.980358855039158E-002  1.584287084031326E-002  1.188215313023495E-002
  7.921435420156629E-003  3.960717710078312E-003  0.000000000000000E+000
  3.960717710078315E-002  3.564645939070483E-002  3.168574168062652E-002
  2.772502397054821E-002  2.376430626046989E-002  1.980358855039158E-002
  1.584287084031326E-002  1.188215313023495E-002  7.921435420156629E-003
  3.960717710078312E-003  0.000000000000000E+000  3.960717710078315E-002
  3.564645939070483E-002  3.168574168062652E-002  2.772502397054821E-002
  2.376430626046989E-002  1.980358855039158E-002  1.584287084031326E-002
  1.188215313023495E-002  7.921435420156629E-003  3.960717710078312E-003
  0.000000000000000E+000  3.960717710078315E-002  3.564645939070483E-002
  3.168574168062652E-002  2.772502397054821E-002  2.376430626046989E-002
  1.980358855039158E-002  1.584287084031326E-002  1.188215313023495E-002
  7.921435420156629E-003  3.960717710078312E-003  0.000000000000000E+000
  3.960717710078315E-002  3.564645939070483E-002  3.168574168062652E-002
  2.772502397054821E-002  2.376430626046989E-002  1.980358855039158E-002
  1.584287084031326E-002  1.188215313023495E-002  7.921435420156629E-003
  3.960717710078312E-003  0.000000000000000E+000  3.960717710078315E-002
  3.564645939070483E-002  3.168574168062652E-002  2.772502397054821E-002
  2.376430626046989E-002  1.980358855039158E-002  1.584287084031326E-002
  1.188215313023495E-002  7.921435420156629E-003  3.960717710078312E-003
  0.000000000000000E+000  3.960717710078315E-002  3.564645939070483E-002
  3.168574168062652E-002  2.772502397054821E-002  2.376430626046989E-002
  1.980358855039158E-002  1.584287084031326E-002  1.188215313023495E-002
  7.921435420156629E-003  3.960717710078312E-003  0.000000000000000E+000
  3.960717710078315E-002  3.564645939070483E-002  3.168574168062652E-002
  2.772502397054821E-002  2.376430626046989E-002  1.980358855039158E-002
  1.584287084031326E-002  1.188215313023495E-002  7.921435420156629E-003
  3.960717710078312E-003  0.000000000000000E+000  3.960717710078315E-002
  3.564645939070483E-002  3.168574168062652E-002  2.772502397054821E-002
  2.376430626046989E-002  1.980358855039158E-002  1.584287084031326E-002
  1.188215313023495E-002  7.921435420156629E-003  3.960717710078312E-003
  0.000000000000000E+000  3.960717710078315E-002  3.564645939070483E-002
  3.168574168062652E-002  2.772502397054821E-002  2.376430626046989E-002
  1.980358855039158E-002  1.584287084031326E-002  1.188215313023495E-002
  7.921435420156629E-003  3.960717710078312E-003  0.000000000000000E+000
  3.960717710078315E-002  3.564645939070483E-002  3.168574168062652E-002
  2.772502397054821E-002  2.376430626046989E-002  1.980358855039158E-002
  1.584287084031326E-002  1.188215313023495E-002  7.921435420156629E-003
  3.960717710078312E-003  0.000000000000000E+000  3.960717710078315E-002
  3.564645939070483E-002  3.168574168062652E-002  2.772502397054821E-002
  2.376430626046989E-002  1.980358855039158E-002  1.584287084031326E-002
  1.188215313023495E-002  7.921435420156629E-003  3.960717710078312E-003
  0.000000000000000E+000  3.960717710078315E-002  3.564645939070483E-002
  3.168574168062652E-002  2.772502397054821E-002  2.376430626046989E-002
  1.980358855039158E-002  1.584287084031326E-002  1.188215313023495E-002
  7.921435420156629E-003  3.960717710078312E-003  0.000000000000000E+000
  3.960717710078315E-002  3.564645939070483E-002  3.168574168062652E-002
  2.772502397054821E-002  2.376430626046989E-002  1.980358855039158E-002
  1.584287084031326E-002  1.188215313023495E-002  7.921435420156629E-003
  3.960717710078312E-003  0.000000000000000E+000  3.960717710078315E-002
  3.564645939070483E-002  3.168574168062652E-002  2.772502397054821E-002
  2.376430626046989E-002  1.980358855039158E-002  1.584287084031326E-002
  1.188215313023495E-002  7.921435420156629E-003  3.960717710078312E-003
  0.000000000000000E+000  3.960717710078315E-002  3.564645939070483E-002
  3.168574168062652E-002  2.772502397054821E-002  2.376430626046989E-002
  1.980358855039158E-002  1.584287084031326E-002  1.188215313023495E-002
  7.921435420156629E-003  3.960717710078312E-003  0.000000000000000E+000
  3.960717710078315E-002  3.564645939070483E-002  3.168574168062652E-002
  2.772502397054821E-002  2.376430626046989E-002  1.980358855039158E-002
  1.584287084031326E-002  1.188215313023495E-002  7.921435420156629E-003
  3.960717710078312E-003  0.000000000000000E+000  3.960717710078315E-002
  3.564645939070483E-002  3.168574168062652E-002  2.772502397054821E-002
  2.376430626046989E-002  1.980358855039158E-002  1.584287084031326E-002
  1.188215313023495E-002  7.921435420156629E-003  3.960717710078312E-003
  0.000000000000000E+000
  6.913406467566188E-002  0.119827744170090       0.170128899455377     
  0.217077914127906       0.256860035719467       0.287808718427518     
  0.310039968645476       0.324550698205392       0.332725882656783     
  0.335484622341505       0.116994112339473       0.201991777349292     
  0.285904677985502       0.365232355123998       0.433831931513060     
  0.488387694163315       0.528233667572554       0.554691401079937     
  0.570221109953305       0.577279575069124       0.165305693402110     
  0.279205494093512       0.389088560237526       0.495168980898317     
  0.591486023210318       0.672663843707499       0.734964087884443     
  0.778312368614620       0.805420364796623       0.817951229496427     
  0.219254367110037       0.354938174150555       0.477439506740564     
  0.594968355327665       0.706328875500569       0.806656061921937     
  0.889321278609077       0.951155320042228       0.992761094705502     
   1.01299890092203       0.288711555581580       0.449606576254881     
  0.581960958232398       0.701103642031217       0.811146395719857     
  0.911215379953884       0.997315591284672        1.06642526848301     
   1.11680870129957        1.14389573297076       0.377358851251224     
  0.574328025039719       0.726319480546406       0.854642799604356     
  0.966207943822063        1.06326396382577        1.14579777109671     
   1.21272264638211        1.26212130739358        1.28981476911177     
  0.481784164344195       0.724037946626490       0.904549378382623     
   1.05191023594452        1.17599823612036        1.28094092049236     
   1.36840047177865        1.43860648378462        1.49038370887226     
   1.52009626701179       0.598109414617778       0.892074525772329     
   1.10656640072387        1.27831055486507        1.42047949875932     
   1.53905659308447        1.63687232015890        1.71492526863303     
   1.77252170416095        1.80609205343896       0.725945499536517     
   1.07746563555778        1.33051690933456        1.53071013774760     
   1.69468662074943        1.83025631855364        1.94136606214322     
   2.02966607918598        2.09480604779782        2.13324911858697     
  0.866893375811182        1.28233119684540        1.57859181378861     
   1.81098794220169        1.99993021748049        2.15519348482300     
   2.28190666368905        2.38245923130389        2.45686998583492     
   2.50147398732243        1.02194945007512        1.50791321526532     
   1.85202875290791        2.12027559332450        2.33719365000977     
   2.51466605808277        2.65905125672915        2.77350269630896     
   2.85844374498897        2.91008539052167        1.19080244060744     
   1.75363420723057        2.14993815180554        2.45728706689648     
   2.70470695526479        2.90637172226199        3.06997145536966     
   3.19947505043489        3.29575432968275        3.35493124114167     
   1.37195832077556        2.01708092946144        2.46909713828726     
   2.81803422502154        3.09774740979185        3.32488732552403     
   3.50859819302052        3.65374742103716        3.76170838137625     
   3.82855958675686        1.56361516898278        2.29530829576304     
   2.80553800957054        3.19758100894820        3.51045320152840     
   3.76348018672617        3.96739526762104        4.12806659523064     
   4.24745422752696        4.32169404842786        1.76555559210074     
   2.58737626233769        3.15736749742268        3.59296025162783     
   3.93873854218118        4.21695727521266        4.44012929494236     
   4.61527426426489        4.74507893305751        4.82590826000098     
   1.98149458844535        2.89734727985904        3.52798583338986     
   4.00646668983146        4.38364089157744        4.68511026097225     
   4.92544890725443        5.11303843591059        5.25147049816828     
   5.33756836381558        2.21861701306250        3.23326565052998     
   3.92469467473647        4.44418127055957        4.85004460755531     
   5.17187732330488        5.42665273176713        5.62429411459619     
   5.76941996709056        5.85946024179168        2.46802270341630     
   3.58131054355474        4.33005529366099        4.88596719740676     
   5.31583084433737        5.65370391867937        5.91916374230399     
   6.12376188419411        6.27319904562451        6.36560877357527     
   2.68356625648689        3.87424160480401        4.66269426135403     
   5.24021772053900        5.68161325013908        6.02491601006920     
   6.29197777082614        6.49583452386497        6.64327042384022     
   6.73347126927509        2.81733261308012        4.04291564010890     
   4.84004707425782        5.41535637059687        5.85001822010674     
   6.18505225751431        6.44384485728347        6.64025972642953     
   6.78158068888343        6.86766187298731        2.78901805961446     
   3.97216676274771        4.72399930982078        5.25579520690268     
   5.65102172024979        5.95177170215088        6.18156732448826     
   6.35384282993062        6.47541899430217        6.54696804519650     
   2.58838702387689        3.63862386099473        4.28346982521238     
   4.72932890755188        5.05583513223602        5.30172485547481     
   5.48786412418509        5.62562793293201        5.72029969203096     
   5.77236429392233        2.22981781445971        3.06386792675295     
   3.55662152480018        3.89244390338690        4.13708472161233     
   4.32092270901742        4.45989450532445        4.56261343530061     
   4.63326441304936        4.67291813315035        1.70210318677661     
   2.26471046164966        2.59266854203715        2.81671611609457     
   2.98052747603737        3.10400449171746        3.19762414233598     
   3.26729078156105        3.31680624982488        3.35190472759861     
   1.03414642755719        1.34916885128864        1.53453151278426     
   1.66187149452276        1.75529659185144        1.82587713511953     
   1.87947037206946        1.91936437496289        1.94740130134651     
   1.96402345617117     
  0.000000000000000E+000  0.000000000000000E+000  0.000000000000000E+000
  0.000000000000000E+000  0.000000000000000E+000  0.000000000000000E+000
  0.000000000000000E+000  0.000000000000000E+000  0.000000000000000E+000
  0.000000000000000E+000  0.000000000000000E+000  0.000000000000000E+000
  0.000000000000000E+000  0.000000000000000E+000  0.000000000000000E+000
  0.000000000000000E+000  0.000000000000000E+000  0.000000000000000E+000
  0.000000000000000E+000  0.000000000000000E+000  0.000000000000000E+000
  0.000000000000000E+000  0.000000000000000E+000  0.000000000000000E+000
  0.000000000000000E+000  0.000000000000000E+000  0.000000000000000E+000
  0.000000000000000E+000  0.000000000000000E+000  0.000000000000000E+000
  0.000000000000000E+000  0.000000000000000E+000  0.000000000000000E+000
  0.000000000000000E+000  0.000000000000000E+000  0.000000000000000E+000
  0.000000000000000E+000  0.000000000000000E+000  0.000000000000000E+000
  0.000000000000000E+000  0.000000000000000E+000  0.000000000000000E+000
  0.000000000000000E+000  0.000000000000000E+000  0.000000000000000E+000
  0.000000000000000E+000  0.000000000000000E+000  0.000000000000000E+000
  0.000000000000000E+000  0.000000000000000E+000  0.000000000000000E+000
  0.000000000000000E+000  0.000000000000000E+000  0.000000000000000E+000
  0.000000000000000E+000  0.000000000000000E+000  0.000000000000000E+000
  0.000000000000000E+000  0.000000000000000E+000  0.000000000000000E+000
  0.000000000000000E+000  0.000000000000000E+000  0.000000000000000E+000
  0.000000000000000E+000  0.000000000000000E+000  0.000000000000000E+000
  0.000000000000000E+000  0.000000000000000E+000  0.000000000000000E+000
  0.000000000000000E+000  0.000000000000000E+000  0.000000000000000E+000
  0.000000000000000E+000  0.000000000000000E+000  0.000000000000000E+000
  0.000000000000000E+000  0.000000000000000E+000  0.000000000000000E+000
  0.000000000000000E+000  0.000000000000000E+000  0.000000000000000E+000
  0.000000000000000E+000  0.000000000000000E+000  0.000000000000000E+000
  0.000000000000000E+000  0.000000000000000E+000  0.000000000000000E+000
  0.000000000000000E+000  0.000000000000000E+000  0.000000000000000E+000
  0.000000000000000E+000  0.000000000000000E+000  0.000000000000000E+000
  0.000000000000000E+000  0.000000000000000E+000  0.000000000000000E+000
  0.000000000000000E+000  0.000000000000000E+000  0.000000000000000E+000
  0.000000000000000E+000  0.000000000000000E+000  0.000000000000000E+000
  0.000000000000000E+000  0.000000000000000E+000  0.000000000000000E+000
  0.000000000000000E+000  0.000000000000000E+000  0.000000000000000E+000
  0.000000000000000E+000  0.000000000000000E+000  0.000000000000000E+000
  0.000000000000000E+000  0.000000000000000E+000  0.000000000000000E+000
  0.000000000000000E+000  0.000000000000000E+000  0.000000000000000E+000