 Title = "Wing and Wake"
 VARIABLES = "X" "Y" "Z" "GAM" "skew"
 Zone I=   11 J=   26 K=1  T="Blade"
 DATAPACKING=BLOCK
 VARLOCATION=([4]=CELLCENTERED,[5]=CELLCENTERED)
  9.454925814051354E-002  0.102382683534646       0.110216108928779     
  0.118049534322912       0.125882959717045       0.133716385111177     
  0.141549810505310       0.149383235899443       0.157216661293575     
  0.165050086687708       0.172883512081841       9.795653568760976E-002
  0.105789961081743       0.113623386475875       0.121456811870008     
  0.129290237264141       0.137123662658274       0.144957088052406     
  0.152790513446539       0.160623938840672       0.168457364234805     
  0.176290789628937       0.108124633526571       0.115958058920704     
  0.123791484314837       0.131624909708969       0.139458335103102     
  0.147291760497235       0.155125185891368       0.162958611285501     
  0.170792036679633       0.178625462073766       0.186458887467899     
  0.124893194680350       0.132726620074483       0.140560045468616     
  0.148393470862749       0.156226896256882       0.164060321651014     
  0.171893747045147       0.179727172439280       0.187560597833413     
  0.195394023227545       0.203227448621677       0.147997768922499     
  0.155831194316632       0.163664619710765       0.171498045104898     
  0.179331470499030       0.187164895893163       0.194998321287296     
  0.202831746681428       0.210665172075561       0.218498597469694     
  0.226332022863827       0.177073983315215       0.184907408709348     
  0.192740834103481       0.200574259497614       0.208407684891746     
  0.216241110285880       0.224074535680012       0.231907961074145     
  0.239741386468278       0.247574811862410       0.255408237256543     
  0.211663288588237       0.219496713982371       0.227330139376503     
  0.235163564770636       0.242996990164768       0.250830415558902     
  0.258663840953034       0.266497266347166       0.274330691741299     
  0.282164117135431       0.289997542529564       0.251220190734760     
  0.259053616128892       0.266887041523026       0.274720466917159     
  0.282553892311291       0.290387317705424       0.298220743099557     
  0.306054168493690       0.313887593887822       0.321721019281955     
  0.329554444676088       0.295120853777785       0.302954279171919     
  0.310787704566051       0.318621129960184       0.326454555354317     
  0.334287980748449       0.342121406142581       0.349954831536715     
  0.357788256930848       0.365621682324981       0.373455107719113     
  0.342672938036139       0.350506363430272       0.358339788824405     
  0.366173214218538       0.374006639612670       0.381840065006802     
  0.389673490400936       0.397506915795069       0.405340341189201     
  0.413173766583333       0.421007191977466       0.393126518734830     
  0.400959944128963       0.408793369523095       0.416626794917228     
  0.424460220311360       0.432293645705494       0.440127071099625     
  0.447960496493759       0.455793921887890       0.463627347282024     
  0.471460772676156       0.445685912766729       0.453519338160861     
  0.461352763554996       0.469186188949126       0.477019614343260     
  0.484853039737393       0.492686465131526       0.500519890525658     
  0.508353315919791       0.516186741313923       0.524020166708056     
  0.499522227090496       0.507355652484628       0.515189077878761     
  0.523022503272893       0.530855928667026       0.538689354061158     
  0.546522779455292       0.554356204849425       0.562189630243558     
  0.570023055637690       0.577856481031822       0.553786430868988     
  0.561619856263120       0.569453281657252       0.577286707051384     
  0.585120132445517       0.592953557839651       0.600786983233784     
  0.608620408627915       0.616453834022051       0.624287259416181     
  0.632120684810314       0.607622745192752       0.615456170586885     
  0.623289595981019       0.631123021375150       0.638956446769284     
  0.646789872163417       0.654623297557548       0.662456722951682     
  0.670290148345813       0.678123573739946       0.685956999134081     
  0.660182139224652       0.668015564618785       0.675848990012918     
  0.683682415407050       0.691515840801184       0.699349266195316     
  0.707182691589448       0.715016116983581       0.722849542377714     
  0.730682967771845       0.738516393165981       0.710635719923343     
  0.718469145317474       0.726302570711608       0.734135996105741     
  0.741969421499873       0.749802846894007       0.757636272288139     
  0.765469697682273       0.773303123076405       0.781136548470539     
  0.788969973864671       0.758187804181696       0.766021229575829     
  0.773854654969962       0.781688080364095       0.789521505758227     
  0.797354931152361       0.805188356546493       0.813021781940625     
  0.820855207334758       0.828688632728890       0.836522058123023     
  0.802088467224721       0.809921892618853       0.817755318012986     
  0.825588743407119       0.833422168801252       0.841255594195385     
  0.849089019589515       0.856922444983649       0.864755870377783     
  0.872589295771916       0.880422721166048       0.841645369371245     
  0.849478794765376       0.857312220159509       0.865145645553643     
  0.872979070947775       0.880812496341907       0.888645921736040     
  0.896479347130174       0.904312772524306       0.912146197918440     
  0.919979623312570       0.876234674644267       0.884068100038400     
  0.891901525432530       0.899734950826661       0.907568376220797     
  0.915401801614929       0.923235227009064       0.931068652403195     
  0.938902077797327       0.946735503191461       0.954568928585592     
  0.905310889036980       0.913144314431114       0.920977739825249     
  0.928811165219380       0.936644590613513       0.944478016007648     
  0.952311441401779       0.960144866795911       0.967978292190044     
  0.975811717584178       0.983645142978312       0.928415463279132     
  0.936248888673262       0.944082314067395       0.951915739461530     
  0.959749164855664       0.967582590249795       0.975416015643928     
  0.983249441038062       0.991082866432193       0.998916291826326     
   1.00674971722046       0.945184024432910       0.953017449827043     
  0.960850875221175       0.968684300615308       0.976517726009442     
  0.984351151403574       0.992184576797709        1.00001800219184     
   1.00785142758597        1.01568485298011        1.02351827837424     
  0.955352122271870       0.963185547666002       0.971018973060137     
  0.978852398454267       0.986685823848401       0.994519249242536     
   1.00235267463667        1.01018610003080        1.01801952542493     
   1.02585295081907        1.03368637621320       0.958759399818966     
  0.966592825213101       0.974426250607232       0.982259676001365     
  0.990093101395500       0.997926526789631        1.00575995218377     
   1.01359337757790        1.02142680297203        1.02926022836616     
   1.03709365376030     
  0.249172082823887       0.232264905004523       0.215357727185158     
  0.198450549365793       0.181543371546429       0.164636193727063     
  0.147729015907699       0.130821838088334       0.113914660268969     
  9.700748244960411E-002  8.010030463023961E-002  0.250750740997797     
  0.233843563178432       0.216936385359067       0.200029207539703     
  0.183122029720337       0.166214851900973       0.149307674081608     
  0.132400496262243       0.115493318442879       9.858614062351399E-002
  8.167896280414905E-002  0.255461819137078       0.238554641317713     
  0.221647463498348       0.204740285678984       0.187833107859619     
  0.170925930040254       0.154018752220889       0.137111574401525     
  0.120204396582160       0.103297218762795       8.639004094342997E-002
  0.263231020725213       0.246323842905848       0.229416665086483     
  0.212509487267118       0.195602309447753       0.178695131628388     
  0.161787953809024       0.144880775989659       0.127973598170294     
  0.111066420350929       9.415924253156456E-002  0.273935820812059     
  0.257028642992695       0.240121465173330       0.223214287353965     
  0.206307109534600       0.189399931715236       0.172492753895871     
  0.155585576076506       0.138678398257141       0.121771220437777     
  0.104864042618412       0.287407398305512       0.270500220486147     
  0.253593042666782       0.236685864847417       0.219778687028053     
  0.202871509208688       0.185964331389323       0.169057153569958     
  0.152149975750593       0.135242797931229       0.118335620111864     
  0.303433298380967       0.286526120561603       0.269618942742238     
  0.252711764922873       0.235804587103508       0.218897409284144     
  0.201990231464779       0.185083053645414       0.168175875826049     
  0.151268698006684       0.134361520187319       0.321760783020828     
  0.304853605201462       0.287946427382098       0.271039249562734     
  0.254132071743368       0.237224893924004       0.220317716104639     
  0.203410538285275       0.186503360465909       0.169596182646545     
  0.152689004827180       0.342100816844014       0.325193639024649     
  0.308286461205284       0.291379283385920       0.274472105566555     
  0.257564927747190       0.240657749927824       0.223750572108460     
  0.206843394289096       0.189936216469730       0.173029038650366     
  0.364132625366586       0.347225447547221       0.330318269727857     
  0.313411091908492       0.296503914089127       0.279596736269762     
  0.262689558450397       0.245782380631033       0.228875202811668     
  0.211968024992303       0.195060847172938       0.387508753806980     
  0.370601575987615       0.353694398168250       0.336787220348886     
  0.319880042529521       0.302972864710156       0.286065686890791     
  0.269158509071425       0.252251331252061       0.235344153432696     
  0.218436975613331       0.411860546655467       0.394953368836102     
  0.378046191016738       0.361139013197371       0.344231835378008     
  0.327324657558644       0.310417479739279       0.293510301919913     
  0.276603124100548       0.259695946281184       0.242788768461819     
  0.436803961591772       0.419896783772407       0.402989605953042     
  0.386082428133677       0.369175250314313       0.352268072494948     
  0.335360894675582       0.318453716856218       0.301546539036854     
  0.284639361217489       0.267732183398124       0.461945626061875     
  0.445038448242509       0.428131270423145       0.411224092603780     
  0.394316914784415       0.377409736965050       0.360502559145684     
  0.343595381326321       0.326688203506957       0.309781025687591     
  0.292873847868226       0.486889040998178       0.469981863178814     
  0.453074685359449       0.436167507540084       0.419260329720719     
  0.402353151901356       0.385445974081990       0.368538796262624     
  0.351631618443260       0.334724440623895       0.317817262804531     
  0.511240833846667       0.494333656027300       0.477426478207936     
  0.460519300388573       0.443612122569208       0.426704944749842     
  0.409797766930477       0.392890589111113       0.375983411291748     
  0.359076233472382       0.342169055653019       0.534616962287059     
  0.517709784467695       0.500802606648330       0.483895428828966     
  0.466988251009600       0.450081073190236       0.433173895370870     
  0.416266717551507       0.399359539732141       0.382452361912776     
  0.365545184093413       0.556648770809632       0.539741592990267     
  0.522834415170902       0.505927237351538       0.489020059532173     
  0.472112881712808       0.455205703893443       0.438298526074078     
  0.421391348254713       0.404484170435348       0.387576992615984     
  0.576988804632817       0.560081626813452       0.543174448994087     
  0.526267271174724       0.509360093355358       0.492452915535994     
  0.475545737716629       0.458638559897264       0.441731382077901     
  0.424824204258534       0.407917026439169       0.595316289272679     
  0.578409111453312       0.561501933633948       0.544594755814583     
  0.527687577995220       0.510780400175852       0.493873222356491     
  0.476966044537125       0.460058866717759       0.443151688898395     
  0.426244511079031       0.611342189348133       0.594435011528770     
  0.577527833709403       0.560620655890037       0.543713478070674     
  0.526806300251310       0.509899122431945       0.492991944612580     
  0.476084766793216       0.459177588973850       0.442270411154485     
  0.624813766841586       0.607906589022222       0.590999411202855     
  0.574092233383491       0.557185055564128       0.540277877744763     
  0.523370699925396       0.506463522106033       0.489556344286669     
  0.472649166467302       0.455741988647938       0.635518566928433     
  0.618611389109068       0.601704211289702       0.584797033470339     
  0.567889855650975       0.550982677831609       0.534075500012245     
  0.517168322192880       0.500261144373515       0.483353966554151     
  0.466446788734784       0.643287768516568       0.626380590697204     
  0.609473412877838       0.592566235058474       0.575659057239109     
  0.558751879419742       0.541844701600379       0.524937523781013     
  0.508030345961649       0.491123168142283       0.474215990322919     
  0.647998846655848       0.631091668836484       0.614184491017121     
  0.597277313197753       0.580370135378390       0.563462957559023     
  0.546555779739658       0.529648601920295       0.512741424100931     
  0.495834246281565       0.478927068462200       0.649577504829758     
  0.632670327010392       0.615763149191029       0.598855971371663     
  0.581948793552299       0.565041615732934       0.548134437913570     
  0.531227260094204       0.514320082274839       0.497412904455474     
  0.480505726636110     
  3.960717710078315E-002  3.564645939070483E-002  3.168574168062652E-002
  2.772502397054821E-002  2.376430626046989E-002  1.980358855039158E-002
  1.584287084031326E-002  1.188215313023495E-002  7.921435420156629E-003
  3.960717710078312E-003  0.000000000000000E+000  3.960717710078315E-002
  3.564645939070483E-002  3.168574168062652E-002  2.772502397054821E-002
  2.376430626046989E-002  1.980358855039158E-002  1.584287084031326E-002
  1.188215313023495E-002  7.921435420156629E-003  3.960717710078312E-003
  0.000000000000000E+000  3.960717710078315E-002  3.564645939070483E-002
  3.168574168062652E-002  2.772502397054821E-002  2.376430626046989E-002
  1.980358855039158E-002  1.584287084031326E-002  1.188215313023495E-002
  7.921435420156629E-003  3.960717710078312E-003  0.000000000000000E+000
  3.960717710078315E-002  3.564645939070483E-002  3.168574168062652E-002
  2.772502397054821E-002  2.376430626046989E-002  1.980358855039158E-002
  1.584287084031326E-002  1.188215313023495E-002  7.921435420156629E-003
  3.960717710078312E-003  0.000000000000000E+000  3.960717710078315E-002
  3.564645939070483E-002  3.168574168062652E-002  2.772502397054821E-002
  2.376430626046989E-002  1.980358855039158E-002  1.584287084031326E-002
  1.188215313023495E-002  7.921435420156629E-003  3.960717710078312E-003
  0.000000000000000E+000  3.960717710078315E-002  3.564645939070483E-002
  3.168574168062652E-002  2.772502397054821E-002  2.376430626046989E-002
  1.980358855039158E-002  1.584287084031326E-002  1.188215313023495E-002
  7.921435420156629E-003  3.960717710078312E-003  0.000000000000000E+000
  3.960717710078315E-002  3.564645939070483E-002  3.168574168062652E-002
  2.772502397054821E-002  2.376430626046989E-002  1.980358855039158E-002
  1.584287084031326E-002  1.188215313023495E-002  7.921435420156629E-003
  3.960717710078312E-003  0.000000000000000E+000  3.960717710078315E-002
  3.564645939070483E-002  3.168574168062652E-002  2.772502397054821E-002
  2.376430626046989E-002  1.980358855039158E-002  1.584287084031326E-002
  1.188215313023495E-002  7.921435420156629E-003  3.960717710078312E-003
  0.000000000000000E+000  3.960717710078315E-002  3.564645939070483E-002
  3.168574168062652E-002  2.772502397054821E-002  2.376430626046989E-002
  1.980358855039158E-002  1.584287084031326E-002  1.188215313023495E-002
  7.921435420156629E-003  3.960717710078312E-003  0.000000000000000E+000
  3.960717710078315E-002  3.564645939070483E-002  3.168574168062652E-002
  2.772502397054821E-002  2.376430626046989E-002  1.980358855039158E-002
  1.584287084031326E-002  1.188215313023495E-002  7.921435420156629E-003
  3.960717710078312E-003  0.000000000000000E+000  3.960717710078315E-002
  3.564645939070483E-002  3.168574168062652E-002  2.772502397054821E-002
  2.376430626046989E-002  1.980358855039158E-002  1.584287084031326E-002
  1.188215313023495E-002  7.921435420156629E-003  3.960717710078312E-003
  0.000000000000000E+000  3.960717710078315E-002  3.564645939070483E-002
  3.168574168062652E-002  2.772502397054821E-002  2.376430626046989E-002
  1.980358855039158E-002  1.584287084031326E-002  1.188215313023495E-002
  7.921435420156629E-003  3.960717710078312E-003  0.000000000000000E+000
  3.960717710078315E-002  3.564645939070483E-002  3.168574168062652E-002
  2.772502397054821E-002  2.376430626046989E-002  1.980358855039158E-002
  1.584287084031326E-002  1.188215313023495E-002  7.921435420156629E-003
  3.960717710078312E-003  0.000000000000000E+000  3.960717710078315E-002
  3.564645939070483E-002  3.168574168062652E-002  2.772502397054821E-002
  2.376430626046989E-002  1.980358855039158E-002  1.584287084031326E-002
  1.188215313023495E-002  7.921435420156629E-003  3.960717710078312E-003
  0.000000000000000E+000  3.960717710078315E-002  3.564645939070483E-002
  3.168574168062652E-002  2.772502397054821E-002  2.376430626046989E-002
  1.980358855039158E-002  1.584287084031326E-002  1.188215313023495E-002
  7.921435420156629E-003  3.960717710078312E-003  0.000000000000000E+000
  3.960717710078315E-002  3.564645939070483E-002  3.168574168062652E-002
  2.772502397054821E-002  2.376430626046989E-002  1.980358855039158E-002
  1.584287084031326E-002  1.188215313023495E-002  7.921435420156629E-003
  3.960717710078312E-003  0.000000000000000E+000  3.960717710078315E-002
  3.564645939070483E-002  3.168574168062652E-002  2.772502397054821E-002
  2.376430626046989E-002  1.980358855039158E-002  1.584287084031326E-002
  1.188215313023495E-002  7.921435420156629E-003  3.960717710078312E-003
  0.000000000000000E+000  3.960717710078315E-002  3.564645939070483E-002
  3.168574168062652E-002  2.772502397054821E-002  2.376430626046989E-002
  1.980358855039158E-002  1.584287084031326E-002  1.188215313023495E-002
  7.921435420156629E-003  3.960717710078312E-003  0.000000000000000E+000
  3.960717710078315E-002  3.564645939070483E-002  3.168574168062652E-002
  2.772502397054821E-002  2.376430626046989E-002  1.980358855039158E-002
  1.584287084031326E-002  1.188215313023495E-002  7.921435420156629E-003
  3.960717710078312E-003  0.000000000000000E+000  3.960717710078315E-002
  3.564645939070483E-002  3.168574168062652E-002  2.772502397054821E-002
  2.376430626046989E-002  1.980358855039158E-002  1.584287084031326E-002
  1.188215313023495E-002  7.921435420156629E-003  3.960717710078312E-003
  0.000000000000000E+000  3.960717710078315E-002  3.564645939070483E-002
  3.168574168062652E-002  2.772502397054821E-002  2.376430626046989E-002
  1.980358855039158E-002  1.584287084031326E-002  1.188215313023495E-002
  7.921435420156629E-003  3.960717710078312E-003  0.000000000000000E+000
  3.960717710078315E-002  3.564645939070483E-002  3.168574168062652E-002
  2.772502397054821E-002  2.376430626046989E-002  1.980358855039158E-002
  1.584287084031326E-002  1.188215313023495E-002  7.921435420156629E-003
  3.960717710078312E-003  0.000000000000000E+000  3.960717710078315E-002
  3.564645939070483E-002  3.168574168062652E-002  2.772502397054821E-002
  2.376430626046989E-002  1.980358855039158E-002  1.584287084031326E-002
  1.188215313023495E-002  7.921435420156629E-003  3.960717710078312E-003
  0.000000000000000E+000  3.960717710078315E-002  3.564645939070483E-002
  3.168574168062652E-002  2.772502397054821E-002  2.376430626046989E-002
  1.980358855039158E-002  1.584287084031326E-002  1.188215313023495E-002
  7.921435420156629E-003  3.960717710078312E-003  0.000000000000000E+000
  3.960717710078315E-002  3.564645939070483E-002  3.168574168062652E-002
  2.772502397054821E-002  2.376430626046989E-002  1.980358855039158E-002
  1.584287084031326E-002  1.188215313023495E-002  7.921435420156629E-003
  3.960717710078312E-003  0.000000000000000E+000  3.960717710078315E-002
  3.564645939070483E-002  3.168574168062652E-002  2.772502397054821E-002
  2.376430626046989E-002  1.980358855039158E-002  1.584287084031326E-002
  1.188215313023495E-002  7.921435420156629E-003  3.960717710078312E-003
  0.000000000000000E+000
  4.661155982330672E-002  7.890698572213624E-002  0.108595656649455     
  0.135959520216048       0.160373679711424       0.181196141978322     
  0.198030439477347       0.210754541209372       0.219267465712577     
  0.223316163080951       8.029112701398528E-002  0.135406491863440     
  0.185621893660347       0.231902955342872       0.273323661006479     
  0.308927877040395       0.338056171405443       0.360472839854253     
  0.376168773508222       0.385685936951978       0.117199841115507     
  0.194644311957985       0.263761358716316       0.327285338253856     
  0.384612988943036       0.434811507992475       0.476987206803044     
  0.510649862019117       0.536004972069389       0.554014713900460     
  0.159118303994254       0.257077195365864       0.341438627393114     
  0.417997512742594       0.487501066050887       0.549474087960682     
  0.602919042947384       0.646900252101596       0.680786073108968     
  0.703446418405122       0.211854089196916       0.332063168452027     
  0.430361359769600       0.516863504986230       0.594402964508868     
  0.663532045916852       0.723634243000659       0.773490115029087     
  0.811584786061188       0.835355377837128       0.282019846101017     
  0.431611322848988       0.547888438439407       0.646275389617094     
  0.731885838813292       0.806582171746415       0.870669346419607     
  0.923523430951882       0.963711496303649       0.988239662081436     
  0.374136016980732       0.563953560459894       0.706278813055072     
  0.823080788965018       0.922076444162787        1.00661898110442     
   1.07809882679566        1.13670822106747        1.18149467076537     
   1.20950121711014       0.489243359841132       0.730718954835664     
  0.907647627771165        1.05002404749185        1.16871612573270     
   1.26877290603259        1.35265429672040        1.42123541071220     
   1.47393537530491        1.50775305471026       0.625362867981191     
  0.928707463924939        1.14766436094817        1.32159882886189     
   1.46498508495432        1.58470924519036        1.68431002762446     
   1.76533554798473        1.82757181285421        1.86788624455205     
  0.779351686404070        1.15305361296221        1.41999967824298     
   1.63006743865206        1.80175758900657        1.94398506611351     
   2.06145849249000        2.15643214666141        2.22904824031050     
   2.27603020085736       0.948151400049588        1.39907787805317     
   1.71871351790293        1.96842467839642        2.17111271911162     
   2.33791229788495        2.47480217454846        2.58478966855721     
   2.66840105952453        2.72223389101421        1.12899934456497     
   1.66258812493783        2.03853051415159        2.33050535421174     
   2.56613720015991        2.75894895633783        2.91629822999602     
   3.04202270229243        3.13707713121213        3.19794591792218     
   1.31915180085504        1.93942717919453        2.37422513215456     
   2.71020135289535        2.97996903168430        3.19959100289626     
   3.37791049689825        3.51967597738133        3.62632792138946     
   3.69427452807208        1.51628190328877        2.22599978878798     
   2.72116896258498        3.10195789920887        3.40620395936191     
   3.65265671699408        3.85175155728855        4.00923021783198     
   4.12709677892492        4.20179899177929        1.72026724125135     
   2.52166120228285        3.07799406729880        3.50355829044274     
   3.84170166289509        4.11404142342759        4.33273719113805     
   4.50463922845403        4.63245194697811        4.71289162409319     
   1.93679658284505        2.83352980687588        3.45196453335669     
   3.92177239499226        4.29240443842765        4.58869165032539     
   4.82473348642213        5.00863344717267        5.14392922514783     
   5.22788804960790        2.18280801534636        3.18305430965132     
   3.86584785339743        4.37959732966862        4.78135420293639     
   5.09987766623026        5.35149555768207        5.54558138859200     
   5.68630310249400        5.77119402689181        2.48032744659234     
   3.59729991577386        4.34854026909327        4.90768797278538     
   5.34190479000826        5.68479140993335        5.95535967041216     
   6.16464584238898        6.31772628097817        6.41177368743413     
   2.74486885259118        3.96186197922305        4.76877487569662     
   5.36198587784732        5.81831903191015        6.17676241188408     
   6.45963592135963        6.68017544261269        6.84507356156863     
   6.95223281531996        2.85989698857742        4.10891275313913     
   4.92492977883107        5.51689067047377        5.96758724382846     
   6.31976183878896        6.59822262783265        6.81779244216026     
   6.98595804263924        7.10015163505933        2.81112940388031     
   4.00915507391143        4.77496322919758        5.32136270650035     
   5.73322878529993        6.05435695772668        6.31029335914154     
   6.51667223610536        6.68169185933590        6.80159906876414     
   2.60519049836357        3.66695776434889        4.32351616453587     
   4.78280783779986        5.12591707234381        5.39349004091825     
   5.60921549955758        5.78875210035350        5.94293969386834     
   6.07144174645880        2.24373810926605        3.08673443868867     
   3.58863539338749        3.93511724373782        4.19303553395543     
   4.39419980988824        4.55673132871161        4.69294054147199     
   4.81366361011367        4.92898636197164        1.71223410477860     
   2.28084841055079        2.61490280891536        2.84598843182855     
   3.01840559285470        3.15278094093391        3.26052499772122     
   3.34866790451456        3.42175500240145        3.48286631080820     
   1.04012026908712        1.35852517643065        1.54732110653395     
   1.67859840789206        1.77678199044852        1.85328170063154     
   1.91432907080542        1.96347370011287        2.00200328981595     
   2.02568406095265     
  0.000000000000000E+000  0.000000000000000E+000  0.000000000000000E+000
  0.000000000000000E+000  0.000000000000000E+000  0.000000000000000E+000
  0.000000000000000E+000  0.000000000000000E+000  0.000000000000000E+000
  0.000000000000000E+000  0.000000000000000E+000  0.000000000000000E+000
  0.000000000000000E+000  0.000000000000000E+000  0.000000000000000E+000
  0.000000000000000E+000  0.000000000000000E+000  0.000000000000000E+000
  0.000000000000000E+000  0.000000000000000E+000  0.000000000000000E+000
  0.000000000000000E+000  0.000000000000000E+000  0.000000000000000E+000
  0.000000000000000E+000  0.000000000000000E+000  0.000000000000000E+000
  0.000000000000000E+000  0.000000000000000E+000  0.000000000000000E+000
  0.000000000000000E+000  0.000000000000000E+000  0.000000000000000E+000
  0.000000000000000E+000  0.000000000000000E+000  0.000000000000000E+000
  0.000000000000000E+000  0.000000000000000E+000  0.000000000000000E+000
  0.000000000000000E+000  0.000000000000000E+000  0.000000000000000E+000
  0.000000000000000E+000  0.000000000000000E+000  0.000000000000000E+000
  0.000000000000000E+000  0.000000000000000E+000  0.000000000000000E+000
  0.000000000000000E+000  0.000000000000000E+000  0.000000000000000E+000
  0.000000000000000E+000  0.000000000000000E+000  0.000000000000000E+000
  0.000000000000000E+000  0.000000000000000E+000  0.000000000000000E+000
  0.000000000000000E+000  0.000000000000000E+000  0.000000000000000E+000
  0.000000000000000E+000  0.000000000000000E+000  0.000000000000000E+000
  0.000000000000000E+000  0.000000000000000E+000  0.000000000000000E+000
  0.000000000000000E+000  0.000000000000000E+000  0.000000000000000E+000
  0.000000000000000E+000  0.000000000000000E+000  0.000000000000000E+000
  0.000000000000000E+000  0.000000000000000E+000  0.000000000000000E+000
  0.000000000000000E+000  0.000000000000000E+000  0.000000000000000E+000
  0.000000000000000E+000  0.000000000000000E+000  0.000000000000000E+000
  0.000000000000000E+000  0.000000000000000E+000  0.000000000000000E+000
  0.000000000000000E+000  0.000000000000000E+000  0.000000000000000E+000
  0.000000000000000E+000  0.000000000000000E+000  0.000000000000000E+000
  0.000000000000000E+000  0.000000000000000E+000  0.000000000000000E+000
  0.000000000000000E+000  0.000000000000000E+000  0.000000000000000E+000
  0.000000000000000E+000  0.000000000000000E+000  0.000000000000000E+000
  0.000000000000000E+000  0.000000000000000E+000  0.000000000000000E+000
  0.000000000000000E+000  0.000000000000000E+000  0.000000000000000E+000
  0.000000000000000E+000  0.000000000000000E+000  0.000000000000000E+000
  0.000000000000000E+000  0.000000000000000E+000  0.000000000000000E+000
  0.000000000000000E+000  0.000000000000000E+000  0.000000000000000E+000
  0.000000000000000E+000  0.000000000000000E+000  0.000000000000000E+000