 Title = "Wing and Wake"
 VARIABLES = "X" "Y" "Z" "GAM" "skew"
 Zone I=   11 J=   26 K=1  T="Blade"
 DATAPACKING=BLOCK
 VARLOCATION=([4]=CELLCENTERED,[5]=CELLCENTERED)
  0.126322549892143       0.131877681785131       0.137432813678119     
  0.142987945571107       0.148543077464095       0.154098209357082     
  0.159653341250070       0.165208473143058       0.170763605036046     
  0.176318736929034       0.181873868822022       0.129907014033220     
  0.135462145926208       0.141017277819196       0.146572409712184     
  0.152127541605171       0.157682673498159       0.163237805391147     
  0.168792937284135       0.174348069177123       0.179903201070111     
  0.185458332963098       0.140603877315690       0.146159009208678     
  0.151714141101666       0.157269272994654       0.162824404887642     
  0.168379536780629       0.173934668673617       0.179489800566605     
  0.185044932459593       0.190600064352581       0.196155196245569     
  0.158244443815593       0.163799575708581       0.169354707601569     
  0.174909839494557       0.180464971387545       0.186020103280532     
  0.191575235173520       0.197130367066508       0.202685498959496     
  0.208240630852484       0.213795762745471       0.182550511261261     
  0.188105643154249       0.193660775047237       0.199215906940225     
  0.204771038833213       0.210326170726201       0.215881302619189     
  0.221436434512176       0.226991566405164       0.232546698298152     
  0.238101830191140       0.213138758449336       0.218693890342324     
  0.224249022235312       0.229804154128300       0.235359286021288     
  0.240914417914276       0.246469549807263       0.252024681700251     
  0.257579813593239       0.263134945486227       0.268690077379215     
  0.249526790449128       0.255081922342116       0.260637054235104     
  0.266192186128092       0.271747318021080       0.277302449914068     
  0.282857581807055       0.288412713700043       0.293967845593031     
  0.299522977486018       0.305078109379006       0.291140746258844     
  0.296695878151832       0.302251010044820       0.307806141937807     
  0.313361273830795       0.318916405723783       0.324471537616771     
  0.330026669509759       0.335581801402747       0.341136933295735     
  0.346692065188723       0.337324348936393       0.342879480829381     
  0.348434612722368       0.353989744615356       0.359544876508344     
  0.365100008401332       0.370655140294319       0.376210272187308     
  0.381765404080296       0.387320535973283       0.392875667866271     
  0.387349255478802       0.392904387371790       0.398459519264778     
  0.404014651157765       0.409569783050753       0.415124914943741     
  0.420680046836728       0.426235178729717       0.431790310622704     
  0.437345442515692       0.442900574408680       0.440426543226467     
  0.445981675119455       0.451536807012442       0.457091938905430     
  0.462647070798418       0.468202202691406       0.473757334584394     
  0.479312466477382       0.484867598370369       0.490422730263358     
  0.495977862156345       0.495719151644773       0.501274283537760     
  0.506829415430748       0.512384547323736       0.517939679216724     
  0.523494811109712       0.529049943002699       0.534605074895688     
  0.540160206788675       0.545715338681663       0.551270470574651     
  0.552355083268759       0.557910215161747       0.563465347054734     
  0.569020478947722       0.574575610840711       0.580130742733698     
  0.585685874626686       0.591241006519674       0.596796138412661     
  0.602351270305649       0.607906402198638       0.609441155624050     
  0.614996287517038       0.620551419410026       0.626106551303013     
  0.631661683196001       0.637216815088989       0.642771946981978     
  0.648327078874965       0.653882210767953       0.659437342660941     
  0.664992474553928       0.666077087248037       0.671632219141024     
  0.677187351034013       0.682742482926999       0.688297614819988     
  0.693852746712976       0.699407878605963       0.704963010498951     
  0.710518142391939       0.716073274284927       0.721628406177915     
  0.721369695666343       0.726924827559330       0.732479959452318     
  0.738035091345305       0.743590223238293       0.749145355131281     
  0.754700487024268       0.760255618917257       0.765810750810245     
  0.771365882703232       0.776921014596221       0.774446983414008     
  0.780002115306995       0.785557247199983       0.791112379092971     
  0.796667510985958       0.802222642878946       0.807777774771934     
  0.813332906664922       0.818888038557910       0.824443170450899     
  0.829998302343886       0.824471889956417       0.830027021849404     
  0.835582153742392       0.841137285635379       0.846692417528367     
  0.852247549421356       0.857802681314343       0.863357813207331     
  0.868912945100319       0.874468076993307       0.880023208886294     
  0.870655492633965       0.876210624526952       0.881765756419940     
  0.887320888312927       0.892876020205916       0.898431152098904     
  0.903986283991891       0.909541415884879       0.915096547777867     
  0.920651679670855       0.926206811563843       0.912269448443681     
  0.917824580336669       0.923379712229655       0.928934844122645     
  0.934489976015631       0.940045107908620       0.945600239801607     
  0.951155371694597       0.956710503587583       0.962265635480571     
  0.967820767373558       0.948657480443473       0.954212612336461     
  0.959767744229448       0.965322876122435       0.970878008015424     
  0.976433139908411       0.981988271801400       0.987543403694388     
  0.993098535587375       0.998653667480362        1.00420879937335     
  0.979245727631547       0.984800859524535       0.990355991417522     
  0.995911123310512        1.00146625520350        1.00702138709649     
   1.01257651898947        1.01813165088246        1.02368678277545     
   1.02924191466844        1.03479704656143        1.00355179507722     
   1.00910692697020        1.01466205886319        1.02021719075618     
   1.02577232264917        1.03132745454215        1.03688258643514     
   1.04243771832813        1.04799285022112        1.05354798211411     
   1.05910311400709        1.02119236157712        1.02674749347011     
   1.03230262536309        1.03785775725608        1.04341288914907     
   1.04896802104206        1.05452315293504        1.06007828482803     
   1.06563341672102        1.07118854861401        1.07674368050700     
   1.03188922485959        1.03744435675258        1.04299948864556     
   1.04855462053855        1.05410975243154        1.05966488432453     
   1.06522001621751        1.07077514811050        1.07633028000349     
   1.08188541189648        1.08744054378947        1.03547368900066     
   1.04102882089365        1.04658395278664        1.05213908467963     
   1.05769421657262        1.06324934846560        1.06880448035859     
   1.07435961225158        1.07991474414457        1.08546987603756     
   1.09102500793055     
  0.234667642555304       0.216881250991173       0.199094859427043     
  0.181308467862912       0.163522076298781       0.145735684734650     
  0.127949293170520       0.110162901606389       9.237651004225821E-002
  7.459011847812735E-002  5.680372691399668E-002  0.235787159743350     
  0.218000768179219       0.200214376615089       0.182427985050958     
  0.164641593486827       0.146855201922697       0.129068810358566     
  0.111282418794435       9.349602723030448E-002  7.570963566617389E-002
  5.792324410204302E-002  0.239128055852666       0.221341664288536     
  0.203555272724405       0.185768881160274       0.167982489596144     
  0.150196098032013       0.132409706467882       0.114623314903752     
  9.683692333962077E-002  7.905053177548992E-002  6.126414021135929E-002
  0.244637642955854       0.226851251391724       0.209064859827593     
  0.191278468263462       0.173492076699332       0.155705685135201     
  0.137919293571070       0.120132902006939       0.102346510442809     
  8.456011887867793E-002  6.677372731454724E-002  0.252229031573028     
  0.234442640008898       0.216656248444767       0.198869856880636     
  0.181083465316505       0.163297073752375       0.145510682188244     
  0.127724290624114       0.109937899059983       9.215150749585219E-002
  7.436511593172145E-002  0.261782500970820       0.243996109406690     
  0.226209717842559       0.208423326278428       0.190636934714298     
  0.172850543150167       0.155064151586036       0.137277760021906     
  0.119491368457775       0.101704976893644       8.391858532951323E-002
  0.273147387229861       0.255360995665730       0.237574604101600     
  0.219788212537469       0.202001820973338       0.184215429409208     
  0.166429037845077       0.148642646280946       0.130856254716816     
  0.113069863152685       9.528347158855403E-002  0.286144459304792     
  0.268358067740661       0.250571676176530       0.232785284612399     
  0.214998893048269       0.197212501484138       0.179426109920007     
  0.161639718355876       0.143853326791746       0.126066935227615     
  0.108280543663484       0.300568745604915       0.282782354040784     
  0.264995962476654       0.247209570912523       0.229423179348393     
  0.211636787784262       0.193850396220131       0.176064004656000     
  0.158277613091869       0.140491221527739       0.122704829963608     
  0.316192766518628       0.298406374954498       0.280619983390367     
  0.262833591826236       0.245047200262105       0.227260808697975     
  0.209474417133844       0.191688025569713       0.173901634005583     
  0.156115242441452       0.138328850877321       0.332770121902784     
  0.314983730338654       0.297197338774523       0.279410947210392     
  0.261624555646262       0.243838164082131       0.226051772518000     
  0.208265380953869       0.190478989389739       0.172692597825608     
  0.154906206261477       0.350039376960142       0.332252985396012     
  0.314466593831881       0.296680202267750       0.278893810703620     
  0.261107419139489       0.243321027575359       0.225534636011228     
  0.207748244447097       0.189961852882966       0.172175461318836     
  0.367728185222296       0.349941793658165       0.332155402094034     
  0.314369010529903       0.296582618965773       0.278796227401642     
  0.261009835837511       0.243223444273381       0.225437052709250     
  0.207650661145119       0.189864269580988       0.385557583616168     
  0.367771192052037       0.349984800487907       0.332198408923775     
  0.314412017359644       0.296625625795513       0.278839234231383     
  0.261052842667253       0.243266451103122       0.225480059538991     
  0.207693667974860       0.403246391878320       0.385460000314190     
  0.367673608750059       0.349887217185929       0.332100825621797     
  0.314314434057667       0.296528042493536       0.278741650929405     
  0.260955259365274       0.243168867801144       0.225382476237013     
  0.420515646935679       0.402729255371548       0.384942863807417     
  0.367156472243287       0.349370080679156       0.331583689115025     
  0.313797297550894       0.296010905986764       0.278224514422634     
  0.260438122858502       0.242651731294371       0.437093002319834     
  0.419306610755704       0.401520219191573       0.383733827627443     
  0.365947436063312       0.348161044499181       0.330374652935050     
  0.312588261370920       0.294801869806789       0.277015478242658     
  0.259229086678528       0.452717023233548       0.434930631669417     
  0.417144240105286       0.399357848541156       0.381571456977025     
  0.363785065412895       0.345998673848763       0.328212282284633     
  0.310425890720502       0.292639499156371       0.274853107592241     
  0.467141309533671       0.449354917969541       0.431568526405410     
  0.413782134841279       0.395995743277149       0.378209351713018     
  0.360422960148887       0.342636568584756       0.324850177020626     
  0.307063785456495       0.289277393892365       0.480138381608602     
  0.462351990044471       0.444565598480340       0.426779206916209     
  0.408992815352079       0.391206423787948       0.373420032223818     
  0.355633640659687       0.337847249095556       0.320060857531425     
  0.302274465967294       0.491503267867643       0.473716876303511     
  0.455930484739381       0.438144093175250       0.420357701611120     
  0.402571310046989       0.384784918482858       0.366998526918727     
  0.349212135354597       0.331425743790465       0.313639352226335     
  0.501056737265435       0.483270345701305       0.465483954137172     
  0.447697562573042       0.429911171008913       0.412124779444781     
  0.394338387880650       0.376551996316520       0.358765604752389     
  0.340979213188258       0.323192821624127       0.508648125882608     
  0.490861734318478       0.473075342754347       0.455288951190216     
  0.437502559626086       0.419716168061955       0.401929776497824     
  0.384143384933694       0.366356993369562       0.348570601805433     
  0.330784210241301       0.514157712985796       0.496371321421667     
  0.478584929857535       0.460798538293405       0.443012146729274     
  0.425225755165142       0.407439363601012       0.389652972036881     
  0.371866580472751       0.354080188908620       0.336293797344489     
  0.517498609095112       0.499712217530982       0.481925825966853     
  0.464139434402720       0.446353042838590       0.428566651274459     
  0.410780259710327       0.392993868146197       0.375207476582067     
  0.357421085017936       0.339634693453805       0.518618126283159     
  0.500831734719028       0.483045343154898       0.465258951590767     
  0.447472560026636       0.429686168462506       0.411899776898374     
  0.394113385334244       0.376326993770114       0.358540602205983     
  0.340754210641852     
  3.960717710078315E-002  3.564645939070483E-002  3.168574168062652E-002
  2.772502397054821E-002  2.376430626046989E-002  1.980358855039158E-002
  1.584287084031326E-002  1.188215313023495E-002  7.921435420156629E-003
  3.960717710078312E-003  0.000000000000000E+000  3.960717710078315E-002
  3.564645939070483E-002  3.168574168062652E-002  2.772502397054821E-002
  2.376430626046989E-002  1.980358855039158E-002  1.584287084031326E-002
  1.188215313023495E-002  7.921435420156629E-003  3.960717710078312E-003
  0.000000000000000E+000  3.960717710078315E-002  3.564645939070483E-002
  3.168574168062652E-002  2.772502397054821E-002  2.376430626046989E-002
  1.980358855039158E-002  1.584287084031326E-002  1.188215313023495E-002
  7.921435420156629E-003  3.960717710078312E-003  0.000000000000000E+000
  3.960717710078315E-002  3.564645939070483E-002  3.168574168062652E-002
  2.772502397054821E-002  2.376430626046989E-002  1.980358855039158E-002
  1.584287084031326E-002  1.188215313023495E-002  7.921435420156629E-003
  3.960717710078312E-003  0.000000000000000E+000  3.960717710078315E-002
  3.564645939070483E-002  3.168574168062652E-002  2.772502397054821E-002
  2.376430626046989E-002  1.980358855039158E-002  1.584287084031326E-002
  1.188215313023495E-002  7.921435420156629E-003  3.960717710078312E-003
  0.000000000000000E+000  3.960717710078315E-002  3.564645939070483E-002
  3.168574168062652E-002  2.772502397054821E-002  2.376430626046989E-002
  1.980358855039158E-002  1.584287084031326E-002  1.188215313023495E-002
  7.921435420156629E-003  3.960717710078312E-003  0.000000000000000E+000
  3.960717710078315E-002  3.564645939070483E-002  3.168574168062652E-002
  2.772502397054821E-002  2.376430626046989E-002  1.980358855039158E-002
  1.584287084031326E-002  1.188215313023495E-002  7.921435420156629E-003
  3.960717710078312E-003  0.000000000000000E+000  3.960717710078315E-002
  3.564645939070483E-002  3.168574168062652E-002  2.772502397054821E-002
  2.376430626046989E-002  1.980358855039158E-002  1.584287084031326E-002
  1.188215313023495E-002  7.921435420156629E-003  3.960717710078312E-003
  0.000000000000000E+000  3.960717710078315E-002  3.564645939070483E-002
  3.168574168062652E-002  2.772502397054821E-002  2.376430626046989E-002
  1.980358855039158E-002  1.584287084031326E-002  1.188215313023495E-002
  7.921435420156629E-003  3.960717710078312E-003  0.000000000000000E+000
  3.960717710078315E-002  3.564645939070483E-002  3.168574168062652E-002
  2.772502397054821E-002  2.376430626046989E-002  1.980358855039158E-002
  1.584287084031326E-002  1.188215313023495E-002  7.921435420156629E-003
  3.960717710078312E-003  0.000000000000000E+000  3.960717710078315E-002
  3.564645939070483E-002  3.168574168062652E-002  2.772502397054821E-002
  2.376430626046989E-002  1.980358855039158E-002  1.584287084031326E-002
  1.188215313023495E-002  7.921435420156629E-003  3.960717710078312E-003
  0.000000000000000E+000  3.960717710078315E-002  3.564645939070483E-002
  3.168574168062652E-002  2.772502397054821E-002  2.376430626046989E-002
  1.980358855039158E-002  1.584287084031326E-002  1.188215313023495E-002
  7.921435420156629E-003  3.960717710078312E-003  0.000000000000000E+000
  3.960717710078315E-002  3.564645939070483E-002  3.168574168062652E-002
  2.772502397054821E-002  2.376430626046989E-002  1.980358855039158E-002
  1.584287084031326E-002  1.188215313023495E-002  7.921435420156629E-003
  3.960717710078312E-003  0.000000000000000E+000  3.960717710078315E-002
  3.564645939070483E-002  3.168574168062652E-002  2.772502397054821E-002
  2.376430626046989E-002  1.980358855039158E-002  1.584287084031326E-002
  1.188215313023495E-002  7.921435420156629E-003  3.960717710078312E-003
  0.000000000000000E+000  3.960717710078315E-002  3.564645939070483E-002
  3.168574168062652E-002  2.772502397054821E-002  2.376430626046989E-002
  1.980358855039158E-002  1.584287084031326E-002  1.188215313023495E-002
  7.921435420156629E-003  3.960717710078312E-003  0.000000000000000E+000
  3.960717710078315E-002  3.564645939070483E-002  3.168574168062652E-002
  2.772502397054821E-002  2.376430626046989E-002  1.980358855039158E-002
  1.584287084031326E-002  1.188215313023495E-002  7.921435420156629E-003
  3.960717710078312E-003  0.000000000000000E+000  3.960717710078315E-002
  3.564645939070483E-002  3.168574168062652E-002  2.772502397054821E-002
  2.376430626046989E-002  1.980358855039158E-002  1.584287084031326E-002
  1.188215313023495E-002  7.921435420156629E-003  3.960717710078312E-003
  0.000000000000000E+000  3.960717710078315E-002  3.564645939070483E-002
  3.168574168062652E-002  2.772502397054821E-002  2.376430626046989E-002
  1.980358855039158E-002  1.584287084031326E-002  1.188215313023495E-002
  7.921435420156629E-003  3.960717710078312E-003  0.000000000000000E+000
  3.960717710078315E-002  3.564645939070483E-002  3.168574168062652E-002
  2.772502397054821E-002  2.376430626046989E-002  1.980358855039158E-002
  1.584287084031326E-002  1.188215313023495E-002  7.921435420156629E-003
  3.960717710078312E-003  0.000000000000000E+000  3.960717710078315E-002
  3.564645939070483E-002  3.168574168062652E-002  2.772502397054821E-002
  2.376430626046989E-002  1.980358855039158E-002  1.584287084031326E-002
  1.188215313023495E-002  7.921435420156629E-003  3.960717710078312E-003
  0.000000000000000E+000  3.960717710078315E-002  3.564645939070483E-002
  3.168574168062652E-002  2.772502397054821E-002  2.376430626046989E-002
  1.980358855039158E-002  1.584287084031326E-002  1.188215313023495E-002
  7.921435420156629E-003  3.960717710078312E-003  0.000000000000000E+000
  3.960717710078315E-002  3.564645939070483E-002  3.168574168062652E-002
  2.772502397054821E-002  2.376430626046989E-002  1.980358855039158E-002
  1.584287084031326E-002  1.188215313023495E-002  7.921435420156629E-003
  3.960717710078312E-003  0.000000000000000E+000  3.960717710078315E-002
  3.564645939070483E-002  3.168574168062652E-002  2.772502397054821E-002
  2.376430626046989E-002  1.980358855039158E-002  1.584287084031326E-002
  1.188215313023495E-002  7.921435420156629E-003  3.960717710078312E-003
  0.000000000000000E+000  3.960717710078315E-002  3.564645939070483E-002
  3.168574168062652E-002  2.772502397054821E-002  2.376430626046989E-002
  1.980358855039158E-002  1.584287084031326E-002  1.188215313023495E-002
  7.921435420156629E-003  3.960717710078312E-003  0.000000000000000E+000
  3.960717710078315E-002  3.564645939070483E-002  3.168574168062652E-002
  2.772502397054821E-002  2.376430626046989E-002  1.980358855039158E-002
  1.584287084031326E-002  1.188215313023495E-002  7.921435420156629E-003
  3.960717710078312E-003  0.000000000000000E+000  3.960717710078315E-002
  3.564645939070483E-002  3.168574168062652E-002  2.772502397054821E-002
  2.376430626046989E-002  1.980358855039158E-002  1.584287084031326E-002
  1.188215313023495E-002  7.921435420156629E-003  3.960717710078312E-003
  0.000000000000000E+000
  0.112399770453971       0.162008477773242       0.202221714467876     
  0.239000415988298       0.273301430495226       0.304702622991235     
  0.332718901654503       0.356829932914977       0.375618168015959     
  0.386983269644138       0.188604304085303       0.275008661283041     
  0.343746746857942       0.405770591269711       0.463109241641290     
  0.515335491823897       0.561717470271995       0.601395147814770     
  0.632429716586919       0.652665825790576       0.258505741574477     
  0.382871142561683       0.479402615863136       0.564192028181140     
  0.641073571190489       0.710269153674299       0.771071064899601     
  0.822404691456941       0.862149954333020       0.886666984662989     
  0.317390713217646       0.473507498770027       0.592764756920323     
  0.694930469840527       0.785593876121067       0.865875005853228     
  0.935265149254342       0.992562114350786        1.03590142091960     
   1.06183831566440       0.362165325373618       0.542906983244008     
  0.679866725717827       0.795237729881432       0.895908035310281     
  0.983794492745813        1.05865620308560        1.11922143200221     
   1.16396586796328        1.19112617313073       0.394187652723149     
  0.594927647774690       0.747542521545722       0.875369624601476     
  0.986006614209465        1.08187004345555        1.16306321152450     
   1.22886024249675        1.27875052751414        1.31170203568583     
  0.428214396864822       0.650054103670336       0.820001328302671     
  0.962548593171712        1.08586385441211        1.19301460831472     
   1.28500236555715        1.36203554864994        1.42382099305674     
   1.46808791487709       0.490835215493461       0.744011728783118     
  0.937356321749352        1.09918896359034        1.23927078054970     
   1.36175035203542        1.46842438588773        1.55983784242779     
   1.63545043860953        1.69180251282851       0.598820848562563     
  0.901037316920066        1.12785304513871        1.31517901054901     
   1.47585415586812        1.61567718689281        1.73738032662476     
   1.84201903636057        1.92911534846666        1.99450180802577     
  0.747076962405766        1.11558571471461        1.38653141331954     
   1.60623150997648        1.79161270433408        1.95067454765452     
   2.08751777200008        2.20401845898963        2.30004592491993     
   2.37118701062908       0.923539746104729        1.37095037207730     
   1.69432446970664        1.95227391759492        2.16651967954049     
   2.34755120460793        2.50095592479782        2.62952855277153     
   2.73363864401891        2.80889311972797        1.11868315367578     
   1.65339997978746        2.03486773460705        2.33530808364381     
   2.58170545642609        2.78721545797298        2.95897855757872     
   3.10073789726453        3.21336105554036        3.29248733540425     
   1.32618204352571        1.95383110635575        2.39716049209229     
   2.74284393858479        3.02346831097320        3.25506242497491     
   3.44643781007985        3.60232267260978        3.72409314286790     
   3.80742807171026        1.54217729218705        2.26641726812423     
   2.77385766862255        3.16621670711172        3.48195215305511     
   3.74014089097590        3.95139670165267        4.12155728640471     
   4.25261428821564        4.34035942921158        1.76513281200698     
   2.58815940471009        3.16047613224253        3.59951178615753     
   3.94989900807652        4.23395167694500        4.46425044648231     
   4.64788826901284        4.78761578183915        4.87950381364805     
   1.99521219063336        2.91799565005558        3.55430773180004     
   4.03826000858941        4.42114420976753        4.72881251366186     
   4.97601248613573        5.17125864754329        5.31822340004526     
   5.41346608531476        2.22951244332093        3.25017028637430     
   3.94678138415200        4.47128921960284        4.88223576729213     
   5.20935937502344        5.46978711515053        5.67359758522438     
   5.82552241096322        5.92281679026707        2.44896931293485     
   3.55638307486725        4.30309682305750        4.85886030099574     
   5.28958384993509        5.62897223931289        5.89656076892988     
   6.10399825434873        6.25711735163969        6.35408767295542     
   2.61512101247066        3.78075580655126        4.55578145981582     
   5.12512686682248        5.56117468275321        5.90111166651619     
   6.16653067399879        6.37037946255922        6.51941963577100     
   6.61281010956418        2.68356031914768        3.85824396278353     
   4.62580691244087        5.18085078829626        5.60015983286187     
   5.92323142263966        6.17287169257208        6.36265251172266     
   6.49978836277630        6.58445447668070        2.62334160219242     
   3.74080317568377        4.45298476857387        4.95742394075966     
   5.33228683514832        5.61727814625147        5.83479362481562     
   5.99774952739606        6.11285957611774        6.18117846679612     
   2.42784419659556        3.41477815843018        4.02167362656188     
   4.44165442736896        4.74924989871404        4.98080293797132     
   5.15599248105670        5.28565164116284        5.37497284966349     
   5.42477662808241        2.09228146685433        2.87507204412297     
   3.33777128706964        3.65321165503147        3.88298524398378     
   4.05557504850320        4.18598029975005        4.28238687986617     
   4.34890344192756        4.38683809881683        1.59840276848677     
   2.12624682625026        2.43391559523575        2.64409917073557     
   2.79773043190336        2.91346746422085        3.00116507562130     
   3.06643004252921        3.11295561596615        3.14634667835523     
  0.971515246552044        1.26702777902077        1.44086838815353     
   1.56027804197334        1.64785331098491        1.71397232278304     
   1.76414359517689        1.80148933505585        1.82780836651539     
   1.84363603916374     
  0.000000000000000E+000  0.000000000000000E+000  0.000000000000000E+000
  0.000000000000000E+000  0.000000000000000E+000  0.000000000000000E+000
  0.000000000000000E+000  0.000000000000000E+000  0.000000000000000E+000
  0.000000000000000E+000  0.000000000000000E+000  0.000000000000000E+000
  0.000000000000000E+000  0.000000000000000E+000  0.000000000000000E+000
  0.000000000000000E+000  0.000000000000000E+000  0.000000000000000E+000
  0.000000000000000E+000  0.000000000000000E+000  0.000000000000000E+000
  0.000000000000000E+000  0.000000000000000E+000  0.000000000000000E+000
  0.000000000000000E+000  0.000000000000000E+000  0.000000000000000E+000
  0.000000000000000E+000  0.000000000000000E+000  0.000000000000000E+000
  0.000000000000000E+000  0.000000000000000E+000  0.000000000000000E+000
  0.000000000000000E+000  0.000000000000000E+000  0.000000000000000E+000
  0.000000000000000E+000  0.000000000000000E+000  0.000000000000000E+000
  0.000000000000000E+000  0.000000000000000E+000  0.000000000000000E+000
  0.000000000000000E+000  0.000000000000000E+000  0.000000000000000E+000
  0.000000000000000E+000  0.000000000000000E+000  0.000000000000000E+000
  0.000000000000000E+000  0.000000000000000E+000  0.000000000000000E+000
  0.000000000000000E+000  0.000000000000000E+000  0.000000000000000E+000
  0.000000000000000E+000  0.000000000000000E+000  0.000000000000000E+000
  0.000000000000000E+000  0.000000000000000E+000  0.000000000000000E+000
  0.000000000000000E+000  0.000000000000000E+000  0.000000000000000E+000
  0.000000000000000E+000  0.000000000000000E+000  0.000000000000000E+000
  0.000000000000000E+000  0.000000000000000E+000  0.000000000000000E+000
  0.000000000000000E+000  0.000000000000000E+000  0.000000000000000E+000
  0.000000000000000E+000  0.000000000000000E+000  0.000000000000000E+000
  0.000000000000000E+000  0.000000000000000E+000  0.000000000000000E+000
  0.000000000000000E+000  0.000000000000000E+000  0.000000000000000E+000
  0.000000000000000E+000  0.000000000000000E+000  0.000000000000000E+000
  0.000000000000000E+000  0.000000000000000E+000  0.000000000000000E+000
  0.000000000000000E+000  0.000000000000000E+000  0.000000000000000E+000
  0.000000000000000E+000  0.000000000000000E+000  0.000000000000000E+000
  0.000000000000000E+000  0.000000000000000E+000  0.000000000000000E+000
  0.000000000000000E+000  0.000000000000000E+000  0.000000000000000E+000
  0.000000000000000E+000  0.000000000000000E+000  0.000000000000000E+000
  0.000000000000000E+000  0.000000000000000E+000  0.000000000000000E+000
  0.000000000000000E+000  0.000000000000000E+000  0.000000000000000E+000
  0.000000000000000E+000  0.000000000000000E+000  0.000000000000000E+000
  0.000000000000000E+000  0.000000000000000E+000  0.000000000000000E+000
  0.000000000000000E+000  0.000000000000000E+000  0.000000000000000E+000