 Title = "Wing and Wake"
 VARIABLES = "X" "Y" "Z" "GAM" "skew"
 Zone I=   11 J=   26 K=1  T="Blade"
 DATAPACKING=BLOCK
 VARLOCATION=([4]=CELLCENTERED,[5]=CELLCENTERED)
  0.259366931077139       0.243624486002973       0.227882040928807     
  0.212139595854640       0.196397150780474       0.180654705706308     
  0.164912260632142       0.149169815557975       0.133427370483809     
  0.117684925409643       0.101942480335477       0.261376066130908     
  0.245633621056742       0.229891175982576       0.214148730908410     
  0.198406285834243       0.182663840760077       0.166921395685911     
  0.151178950611744       0.135436505537578       0.119694060463412     
  0.103951615389246       0.267371786032219       0.251629340958053     
  0.235886895883886       0.220144450809720       0.204402005735554     
  0.188659560661387       0.172917115587221       0.157174670513055     
  0.141432225438889       0.125689780364722       0.109947335290556     
  0.277259534696557       0.261517089622391       0.245774644548225     
  0.230032199474059       0.214289754399892       0.198547309325726     
  0.182804864251560       0.167062419177393       0.151319974103227     
  0.135577529029061       0.119835083954895       0.290883376420832     
  0.275140931346666       0.259398486272500       0.243656041198333     
  0.227913596124167       0.212171151050001       0.196428705975835     
  0.180686260901669       0.164943815827502       0.149201370753336     
  0.133458925679170       0.308028455082564       0.292286010008398     
  0.276543564934231       0.260801119860065       0.245058674785899     
  0.229316229711733       0.213573784637566       0.197831339563400     
  0.182088894489234       0.166346449415067       0.150604004340901     
  0.328424382549282       0.312681937475116       0.296939492400950     
  0.281197047326784       0.265454602252618       0.249712157178452     
  0.233969712104285       0.218227267030119       0.202484821955953     
  0.186742376881786       0.170999931807620       0.351749502860903     
  0.336007057786736       0.320264612712570       0.304522167638403     
  0.288779722564237       0.273037277490071       0.257294832415905     
  0.241552387341738       0.225809942267572       0.210067497193406     
  0.194325052119240       0.377635964936357       0.361893519862190     
  0.346151074788024       0.330408629713858       0.314666184639692     
  0.298923739565525       0.283181294491359       0.267438849417193     
  0.251696404343027       0.235953959268860       0.220211514194694     
  0.405675523804893       0.389933078730727       0.374190633656561     
  0.358448188582394       0.342705743508228       0.326963298434062     
  0.311220853359896       0.295478408285730       0.279735963211563     
  0.263993518137397       0.248251073063231       0.435425978873135     
  0.419683533798969       0.403941088724802       0.388198643650636     
  0.372456198576470       0.356713753502304       0.340971308428137     
  0.325228863353971       0.309486418279805       0.293743973205639     
  0.278001528131472       0.466418147692594       0.450675702618428     
  0.434933257544262       0.419190812470095       0.403448367395929     
  0.387705922321763       0.371963477247597       0.356221032173431     
  0.340478587099264       0.324736142025098       0.308993696950932     
  0.498163265247165       0.482420820172999       0.466678375098832     
  0.450935930024666       0.435193484950500       0.419451039876334     
  0.403708594802167       0.387966149728001       0.372223704653835     
  0.356481259579669       0.340738814505502       0.530160692069397     
  0.514418246995231       0.498675801921065       0.482933356846898     
  0.467190911772732       0.451448466698565       0.435706021624400     
  0.419963576550233       0.404221131476067       0.388478686401901     
  0.372736241327734       0.561905809623968       0.546163364549802     
  0.530420919475635       0.514678474401469       0.498936029327302     
  0.483193584253137       0.467451139178970       0.451708694104803     
  0.435966249030637       0.420223803956471       0.404481358882305     
  0.592897978443427       0.577155533369260       0.561413088295095     
  0.545670643220929       0.529928198146762       0.514185753072596     
  0.498443307998430       0.482700862924264       0.466958417850098     
  0.451215972775930       0.435473527701765       0.622648433511669     
  0.606905988437503       0.591163543363336       0.575421098289170     
  0.559678653215003       0.543936208140837       0.528193763066671     
  0.512451317992505       0.496708872918338       0.480966427844172     
  0.465223982770006       0.650687992380205       0.634945547306038     
  0.619203102231873       0.603460657157706       0.587718212083540     
  0.571975767009374       0.556233321935207       0.540490876861041     
  0.524748431786875       0.509005986712709       0.493263541638542     
  0.676574454455659       0.660832009381493       0.645089564307327     
  0.629347119233161       0.613604674158995       0.597862229084829     
  0.582119784010662       0.566377338936496       0.550634893862330     
  0.534892448788163       0.519150003713997       0.699899574767279     
  0.684157129693113       0.668414684618946       0.652672239544780     
  0.636929794470614       0.621187349396447       0.605444904322282     
  0.589702459248116       0.573960014173949       0.558217569099783     
  0.542475124025616       0.720295502233998       0.704553057159832     
  0.688810612085665       0.673068167011499       0.657325721937333     
  0.641583276863167       0.625840831789001       0.610098386714834     
  0.594355941640668       0.578613496566501       0.562871051492336     
  0.737440580895730       0.721698135821564       0.705955690747396     
  0.690213245673231       0.674470800599066       0.658728355524899     
  0.642985910450732       0.627243465376566       0.611501020302400     
  0.595758575228233       0.580016130154066       0.751064422620004     
  0.735321977545838       0.719579532471672       0.703837087397505     
  0.688094642323339       0.672352197249173       0.656609752175007     
  0.640867307100842       0.625124862026675       0.609382416952508     
  0.593639971878341       0.760952171284343       0.745209726210178     
  0.729467281136010       0.713724836061845       0.697982390987678     
  0.682239945913512       0.666497500839346       0.650755055765179     
  0.635012610691013       0.619270165616847       0.603527720542680     
  0.766947891185652       0.751205446111488       0.735463001037322     
  0.719720555963154       0.703978110888989       0.688235665814822     
  0.672493220740655       0.656750775666489       0.641008330592323     
  0.625265885518157       0.609523440443991       0.768957026239422     
  0.753214581165256       0.737472136091091       0.721729691016924     
  0.705987245942757       0.690244800868592       0.674502355794425     
  0.658759910720258       0.643017465646093       0.627275020571926     
  0.611532575497761     
 -6.127874131657212E-002 -7.124822667480056E-002 -8.121771203302884E-002
 -9.118719739125704E-002 -0.101156682749486      -0.111126168107714     
 -0.121095653465942      -0.131065138824170      -0.141034624182399     
 -0.151004109540627      -0.160973594898855      -6.445129206458419E-002
 -7.442077742281264E-002 -8.439026278104100E-002 -9.435974813926935E-002
 -0.104329233497498      -0.114298718855726      -0.124268204213954     
 -0.134237689572182      -0.144207174930411      -0.154176660288639     
 -0.164146145646867      -7.391891128813421E-002 -8.388839664636275E-002
 -9.385788200459109E-002 -0.103827367362819      -0.113796852721048     
 -0.123766338079276      -0.133735823437504      -0.143705308795733     
 -0.153674794153961      -0.163644279512189      -0.173613764870417     
 -8.953228897638574E-002 -9.950177433461418E-002 -0.109471259692843     
 -0.119440745051071      -0.129410230409299      -0.139379715767527     
 -0.149349201125756      -0.159318686483984      -0.169288171842212     
 -0.179257657200441      -0.189227142558669      -0.111045192836214     
 -0.121014678194443      -0.130984163552671      -0.140953648910899     
 -0.150923134269128      -0.160892619627356      -0.170862104985585     
 -0.180831590343813      -0.190801075702041      -0.200770561060269     
 -0.210740046418498      -0.138118351522565      -0.148087836880794     
 -0.158057322239022      -0.168026807597250      -0.177996292955479     
 -0.187965778313708      -0.197935263671935      -0.207904749030164     
 -0.217874234388392      -0.227843719746620      -0.237813205104849     
 -0.170324805150234      -0.180294290508462      -0.190263775866690     
 -0.200233261224919      -0.210202746583148      -0.220172231941376     
 -0.230141717299604      -0.240111202657832      -0.250080688016060     
 -0.260050173374289      -0.270019658732517      -0.207156638706309     
 -0.217126124064537      -0.227095609422766      -0.237065094780994     
 -0.247034580139222      -0.257004065497450      -0.266973550855679     
 -0.276943036213907      -0.286912521572135      -0.296882006930363     
 -0.306851492288592      -0.248032992173340      -0.258002477531568     
 -0.267971962889797      -0.277941448248025      -0.287910933606253     
 -0.297880418964481      -0.307849904322710      -0.317819389680938     
 -0.327788875039167      -0.337758360397395      -0.347727845755623     
 -0.292309221038802      -0.302278706397030      -0.312248191755258     
 -0.322217677113487      -0.332187162471715      -0.342156647829943     
 -0.352126133188171      -0.362095618546400      -0.372065103904628     
 -0.382034589262857      -0.392004074621085      -0.339287062724149     
 -0.349256548082378      -0.359226033440606      -0.369195518798835     
 -0.379165004157063      -0.389134489515292      -0.399103974873519     
 -0.409073460231748      -0.419042945589976      -0.429012430948204     
 -0.438981916306432      -0.388225648602803      -0.398195133961031     
 -0.408164619319259      -0.418134104677487      -0.428103590035716     
 -0.438073075393944      -0.448042560752172      -0.458012046110401     
 -0.467981531468629      -0.477951016826857      -0.487920502185086     
 -0.438353187940961      -0.448322673299189      -0.458292158657416     
 -0.468261644015645      -0.478231129373874      -0.488200614732102     
 -0.498170100090330      -0.508139585448559      -0.518109070806786     
 -0.528078556165015      -0.538048041523244      -0.488879139498520     
 -0.498848624856749      -0.508818110214976      -0.518787595573204     
 -0.528757080931433      -0.538726566289661      -0.548696051647891     
 -0.558665537006118      -0.568635022364347      -0.578604507722575     
 -0.588573993080803      -0.539006678836678      -0.548976164194906     
 -0.558945649553135      -0.568915134911362      -0.578884620269591     
 -0.588854105627819      -0.598823590986047      -0.608793076344276     
 -0.618762561702504      -0.628732047060732      -0.638701532418962     
 -0.587945264715331      -0.597914750073559      -0.607884235431788     
 -0.617853720790015      -0.627823206148244      -0.637792691506472     
 -0.647762176864700      -0.657731662222929      -0.667701147581157     
 -0.677670632939385      -0.687640118297614      -0.634923106400679     
 -0.644892591758907      -0.654862077117135      -0.664831562475364     
 -0.674801047833591      -0.684770533191820      -0.694740018550048     
 -0.704709503908277      -0.714678989266505      -0.724648474624734     
 -0.734617959982962      -0.679199335266141      -0.689168820624368     
 -0.699138305982597      -0.709107791340825      -0.719077276699054     
 -0.729046762057282      -0.739016247415511      -0.748985732773738     
 -0.758955218131967      -0.768924703490195      -0.778894188848423     
 -0.720075688733171      -0.730045174091399      -0.740014659449628     
 -0.749984144807855      -0.759953630166085      -0.769923115524313     
 -0.779892600882541      -0.789862086240769      -0.799831571598998     
 -0.809801056957227      -0.819770542315454      -0.756907522289246     
 -0.766877007647475      -0.776846493005702      -0.786815978363932     
 -0.796785463722159      -0.806754949080388      -0.816724434438615     
 -0.826693919796845      -0.836663405155073      -0.846632890513301     
 -0.856602375871528      -0.789113975916915      -0.799083461275143     
 -0.809052946633371      -0.819022431991598      -0.828991917349828     
 -0.838961402708055      -0.848930888066285      -0.858900373424514     
 -0.868869858782741      -0.878839344140969      -0.888808829499198     
 -0.816187134603265      -0.826156619961494      -0.836126105319721     
 -0.846095590677952      -0.856065076036179      -0.866034561394408     
 -0.876004046752636      -0.885973532110864      -0.895943017469092     
 -0.905912502827321      -0.915881988185550      -0.837700038463094     
 -0.847669523821322      -0.857639009179551      -0.867608494537778     
 -0.877577979896007      -0.887547465254236      -0.897516950612464     
 -0.907486435970693      -0.917455921328921      -0.927425406687149     
 -0.937394892045378      -0.853313416151346      -0.863282901509574     
 -0.873252386867802      -0.883221872226031      -0.893191357584259     
 -0.903160842942488      -0.913130328300715      -0.923099813658944     
 -0.933069299017172      -0.943038784375401      -0.953008269733629     
 -0.862781035374895      -0.872750520733123      -0.882720006091352     
 -0.892689491449580      -0.902658976807809      -0.912628462166038     
 -0.922597947524265      -0.932567432882494      -0.942536918240722     
 -0.952506403598950      -0.962475888957179      -0.865953586122907     
 -0.875923071481135      -0.885892556839363      -0.895862042197594     
 -0.905831527555821      -0.915801012914049      -0.925770498272278     
 -0.935739983630504      -0.945709468988734      -0.955678954346962     
 -0.965648439705192     
  3.960717710078315E-002  3.564645939070483E-002  3.168574168062652E-002
  2.772502397054821E-002  2.376430626046989E-002  1.980358855039158E-002
  1.584287084031326E-002  1.188215313023495E-002  7.921435420156629E-003
  3.960717710078312E-003  0.000000000000000E+000  3.960717710078315E-002
  3.564645939070483E-002  3.168574168062652E-002  2.772502397054821E-002
  2.376430626046989E-002  1.980358855039158E-002  1.584287084031326E-002
  1.188215313023495E-002  7.921435420156629E-003  3.960717710078312E-003
  0.000000000000000E+000  3.960717710078315E-002  3.564645939070483E-002
  3.168574168062652E-002  2.772502397054821E-002  2.376430626046989E-002
  1.980358855039158E-002  1.584287084031326E-002  1.188215313023495E-002
  7.921435420156629E-003  3.960717710078312E-003  0.000000000000000E+000
  3.960717710078315E-002  3.564645939070483E-002  3.168574168062652E-002
  2.772502397054821E-002  2.376430626046989E-002  1.980358855039158E-002
  1.584287084031326E-002  1.188215313023495E-002  7.921435420156629E-003
  3.960717710078312E-003  0.000000000000000E+000  3.960717710078315E-002
  3.564645939070483E-002  3.168574168062652E-002  2.772502397054821E-002
  2.376430626046989E-002  1.980358855039158E-002  1.584287084031326E-002
  1.188215313023495E-002  7.921435420156629E-003  3.960717710078312E-003
  0.000000000000000E+000  3.960717710078315E-002  3.564645939070483E-002
  3.168574168062652E-002  2.772502397054821E-002  2.376430626046989E-002
  1.980358855039158E-002  1.584287084031326E-002  1.188215313023495E-002
  7.921435420156629E-003  3.960717710078312E-003  0.000000000000000E+000
  3.960717710078315E-002  3.564645939070483E-002  3.168574168062652E-002
  2.772502397054821E-002  2.376430626046989E-002  1.980358855039158E-002
  1.584287084031326E-002  1.188215313023495E-002  7.921435420156629E-003
  3.960717710078312E-003  0.000000000000000E+000  3.960717710078315E-002
  3.564645939070483E-002  3.168574168062652E-002  2.772502397054821E-002
  2.376430626046989E-002  1.980358855039158E-002  1.584287084031326E-002
  1.188215313023495E-002  7.921435420156629E-003  3.960717710078312E-003
  0.000000000000000E+000  3.960717710078315E-002  3.564645939070483E-002
  3.168574168062652E-002  2.772502397054821E-002  2.376430626046989E-002
  1.980358855039158E-002  1.584287084031326E-002  1.188215313023495E-002
  7.921435420156629E-003  3.960717710078312E-003  0.000000000000000E+000
  3.960717710078315E-002  3.564645939070483E-002  3.168574168062652E-002
  2.772502397054821E-002  2.376430626046989E-002  1.980358855039158E-002
  1.584287084031326E-002  1.188215313023495E-002  7.921435420156629E-003
  3.960717710078312E-003  0.000000000000000E+000  3.960717710078315E-002
  3.564645939070483E-002  3.168574168062652E-002  2.772502397054821E-002
  2.376430626046989E-002  1.980358855039158E-002  1.584287084031326E-002
  1.188215313023495E-002  7.921435420156629E-003  3.960717710078312E-003
  0.000000000000000E+000  3.960717710078315E-002  3.564645939070483E-002
  3.168574168062652E-002  2.772502397054821E-002  2.376430626046989E-002
  1.980358855039158E-002  1.584287084031326E-002  1.188215313023495E-002
  7.921435420156629E-003  3.960717710078312E-003  0.000000000000000E+000
  3.960717710078315E-002  3.564645939070483E-002  3.168574168062652E-002
  2.772502397054821E-002  2.376430626046989E-002  1.980358855039158E-002
  1.584287084031326E-002  1.188215313023495E-002  7.921435420156629E-003
  3.960717710078312E-003  0.000000000000000E+000  3.960717710078315E-002
  3.564645939070483E-002  3.168574168062652E-002  2.772502397054821E-002
  2.376430626046989E-002  1.980358855039158E-002  1.584287084031326E-002
  1.188215313023495E-002  7.921435420156629E-003  3.960717710078312E-003
  0.000000000000000E+000  3.960717710078315E-002  3.564645939070483E-002
  3.168574168062652E-002  2.772502397054821E-002  2.376430626046989E-002
  1.980358855039158E-002  1.584287084031326E-002  1.188215313023495E-002
  7.921435420156629E-003  3.960717710078312E-003  0.000000000000000E+000
  3.960717710078315E-002  3.564645939070483E-002  3.168574168062652E-002
  2.772502397054821E-002  2.376430626046989E-002  1.980358855039158E-002
  1.584287084031326E-002  1.188215313023495E-002  7.921435420156629E-003
  3.960717710078312E-003  0.000000000000000E+000  3.960717710078315E-002
  3.564645939070483E-002  3.168574168062652E-002  2.772502397054821E-002
  2.376430626046989E-002  1.980358855039158E-002  1.584287084031326E-002
  1.188215313023495E-002  7.921435420156629E-003  3.960717710078312E-003
  0.000000000000000E+000  3.960717710078315E-002  3.564645939070483E-002
  3.168574168062652E-002  2.772502397054821E-002  2.376430626046989E-002
  1.980358855039158E-002  1.584287084031326E-002  1.188215313023495E-002
  7.921435420156629E-003  3.960717710078312E-003  0.000000000000000E+000
  3.960717710078315E-002  3.564645939070483E-002  3.168574168062652E-002
  2.772502397054821E-002  2.376430626046989E-002  1.980358855039158E-002
  1.584287084031326E-002  1.188215313023495E-002  7.921435420156629E-003
  3.960717710078312E-003  0.000000000000000E+000  3.960717710078315E-002
  3.564645939070483E-002  3.168574168062652E-002  2.772502397054821E-002
  2.376430626046989E-002  1.980358855039158E-002  1.584287084031326E-002
  1.188215313023495E-002  7.921435420156629E-003  3.960717710078312E-003
  0.000000000000000E+000  3.960717710078315E-002  3.564645939070483E-002
  3.168574168062652E-002  2.772502397054821E-002  2.376430626046989E-002
  1.980358855039158E-002  1.584287084031326E-002  1.188215313023495E-002
  7.921435420156629E-003  3.960717710078312E-003  0.000000000000000E+000
  3.960717710078315E-002  3.564645939070483E-002  3.168574168062652E-002
  2.772502397054821E-002  2.376430626046989E-002  1.980358855039158E-002
  1.584287084031326E-002  1.188215313023495E-002  7.921435420156629E-003
  3.960717710078312E-003  0.000000000000000E+000  3.960717710078315E-002
  3.564645939070483E-002  3.168574168062652E-002  2.772502397054821E-002
  2.376430626046989E-002  1.980358855039158E-002  1.584287084031326E-002
  1.188215313023495E-002  7.921435420156629E-003  3.960717710078312E-003
  0.000000000000000E+000  3.960717710078315E-002  3.564645939070483E-002
  3.168574168062652E-002  2.772502397054821E-002  2.376430626046989E-002
  1.980358855039158E-002  1.584287084031326E-002  1.188215313023495E-002
  7.921435420156629E-003  3.960717710078312E-003  0.000000000000000E+000
  3.960717710078315E-002  3.564645939070483E-002  3.168574168062652E-002
  2.772502397054821E-002  2.376430626046989E-002  1.980358855039158E-002
  1.584287084031326E-002  1.188215313023495E-002  7.921435420156629E-003
  3.960717710078312E-003  0.000000000000000E+000  3.960717710078315E-002
  3.564645939070483E-002  3.168574168062652E-002  2.772502397054821E-002
  2.376430626046989E-002  1.980358855039158E-002  1.584287084031326E-002
  1.188215313023495E-002  7.921435420156629E-003  3.960717710078312E-003
  0.000000000000000E+000
  0.156448735226620       0.225511755665390       0.266543806410512     
  0.287443043135731       0.296905575548835       0.301773145482354     
  0.306097065941936       0.311659727422211       0.318665693357404     
  0.325988319409946       0.251792132822394       0.367735841331152     
  0.437260899331286       0.475075498851105       0.494436569936241     
  0.505751462280742       0.515561187843537       0.527015250744250     
  0.540846685276402       0.556065269159674       0.309078113806228     
  0.463703754550244       0.561266773839613       0.621471388312893     
  0.659407305434877       0.685697149331306       0.708140623831067     
  0.731173705735852       0.756041056841454       0.780043909003700     
  0.323469004056045       0.501258745060160       0.624953032952032     
  0.711821838766086       0.776503341930380       0.827559513201866     
  0.871223359944672       0.912213749538892       0.951686705889002     
  0.986621058001558       0.332847776732740       0.521827961456561     
  0.665206120906867       0.778090489634001       0.871439959672259     
  0.952249451043321        1.02358798205645        1.08742072137126     
   1.14405966422069        1.19040625773409       0.381522297393560     
  0.587354500925814       0.747029559455407       0.881582362095920     
  0.999593714547590        1.10493115732002        1.19885912348468     
   1.28174577619456        1.35316478922861        1.40970250571468     
  0.476731892247940       0.721101190326092       0.906986594442961     
   1.06294064336295        1.19898389555324        1.31929314564019     
   1.42566790515934        1.51873677673841        1.59798433893418     
   1.65959488900486       0.601061950406988       0.899188720553894     
   1.12000244160393        1.30068112612626        1.45459516984476     
   1.58783692872054        1.70337611774682        1.80253351931308     
   1.88509155148761        1.94721465539305       0.737010252647107     
   1.09634086248506        1.35779292137930        1.56772974596311     
   1.74310948213831        1.89199090184653        2.01853236968377     
   2.12466980769072        2.21053024403552        2.27240416827217     
  0.884312422374465        1.31046588709190        1.61669675659891     
   1.85939424363708        2.05938776990883        2.22670317404534     
   2.36668091734702        2.48193957711260        2.57281908431947     
   2.63545643676786        1.04471650216719        1.54358795102313     
   1.89870527935088        2.17740301682925        2.40476996883302     
   2.59299942082037        2.74862459963292        2.87493385436972     
   2.97251679616665        3.03735279026920        1.21839456980585     
   1.79591371319645        2.20398741137756        2.52184759132525     
   2.77916137695278        2.99043872780116        3.16354929067600     
   3.30257168419378        3.40842713262363        3.47694638303487     
   1.40430643055569        2.06587591969412        2.53046094152454     
   2.89008812219770        3.17936694065047        3.41533365449215     
   3.60732516184373        3.76028501303280        3.87560027422600     
   3.94908253887414        1.60102146326083        2.35106059365864     
   2.87479415075168        3.27788888087085        3.60025174508437     
   3.86164747778146        4.07304678129711        4.24042579578949     
   4.36574164486371        4.44487455121428        1.80791053331369     
   2.64989780754194        3.23428876669522        3.68130912195319     
   4.03660069379592        4.32294186809444        4.55313878215079     
   4.73434583116488        4.86924491546766        4.95395723613560     
   2.02614975259410        2.96283134539221        3.60806798864148     
   4.09794086605489        4.48445106392075        4.79377180776210     
   5.04078631900078        5.23402878161396        5.37709662213032     
   5.46656279857700        2.25507187998064        3.28720316251239     
   3.99117524183659        4.52058450291676        4.93458702867812     
   5.26320120150291        5.52366996366269        5.72607817854814     
   5.87507578306458        5.96789676655974        2.47708153033361     
   3.59675818333639        4.35121439875324        4.91216717727830     
   5.34628738149374        5.68763208914120        5.95588176975398     
   6.16269650811712        6.31382474065141        6.40737770957069     
   2.65186642979419        3.83293515351211        4.61751417403153     
   5.19332725415356        5.63384371645515        5.97673312078730     
   6.24377038926997        6.44791708551595        6.59583999528456     
   6.68658742598585        2.73051887392441        3.92473508369732     
   4.70449171722181        5.26805052684728        5.69361354853653     
   6.02130525657867        6.27417858481041        6.46584256291450     
   6.60338326455223        6.68669114918914        2.67342756005387     
   3.81174149731516        4.53698416408030        5.05055985734837     
   5.43212500620472        5.72207124223193        5.94309727236010     
   6.10819100188482        6.22394836992189        6.29114378388836     
   2.47421776149194        3.48007573011230        4.09863878317469     
   4.52668705194297        4.84013562142362        5.07596356299375     
   5.25413648189710        5.38556158293774        5.47532996691100     
   5.52402426618403        2.13123405467491        2.92901978613088     
   3.40074838163804        3.72239249101512        3.95665876368245     
   4.13252418255004        4.26520949248266        4.36296129414501     
   4.42981745173359        4.46691217637886        1.62745450585556     
   2.16539925102830        2.47912197885444        2.69349168840024     
   2.85017166641272        2.96814063160742        3.05739868914690     
   3.12359713763561        3.17039890179754        3.20336444628925     
  0.988989616132348        1.29016771833517        1.46744252075471     
   1.58924234717291        1.67856542069019        1.74596750963014     
   1.79703812134128        1.83492420239418        1.86140351101012     
   1.87694397351071     
  0.000000000000000E+000  0.000000000000000E+000  0.000000000000000E+000
  0.000000000000000E+000  0.000000000000000E+000  0.000000000000000E+000
  0.000000000000000E+000  0.000000000000000E+000  0.000000000000000E+000
  0.000000000000000E+000  0.000000000000000E+000  0.000000000000000E+000
  0.000000000000000E+000  0.000000000000000E+000  0.000000000000000E+000
  0.000000000000000E+000  0.000000000000000E+000  0.000000000000000E+000
  0.000000000000000E+000  0.000000000000000E+000  0.000000000000000E+000
  0.000000000000000E+000  0.000000000000000E+000  0.000000000000000E+000
  0.000000000000000E+000  0.000000000000000E+000  0.000000000000000E+000
  0.000000000000000E+000  0.000000000000000E+000  0.000000000000000E+000
  0.000000000000000E+000  0.000000000000000E+000  0.000000000000000E+000
  0.000000000000000E+000  0.000000000000000E+000  0.000000000000000E+000
  0.000000000000000E+000  0.000000000000000E+000  0.000000000000000E+000
  0.000000000000000E+000  0.000000000000000E+000  0.000000000000000E+000
  0.000000000000000E+000  0.000000000000000E+000  0.000000000000000E+000
  0.000000000000000E+000  0.000000000000000E+000  0.000000000000000E+000
  0.000000000000000E+000  0.000000000000000E+000  0.000000000000000E+000
  0.000000000000000E+000  0.000000000000000E+000  0.000000000000000E+000
  0.000000000000000E+000  0.000000000000000E+000  0.000000000000000E+000
  0.000000000000000E+000  0.000000000000000E+000  0.000000000000000E+000
  0.000000000000000E+000  0.000000000000000E+000  0.000000000000000E+000
  0.000000000000000E+000  0.000000000000000E+000  0.000000000000000E+000
  0.000000000000000E+000  0.000000000000000E+000  0.000000000000000E+000
  0.000000000000000E+000  0.000000000000000E+000  0.000000000000000E+000
  0.000000000000000E+000  0.000000000000000E+000  0.000000000000000E+000
  0.000000000000000E+000  0.000000000000000E+000  0.000000000000000E+000
  0.000000000000000E+000  0.000000000000000E+000  0.000000000000000E+000
  0.000000000000000E+000  0.000000000000000E+000  0.000000000000000E+000
  0.000000000000000E+000  0.000000000000000E+000  0.000000000000000E+000
  0.000000000000000E+000  0.000000000000000E+000  0.000000000000000E+000
  0.000000000000000E+000  0.000000000000000E+000  0.000000000000000E+000
  0.000000000000000E+000  0.000000000000000E+000  0.000000000000000E+000
  0.000000000000000E+000  0.000000000000000E+000  0.000000000000000E+000
  0.000000000000000E+000  0.000000000000000E+000  0.000000000000000E+000
  0.000000000000000E+000  0.000000000000000E+000  0.000000000000000E+000
  0.000000000000000E+000  0.000000000000000E+000  0.000000000000000E+000
  0.000000000000000E+000  0.000000000000000E+000  0.000000000000000E+000
  0.000000000000000E+000  0.000000000000000E+000  0.000000000000000E+000
  0.000000000000000E+000  0.000000000000000E+000  0.000000000000000E+000