 Title = "Wing and Wake"
 VARIABLES = "X" "Y" "Z" "GAM" "skew"
 Zone I=   11 J=   26 K=1  T="Blade"
 DATAPACKING=BLOCK
 VARLOCATION=([4]=CELLCENTERED,[5]=CELLCENTERED)
  0.182743386721485       0.183506858015727       0.184270329309968     
  0.185033800604209       0.185797271898450       0.186560743192691     
  0.187324214486932       0.188087685781174       0.188851157075415     
  0.189614628369656       0.190378099663897       0.186495456636264     
  0.187258927930506       0.188022399224747       0.188785870518988     
  0.189549341813229       0.190312813107470       0.191076284401711     
  0.191839755695952       0.192603226990194       0.193366698284435     
  0.194130169578676       0.197692493996667       0.198455965290909     
  0.199219436585150       0.199982907879391       0.200746379173632     
  0.201509850467873       0.202273321762114       0.203036793056356     
  0.203800264350597       0.204563735644838       0.205327206939079     
  0.216157914834735       0.216921386128976       0.217684857423217     
  0.218448328717459       0.219211800011699       0.219975271305941     
  0.220738742600182       0.221502213894423       0.222265685188664     
  0.223029156482906       0.223792627777146       0.241600508433142     
  0.242363979727384       0.243127451021625       0.243890922315866     
  0.244654393610107       0.245417864904349       0.246181336198590     
  0.246944807492831       0.247708278787072       0.248471750081313     
  0.249235221375555       0.273619029892175       0.274382501186417     
  0.275145972480657       0.275909443774899       0.276672915069140     
  0.277436386363382       0.278199857657622       0.278963328951864     
  0.279726800246105       0.280490271540346       0.281253742834587     
  0.311708528001486       0.312471999295727       0.313235470589969     
  0.313998941884210       0.314762413178451       0.315525884472693     
  0.316289355766933       0.317052827061175       0.317816298355415     
  0.318579769649657       0.319343240943898       0.355268308622329     
  0.356031779916570       0.356795251210811       0.357558722505052     
  0.358322193799293       0.359085665093535       0.359849136387776     
  0.360612607682017       0.361376078976258       0.362139550270499     
  0.362903021564741       0.403611407992960       0.404374879287201     
  0.405138350581443       0.405901821875684       0.406665293169925     
  0.407428764464166       0.408192235758407       0.408955707052648     
  0.409719178346890       0.410482649641131       0.411246120935372     
  0.455975426557537       0.456738897851779       0.457502369146020     
  0.458265840440261       0.459029311734502       0.459792783028743     
  0.460556254322984       0.461319725617226       0.462083196911467     
  0.462846668205708       0.463610139499949       0.511534552462550     
  0.512298023756791       0.513061495051032       0.513824966345273     
  0.514588437639515       0.515351908933756       0.516115380227996     
  0.516878851522238       0.517642322816478       0.518405794110720     
  0.519169265404961       0.569412585103061       0.570176056397302     
  0.570939527691544       0.571702998985784       0.572466470280026     
  0.573229941574267       0.573993412868508       0.574756884162749     
  0.575520355456990       0.576283826751231       0.577047298045473     
  0.628696753329670       0.629460224623911       0.630223695918151     
  0.630987167212393       0.631750638506634       0.632514109800875     
  0.633277581095117       0.634041052389358       0.634804523683599     
  0.635567994977840       0.636331466272082       0.688452110394798     
  0.689215581689038       0.689979052983279       0.690742524277520     
  0.691505995571762       0.692269466866003       0.693032938160245     
  0.693796409454485       0.694559880748728       0.695323352042968     
  0.696086823337209       0.747736278621406       0.748499749915647     
  0.749263221209890       0.750026692504129       0.750790163798370     
  0.751553635092612       0.752317106386852       0.753080577681094     
  0.753844048975335       0.754607520269576       0.755370991563819     
  0.805614311261918       0.806377782556158       0.807141253850400     
  0.807904725144641       0.808668196438883       0.809431667733124     
  0.810195139027364       0.810958610321606       0.811722081615847     
  0.812485552910087       0.813249024204330       0.861173437166930     
  0.861936908461171       0.862700379755411       0.863463851049654     
  0.864227322343894       0.864990793638135       0.865754264932377     
  0.866517736226618       0.867281207520859       0.868044678815101     
  0.868808150109342       0.913537455731508       0.914300927025748     
  0.915064398319989       0.915827869614230       0.916591340908471     
  0.917354812202714       0.918118283496954       0.918881754791195     
  0.919645226085436       0.920408697379677       0.921172168673918     
  0.961880555102138       0.962644026396378       0.963407497690621     
  0.964170968984861       0.964934440279103       0.965697911573345     
  0.966461382867584       0.967224854161827       0.967988325456068     
  0.968751796750309       0.969515268044550        1.00544033572298     
   1.00620380701722        1.00696727831146        1.00773074960571     
   1.00849422089994        1.00925769219419        1.01002116348843     
   1.01078463478267        1.01154810607691        1.01231157737115     
   1.01307504866539        1.04352983383229        1.04429330512653     
   1.04505677642077        1.04582024771501        1.04658371900926     
   1.04734719030350        1.04811066159774        1.04887413289198     
   1.04963760418622        1.05040107548046        1.05116454677470     
   1.07554835529132        1.07631182658557        1.07707529787981     
   1.07783876917405        1.07860224046829        1.07936571176253     
   1.08012918305677        1.08089265435101        1.08165612564525     
   1.08241959693949        1.08318306823374        1.10099094888973     
   1.10175442018397        1.10251789147821        1.10328136277245     
   1.10404483406670        1.10480830536094        1.10557177665518     
   1.10633524794942        1.10709871924366        1.10786219053790     
   1.10862566183214        1.11945636972780        1.12021984102204     
   1.12098331231628        1.12174678361052        1.12251025490476     
   1.12327372619901        1.12403719749325        1.12480066878749     
   1.12556414008173        1.12632761137597        1.12709108267021     
   1.13065340708820        1.13141687838244        1.13218034967669     
   1.13294382097092        1.13370729226517        1.13447076355941     
   1.13523423485365        1.13599770614789        1.13676117744213     
   1.13752464873637        1.13828812003061        1.13440547700298     
   1.13516894829722        1.13593241959146        1.13669589088570     
   1.13745936217995        1.13822283347419        1.13898630476843     
   1.13974977606267        1.14051324735691        1.14127671865115     
   1.14204018994539     
  0.193987483316008       0.175369418787063       0.156751354258119     
  0.138133289729174       0.119515225200230       0.100897160671285     
  8.227909614234101E-002  6.366103161339653E-002  4.504296708445225E-002
  2.642490255550759E-002  7.806838026563184E-003  0.194141344511916     
  0.175523279982972       0.156905215454027       0.138287150925083     
  0.119669086396138       0.101051021867194       8.243295733824922E-002
  6.381489280930482E-002  4.519682828036039E-002  2.657876375141600E-002
  7.960699222471335E-003  0.194600501616669       0.175982437087725     
  0.157364372558780       0.138746308029835       0.120128243500891     
  0.101510178971947       8.289211444300200E-002  6.427404991405784E-002
  4.565598538511340E-002  2.703792085616875E-002  8.419856327224492E-003
  0.195357713448437       0.176739648919493       0.158121584390548     
  0.139503519861604       0.120885455332660       0.102267390803715     
  8.364932627477077E-002  6.503126174582642E-002  4.641319721688189E-002
  2.779513268793735E-002  9.177068158993230E-003  0.196401038324298     
  0.177782973795354       0.159164909266409       0.140546844737465     
  0.121928780208520       0.103310715679576       8.469265115063143E-002
  6.607458662168714E-002  4.745652209274273E-002  2.883845756379831E-002
  1.022039303485382E-002  0.197714022387707       0.179095957858762     
  0.160477893329818       0.141859828800873       0.123241764271929     
  0.104623699742984       8.600563521404014E-002  6.738757068509568E-002
  4.876950615615102E-002  3.015144162720648E-002  1.153337709826211E-002
  0.199275959095644       0.180657894566700       0.162039830037756     
  0.143421765508811       0.124803700979867       0.106185636450922     
  8.756757192197796E-002  6.894950739303363E-002  5.033144286408937E-002
  3.171337833514458E-002  1.309531380620027E-002  0.201062215773172     
  0.182444151244227       0.163826086715282       0.145208022186338     
  0.126589957657394       0.107971893128449       8.935382859950486E-002
  7.073576407056076E-002  5.211769954161589E-002  3.349963501267179E-002
  1.488157048372726E-002  0.203044622085425       0.184426557556480     
  0.165808493027536       0.147190428498592       0.128572363969648     
  0.109954299440703       9.133623491175850E-002  7.271817038281428E-002
  5.410010585386948E-002  3.548204132492531E-002  1.686397679598119E-002
  0.205191914300629       0.186573849771685       0.167955785242741     
  0.149337720713796       0.130719656184851       0.112101591655907     
  9.348352712696271E-002  7.486546259801827E-002  5.624739806907364E-002
  3.762933354012928E-002  1.901126901118491E-002  0.207470228337820     
  0.188852163808875       0.170234099279931       0.151616034750987     
  0.132997970222042       0.114379905693097       9.576184116415302E-002
  7.714377663520819E-002  5.852571210626407E-002  3.990764757731961E-002
  2.128958304837521E-002  0.209843633823630       0.191225569294686     
  0.172607504765742       0.153989440236797       0.135371375707853     
  0.116753311178909       9.813524664996448E-002  7.951718212101959E-002
  6.089911759207513E-002  4.228105306313108E-002  2.366298853418656E-002
  0.212274700735748       0.193656636206804       0.175038571677858     
  0.156420507148915       0.137802442619970       0.119184378091026     
  0.100566313562081       8.194824903313681E-002  6.333018450419294E-002
  4.471211997524841E-002  2.609405544630338E-002  0.214725089696719     
  0.196107025167773       0.177488960638830       0.158870896109885     
  0.140252831580941       0.121634767051996       0.103016702523051     
  8.439863799410778E-002  6.578057346516261E-002  4.716250893621809E-002
  2.854444440727377E-002  0.217156156608835       0.198538092079891     
  0.179920027550947       0.161301963022003       0.142683898493057     
  0.124065833964114       0.105447769435169       8.682970490622384E-002
  6.821164037727957E-002  4.959357584833565E-002  3.097551131939129E-002
  0.219529562094647       0.200911497565702       0.182293433036758     
  0.163675368507814       0.145057303978869       0.126439239449924     
  0.107821174920980       8.920311039203553E-002  7.058504586309165E-002
  5.196698133414671E-002  3.334891680520231E-002  0.221807876131837     
  0.203189811602893       0.184571747073948       0.165953682545004     
  0.147335618016059       0.128717553487115       0.110099488958170     
  9.148142442922617E-002  7.286335990028164E-002  5.424529537133704E-002
  3.562723084239294E-002  0.223955168347041       0.205337103818096     
  0.186719039289152       0.168100974760208       0.149482910231263     
  0.130864845702319       0.112246781173374       9.362871664442969E-002
  7.501065211548527E-002  5.639258758654071E-002  3.777452305759686E-002
  0.225937574659294       0.207319510130350       0.188701445601405     
  0.170083381072462       0.151465316543517       0.132847252014572     
  0.114229187485629       9.561112295668368E-002  7.699305842773913E-002
  5.837499389879446E-002  3.975692936985058E-002  0.227723831336822     
  0.209105766807877       0.190487702278933       0.171869637749988     
  0.153251573221045       0.134633508692098       0.116015444163156     
  9.739737963421101E-002  7.877931510526548E-002  6.016125057632112E-002
  4.154318604737745E-002  0.229285768044759       0.210667703515815     
  0.192049638986871       0.173431574457927       0.154813509928982     
  0.136195445400038       0.117577380871092       9.895931634214795E-002
  8.034125181320395E-002  6.172318728425927E-002  4.310512275531507E-002
  0.230598752108169       0.211980687579224       0.193362623050278     
  0.174744558521334       0.156126493992392       0.137508429463446     
  0.118890364934501       0.100272300405557       8.165423587661333E-002
  6.303617134766769E-002  4.441810681872260E-002  0.231642076984028     
  0.213024012455085       0.194405947926140       0.175787883397196     
  0.157169818868251       0.138551754339307       0.119933689810362     
  0.101315625281417       8.269756075247306E-002  6.407949622352947E-002
  4.546143169458368E-002  0.232399288815798       0.213781224286854     
  0.195163159757908       0.176545095228964       0.157927030700020     
  0.139308966171074       0.120690901642131       0.102072837113185     
  8.345477258424223E-002  6.483670805529645E-002  4.621864352635247E-002
  0.232858445920550       0.214240381391607       0.195622316862663     
  0.177004252333717       0.158386187804772       0.139768123275827     
  0.121150058746883       0.102531994217939       8.391392968899525E-002
  6.529586516005052E-002  4.667780063110599E-002  0.233012307116458     
  0.214394242587513       0.195776178058571       0.177158113529625     
  0.158540049000681       0.139921984471737       0.121303919942791     
  0.102685855413847       8.406779088490353E-002  6.544972635595846E-002
  4.683166182701365E-002
  3.960717710078315E-002  3.564645939070483E-002  3.168574168062652E-002
  2.772502397054821E-002  2.376430626046989E-002  1.980358855039158E-002
  1.584287084031326E-002  1.188215313023495E-002  7.921435420156629E-003
  3.960717710078312E-003  0.000000000000000E+000  3.960717710078315E-002
  3.564645939070483E-002  3.168574168062652E-002  2.772502397054821E-002
  2.376430626046989E-002  1.980358855039158E-002  1.584287084031326E-002
  1.188215313023495E-002  7.921435420156629E-003  3.960717710078312E-003
  0.000000000000000E+000  3.960717710078315E-002  3.564645939070483E-002
  3.168574168062652E-002  2.772502397054821E-002  2.376430626046989E-002
  1.980358855039158E-002  1.584287084031326E-002  1.188215313023495E-002
  7.921435420156629E-003  3.960717710078312E-003  0.000000000000000E+000
  3.960717710078315E-002  3.564645939070483E-002  3.168574168062652E-002
  2.772502397054821E-002  2.376430626046989E-002  1.980358855039158E-002
  1.584287084031326E-002  1.188215313023495E-002  7.921435420156629E-003
  3.960717710078312E-003  0.000000000000000E+000  3.960717710078315E-002
  3.564645939070483E-002  3.168574168062652E-002  2.772502397054821E-002
  2.376430626046989E-002  1.980358855039158E-002  1.584287084031326E-002
  1.188215313023495E-002  7.921435420156629E-003  3.960717710078312E-003
  0.000000000000000E+000  3.960717710078315E-002  3.564645939070483E-002
  3.168574168062652E-002  2.772502397054821E-002  2.376430626046989E-002
  1.980358855039158E-002  1.584287084031326E-002  1.188215313023495E-002
  7.921435420156629E-003  3.960717710078312E-003  0.000000000000000E+000
  3.960717710078315E-002  3.564645939070483E-002  3.168574168062652E-002
  2.772502397054821E-002  2.376430626046989E-002  1.980358855039158E-002
  1.584287084031326E-002  1.188215313023495E-002  7.921435420156629E-003
  3.960717710078312E-003  0.000000000000000E+000  3.960717710078315E-002
  3.564645939070483E-002  3.168574168062652E-002  2.772502397054821E-002
  2.376430626046989E-002  1.980358855039158E-002  1.584287084031326E-002
  1.188215313023495E-002  7.921435420156629E-003  3.960717710078312E-003
  0.000000000000000E+000  3.960717710078315E-002  3.564645939070483E-002
  3.168574168062652E-002  2.772502397054821E-002  2.376430626046989E-002
  1.980358855039158E-002  1.584287084031326E-002  1.188215313023495E-002
  7.921435420156629E-003  3.960717710078312E-003  0.000000000000000E+000
  3.960717710078315E-002  3.564645939070483E-002  3.168574168062652E-002
  2.772502397054821E-002  2.376430626046989E-002  1.980358855039158E-002
  1.584287084031326E-002  1.188215313023495E-002  7.921435420156629E-003
  3.960717710078312E-003  0.000000000000000E+000  3.960717710078315E-002
  3.564645939070483E-002  3.168574168062652E-002  2.772502397054821E-002
  2.376430626046989E-002  1.980358855039158E-002  1.584287084031326E-002
  1.188215313023495E-002  7.921435420156629E-003  3.960717710078312E-003
  0.000000000000000E+000  3.960717710078315E-002  3.564645939070483E-002
  3.168574168062652E-002  2.772502397054821E-002  2.376430626046989E-002
  1.980358855039158E-002  1.584287084031326E-002  1.188215313023495E-002
  7.921435420156629E-003  3.960717710078312E-003  0.000000000000000E+000
  3.960717710078315E-002  3.564645939070483E-002  3.168574168062652E-002
  2.772502397054821E-002  2.376430626046989E-002  1.980358855039158E-002
  1.584287084031326E-002  1.188215313023495E-002  7.921435420156629E-003
  3.960717710078312E-003  0.000000000000000E+000  3.960717710078315E-002
  3.564645939070483E-002  3.168574168062652E-002  2.772502397054821E-002
  2.376430626046989E-002  1.980358855039158E-002  1.584287084031326E-002
  1.188215313023495E-002  7.921435420156629E-003  3.960717710078312E-003
  0.000000000000000E+000  3.960717710078315E-002  3.564645939070483E-002
  3.168574168062652E-002  2.772502397054821E-002  2.376430626046989E-002
  1.980358855039158E-002  1.584287084031326E-002  1.188215313023495E-002
  7.921435420156629E-003  3.960717710078312E-003  0.000000000000000E+000
  3.960717710078315E-002  3.564645939070483E-002  3.168574168062652E-002
  2.772502397054821E-002  2.376430626046989E-002  1.980358855039158E-002
  1.584287084031326E-002  1.188215313023495E-002  7.921435420156629E-003
  3.960717710078312E-003  0.000000000000000E+000  3.960717710078315E-002
  3.564645939070483E-002  3.168574168062652E-002  2.772502397054821E-002
  2.376430626046989E-002  1.980358855039158E-002  1.584287084031326E-002
  1.188215313023495E-002  7.921435420156629E-003  3.960717710078312E-003
  0.000000000000000E+000  3.960717710078315E-002  3.564645939070483E-002
  3.168574168062652E-002  2.772502397054821E-002  2.376430626046989E-002
  1.980358855039158E-002  1.584287084031326E-002  1.188215313023495E-002
  7.921435420156629E-003  3.960717710078312E-003  0.000000000000000E+000
  3.960717710078315E-002  3.564645939070483E-002  3.168574168062652E-002
  2.772502397054821E-002  2.376430626046989E-002  1.980358855039158E-002
  1.584287084031326E-002  1.188215313023495E-002  7.921435420156629E-003
  3.960717710078312E-003  0.000000000000000E+000  3.960717710078315E-002
  3.564645939070483E-002  3.168574168062652E-002  2.772502397054821E-002
  2.376430626046989E-002  1.980358855039158E-002  1.584287084031326E-002
  1.188215313023495E-002  7.921435420156629E-003  3.960717710078312E-003
  0.000000000000000E+000  3.960717710078315E-002  3.564645939070483E-002
  3.168574168062652E-002  2.772502397054821E-002  2.376430626046989E-002
  1.980358855039158E-002  1.584287084031326E-002  1.188215313023495E-002
  7.921435420156629E-003  3.960717710078312E-003  0.000000000000000E+000
  3.960717710078315E-002  3.564645939070483E-002  3.168574168062652E-002
  2.772502397054821E-002  2.376430626046989E-002  1.980358855039158E-002
  1.584287084031326E-002  1.188215313023495E-002  7.921435420156629E-003
  3.960717710078312E-003  0.000000000000000E+000  3.960717710078315E-002
  3.564645939070483E-002  3.168574168062652E-002  2.772502397054821E-002
  2.376430626046989E-002  1.980358855039158E-002  1.584287084031326E-002
  1.188215313023495E-002  7.921435420156629E-003  3.960717710078312E-003
  0.000000000000000E+000  3.960717710078315E-002  3.564645939070483E-002
  3.168574168062652E-002  2.772502397054821E-002  2.376430626046989E-002
  1.980358855039158E-002  1.584287084031326E-002  1.188215313023495E-002
  7.921435420156629E-003  3.960717710078312E-003  0.000000000000000E+000
  3.960717710078315E-002  3.564645939070483E-002  3.168574168062652E-002
  2.772502397054821E-002  2.376430626046989E-002  1.980358855039158E-002
  1.584287084031326E-002  1.188215313023495E-002  7.921435420156629E-003
  3.960717710078312E-003  0.000000000000000E+000  3.960717710078315E-002
  3.564645939070483E-002  3.168574168062652E-002  2.772502397054821E-002
  2.376430626046989E-002  1.980358855039158E-002  1.584287084031326E-002
  1.188215313023495E-002  7.921435420156629E-003  3.960717710078312E-003
  0.000000000000000E+000
 -1.798017125894226E-002 -7.281033412352670E-003  9.217240502784718E-003
  2.846513644621558E-002  4.927187900002771E-002  7.102752232578097E-002
  9.340019934714158E-002  0.116460017810967       0.140361575527471     
  0.164843358393448      -2.501353613097567E-002 -7.955392261730891E-003
  1.903696571185287E-002  5.066744034681948E-002  8.494292388885409E-002
  0.120895289719193       0.157994855164972       0.196378099085547     
  0.236489063380395       0.278433701931688      -1.741123793009996E-002
  5.314424828050814E-003  4.035022263917229E-002  8.138368877396256E-002
  0.125953572551553       0.172899352346254       0.221616083265149     
  0.272318841356698       0.325680990203523       0.381049758496154     
  8.440907362023018E-003  4.060896635030595E-002  8.253031719526693E-002
  0.129952336727450       0.180879480193423       0.234318833976013     
  0.289513354908144       0.346910870601735       0.407587505936041     
  0.469914686352181       5.641545027932770E-002  0.106586447000082     
  0.158761910884488       0.212902920853275       0.268696209696430     
  0.325847506343593       0.383639679728699       0.443013974099206     
  0.504869011677523       0.567722440771661       0.131393224076026     
  0.212148033266822       0.282565269737332       0.348127963997312     
  0.411263301784400       0.472606631922341       0.532408911994815     
  0.591557171702357       0.651370693388490       0.710911633157813     
  0.235723986589360       0.361069086694547       0.459736090902921     
  0.545309774812908       0.622225288888630       0.692362378639165     
  0.757149858399750       0.818066522581500       0.876662631591923     
  0.932467872867442       0.369680960721172       0.554721133270151     
  0.692767493331252       0.806497804100078       0.904146014460160     
  0.989648941835112        1.06538654141018        1.13320143977624     
   1.19458589232851        1.24885624979221       0.528719731085585     
  0.785895140868558       0.972492155957695        1.12202786260970     
   1.24704042116329        1.35375951417464        1.44581808227941     
   1.52555669199775        1.59428925974751        1.65049421686994     
  0.705902618884326        1.04425193451564        1.28625845107616     
   1.47746454913502        1.63503548183360        1.76754559581231     
   1.87990930409458        1.97503086318718        2.05412625306866     
   2.11480517910820       0.896232842105470        1.32223069042071     
   1.62443493322714        1.86122057703575        2.05462302506425     
   2.21562128007356        2.35042282370708        2.46254616166114     
   2.55323871263296        2.61944377343120        1.09668774740278     
   1.61489530977813        1.98032445446790        2.26486077667079     
   2.49565183975373        2.68618737476597        2.84403431354185     
   2.97339653386283        3.07567901770249        3.14738732304773     
   1.30475594032205        1.91819314675029        2.34850673933921     
   2.68167244878062        2.95020921722984        3.17027957634616     
   3.35092132740882        3.49713437015038        3.61062950514959     
   3.68767344008175        1.51854955910780        2.22903575361294     
   2.72484437562998        3.10655995932194        3.41231747822042     
   3.66112270016683        3.86364359157796        4.02584439273537     
   4.14991234812409        4.23206500228578        1.73819715242938     
   2.54700263335189        3.10812274530138        3.53742386133260     
   3.87899192571918        4.15490857455479        4.37767038771298     
   4.55438017087969        4.68788267532268        4.77458026713553     
   1.96741384168680        2.87627022556390        3.50202456752206     
   3.97703088212233        4.35194303589588        4.65231613321048     
   4.89274552462118        5.08168080349941        5.22281968325875     
   5.31298992225450        2.21117155388935        3.22201717214468     
   3.91076512412282        4.42833203097315        4.83292711345235     
   5.15412514257572        5.40893356564933        5.60733858925961     
   5.75403041025843        5.84642854918238        2.45643657312389     
   3.56466664878285        4.31014021360102        4.86367486305305     
   5.29168097940532        5.62807195315213        5.89241506561653     
   6.09630878952568        6.24551696811260        6.33824320203836     
   2.66013425756162        3.84154232790881        4.62441749321337     
   5.19795561492462        5.63619722149363        5.97694706592539     
   6.24198671417218        6.44430546342011        6.59064659849601     
   6.68019385821726        2.77174822888525        3.98008064942215     
   4.76712496105430        5.33524628734382        5.76417749778337     
   6.09457223110839        6.34967541871488        6.54321138751791     
   6.68233172215679        6.76682795983679        2.73125243551460     
   3.89160167516965        4.62968235186656        5.15192191671973     
   5.53993123067275        5.83499324024093        6.06024121713499     
   6.22889209693586        6.34764384465873        6.41716960242978     
   2.53233192515565        3.56053019611386        4.19219288543557     
   4.62906248653376        4.94897771193978        5.18982723860299     
   5.37204114869541        5.50676564393899        5.59918563087222     
   5.64981587824988        2.18176625694720        2.99799089160234     
   3.48033676122446        3.80911726943699        4.04861674236121     
   4.22853891934311        4.36447534343541        4.46486221223127     
   4.53381321872059        4.57242655682295        1.66580769582253     
   2.21634036018839        2.53729142387090        2.75656761444760     
   2.91687543347340        3.03767232079458        3.12920603198650     
   3.19726019341528        3.24557167213863        3.27979222548009     
   1.01220236343569        1.32045368066123        1.50184218421287     
   1.62645735612873        1.71787315056245        1.78691213251879     
   1.83930289686762        1.87826651207490        1.90561578423674     
   1.92180694859153     
  0.000000000000000E+000  0.000000000000000E+000  0.000000000000000E+000
  0.000000000000000E+000  0.000000000000000E+000  0.000000000000000E+000
  0.000000000000000E+000  0.000000000000000E+000  0.000000000000000E+000
  0.000000000000000E+000  0.000000000000000E+000  0.000000000000000E+000
  0.000000000000000E+000  0.000000000000000E+000  0.000000000000000E+000
  0.000000000000000E+000  0.000000000000000E+000  0.000000000000000E+000
  0.000000000000000E+000  0.000000000000000E+000  0.000000000000000E+000
  0.000000000000000E+000  0.000000000000000E+000  0.000000000000000E+000
  0.000000000000000E+000  0.000000000000000E+000  0.000000000000000E+000
  0.000000000000000E+000  0.000000000000000E+000  0.000000000000000E+000
  0.000000000000000E+000  0.000000000000000E+000  0.000000000000000E+000
  0.000000000000000E+000  0.000000000000000E+000  0.000000000000000E+000
  0.000000000000000E+000  0.000000000000000E+000  0.000000000000000E+000
  0.000000000000000E+000  0.000000000000000E+000  0.000000000000000E+000
  0.000000000000000E+000  0.000000000000000E+000  0.000000000000000E+000
  0.000000000000000E+000  0.000000000000000E+000  0.000000000000000E+000
  0.000000000000000E+000  0.000000000000000E+000  0.000000000000000E+000
  0.000000000000000E+000  0.000000000000000E+000  0.000000000000000E+000
  0.000000000000000E+000  0.000000000000000E+000  0.000000000000000E+000
  0.000000000000000E+000  0.000000000000000E+000  0.000000000000000E+000
  0.000000000000000E+000  0.000000000000000E+000  0.000000000000000E+000
  0.000000000000000E+000  0.000000000000000E+000  0.000000000000000E+000
  0.000000000000000E+000  0.000000000000000E+000  0.000000000000000E+000
  0.000000000000000E+000  0.000000000000000E+000  0.000000000000000E+000
  0.000000000000000E+000  0.000000000000000E+000  0.000000000000000E+000
  0.000000000000000E+000  0.000000000000000E+000  0.000000000000000E+000
  0.000000000000000E+000  0.000000000000000E+000  0.000000000000000E+000
  0.000000000000000E+000  0.000000000000000E+000  0.000000000000000E+000
  0.000000000000000E+000  0.000000000000000E+000  0.000000000000000E+000
  0.000000000000000E+000  0.000000000000000E+000  0.000000000000000E+000
  0.000000000000000E+000  0.000000000000000E+000  0.000000000000000E+000
  0.000000000000000E+000  0.000000000000000E+000  0.000000000000000E+000
  0.000000000000000E+000  0.000000000000000E+000  0.000000000000000E+000
  0.000000000000000E+000  0.000000000000000E+000  0.000000000000000E+000
  0.000000000000000E+000  0.000000000000000E+000  0.000000000000000E+000
  0.000000000000000E+000  0.000000000000000E+000  0.000000000000000E+000
  0.000000000000000E+000  0.000000000000000E+000  0.000000000000000E+000
  0.000000000000000E+000  0.000000000000000E+000  0.000000000000000E+000
  0.000000000000000E+000  0.000000000000000E+000  0.000000000000000E+000