 Title = "Wing and Wake"
 VARIABLES = "X" "Y" "Z" "GAM" "skew"
 Zone I=   11 J=   26 K=1  T="Blade"
 DATAPACKING=BLOCK
 VARLOCATION=([4]=CELLCENTERED,[5]=CELLCENTERED)
 -6.126063971658562E-002 -7.123122372989567E-002 -8.120180774320573E-002
 -9.117239175651583E-002 -0.101142975769826      -0.111113559783136     
 -0.121084143796446      -0.131054727809756      -0.141025311823066     
 -0.150995895836376      -0.160966479849687      -6.443305023753398E-002
 -7.440363425084413E-002 -8.437421826415414E-002 -9.434480227746436E-002
 -0.104315386290774      -0.114285970304084      -0.124256554317394     
 -0.134227138330704      -0.144197722344015      -0.154168306357325     
 -0.164138890370635      -7.390025099135722E-002 -8.387083500466730E-002
 -9.384141901797745E-002 -0.103812003031287      -0.113782587044597     
 -0.123753171057908      -0.133723755071218      -0.143694339084528     
 -0.153664923097838      -0.163635507111148      -0.173606091124458     
 -8.951293856673627E-002 -9.948352258004650E-002 -0.109454106593357     
 -0.119424690606667      -0.129395274619976      -0.139365858633287     
 -0.149336442646597      -0.159307026659907      -0.169277610673217     
 -0.179248194686527      -0.189218778699837      -0.111024891554039     
 -0.120995475567349      -0.130966059580659      -0.140936643593970     
 -0.150907227607279      -0.160877811620590      -0.170848395633900     
 -0.180818979647210      -0.190789563660520      -0.200760147673830     
 -0.210730731687140      -0.138096853604039      -0.148067437617350     
 -0.158038021630659      -0.168008605643970      -0.177979189657280     
 -0.187949773670590      -0.197920357683900      -0.207890941697210     
 -0.217861525710521      -0.227832109723830      -0.237802693737140     
 -0.170301883703201      -0.180272467716512      -0.190243051729822     
 -0.200213635743132      -0.210184219756442      -0.220154803769752     
 -0.230125387783062      -0.240095971796372      -0.250066555809682     
 -0.260037139822992      -0.270007723836302      -0.207132089288510     
 -0.217102673301819      -0.227073257315130      -0.237043841328440     
 -0.247014425341750      -0.256985009355060      -0.266955593368370     
 -0.276926177381680      -0.286896761394990      -0.296867345408300     
 -0.306837929421611      -0.248006636016585      -0.257977220029895     
 -0.267947804043205      -0.277918388056515      -0.287888972069825     
 -0.297859556083135      -0.307830140096445      -0.317800724109755     
 -0.327771308123066      -0.337741892136375      -0.347712476149685     
 -0.292280907868255      -0.302251491881564      -0.312222075894875     
 -0.322192659908185      -0.332163243921495      -0.342133827934804     
 -0.352104411948114      -0.362074995961425      -0.372045579974735     
 -0.382016163988045      -0.391986748001355      -0.339256673128250     
 -0.349227257141561      -0.359197841154870      -0.369168425168180     
 -0.379139009181490      -0.389109593194801      -0.399080177208110     
 -0.409050761221421      -0.419021345234730      -0.428991929248041     
 -0.438962513261351      -0.388193095916460      -0.398163679929769     
 -0.408134263943080      -0.418104847956389      -0.428075431969700     
 -0.438046015983010      -0.448016599996320      -0.457987184009630     
 -0.467957768022940      -0.477928352036250      -0.487898936049560     
 -0.438318419612311      -0.448289003625621      -0.458259587638931     
 -0.468230171652241      -0.478200755665551      -0.488171339678861     
 -0.498141923692172      -0.508112507705482      -0.518083091718791     
 -0.528053675732101      -0.538024259745412      -0.488842137917704     
 -0.498812721931013      -0.508783305944323      -0.518753889957633     
 -0.528724473970944      -0.538695057984254      -0.548665641997565     
 -0.558636226010873      -0.568606810024185      -0.578577394037495     
 -0.588547978050804      -0.538967461613555      -0.548938045626865     
 -0.558908629640176      -0.568879213653484      -0.578849797666794     
 -0.588820381680105      -0.598790965693414      -0.608761549706725     
 -0.618732133720035      -0.628702717733344      -0.638673301746656     
 -0.587903884401764      -0.597874468415074      -0.607845052428385     
 -0.617815636441694      -0.627786220455005      -0.637756804468315     
 -0.647727388481624      -0.657697972494934      -0.667668556508244     
 -0.677639140521553      -0.687609724534865      -0.634879649661760     
 -0.644850233675070      -0.654820817688380      -0.664791401701691     
 -0.674761985715000      -0.684732569728310      -0.694703153741621     
 -0.704673737754931      -0.714644321768241      -0.724614905781551     
 -0.734585489794861      -0.679153921513430      -0.689124505526740     
 -0.699095089540050      -0.709065673553359      -0.719036257566669     
 -0.729006841579981      -0.738977425593290      -0.748948009606600     
 -0.758918593619910      -0.768889177633220      -0.778859761646530     
 -0.720028468241505      -0.729999052254814      -0.739969636268125     
 -0.749940220281434      -0.759910804294745      -0.769881388308055     
 -0.779851972321364      -0.789822556334675      -0.799793140347986     
 -0.809763724361295      -0.819734308374605      -0.756858673826812     
 -0.766829257840123      -0.776799841853432      -0.786770425866744     
 -0.796741009880052      -0.806711593893363      -0.816682177906672     
 -0.826652761919984      -0.836623345933293      -0.846593929946604     
 -0.856564513959913      -0.789063703925976      -0.799034287939286     
 -0.809004871952594      -0.818975455965904      -0.828946039979215     
 -0.838916623992524      -0.848887208005836      -0.858857792019145     
 -0.868828376032456      -0.878798960045765      -0.888769544059074     
 -0.816135665975974      -0.826106249989285      -0.836076834002595     
 -0.846047418015905      -0.856018002029215      -0.865988586042526     
 -0.875959170055835      -0.885929754069145      -0.895900338082455     
 -0.905870922095766      -0.915841506109077      -0.837647618963278     
 -0.847618202976587      -0.857588786989898      -0.867559371003207     
 -0.877529955016519      -0.887500539029828      -0.897471123043139     
 -0.907441707056449      -0.917412291069759      -0.927382875083068     
 -0.937353459096378      -0.853260306538656      -0.863230890551965     
 -0.873201474565277      -0.883172058578586      -0.893142642591898     
 -0.903113226605207      -0.913083810618517      -0.923054394631828     
 -0.933024978645136      -0.942995562658448      -0.952966146671757     
 -0.862727507292480      -0.872698091305789      -0.882668675319099     
 -0.892639259332409      -0.902609843345720      -0.912580427359031     
 -0.922551011372339      -0.932521595385650      -0.942492179398961     
 -0.952462763412271      -0.962433347425580      -0.865899917813427     
 -0.875870501826738      -0.885841085840048      -0.895811669853359     
 -0.905782253866668      -0.915752837879979      -0.925723421893290     
 -0.935694005906598      -0.945664589919909      -0.955635173933218     
 -0.965605757946530     
 -0.259371207143798      -0.243629457887296      -0.227887708630794     
 -0.212145959374291      -0.196404210117789      -0.180662460861286     
 -0.164920711604784      -0.149178962348282      -0.133437213091779     
 -0.117695463835277      -0.101953714578774      -0.261380563607837     
 -0.245638814351335      -0.229897065094832      -0.214155315838330     
 -0.198413566581827      -0.182671817325325      -0.166930068068822     
 -0.151188318812320      -0.135446569555818      -0.119704820299315     
 -0.103963071042813      -0.267376944248182      -0.251635194991680     
 -0.235893445735178      -0.220151696478675      -0.204409947222173     
 -0.188668197965670      -0.172926448709168      -0.157184699452666     
 -0.141442950196163      -0.125701200939661      -0.109959451683158     
 -0.277265782560073      -0.261524033303571      -0.245782284047068     
 -0.230040534790566      -0.214298785534064      -0.198557036277561     
 -0.182815287021059      -0.167073537764556      -0.151331788508054     
 -0.135590039251551      -0.119848289995049      -0.290891125656024     
 -0.275149376399522      -0.259407627143020      -0.243665877886517     
 -0.227924128630015      -0.212182379373513      -0.196440630117010     
 -0.180698880860508      -0.164957131604005      -0.149215382347503     
 -0.133473633091000      -0.308038093736028      -0.292296344479526     
 -0.276554595223023      -0.260812845966521      -0.245071096710019     
 -0.229329347453516      -0.213587598197014      -0.197845848940511     
 -0.182104099684009      -0.166362350427506      -0.150620601171004     
 -0.328436268870359      -0.312694519613858      -0.296952770357355     
 -0.281211021100853      -0.265469271844350      -0.249727522587848     
 -0.233985773331345      -0.218244024074843      -0.202502274818341     
 -0.186760525561838      -0.171018776305336      -0.351763959651873     
 -0.336022210395370      -0.320280461138868      -0.304538711882365     
 -0.288796962625863      -0.273055213369361      -0.257313464112858     
 -0.241571714856356      -0.225829965599853      -0.210088216343351     
 -0.194346467086849      -0.377653274461655      -0.361911525205152     
 -0.346169775948650      -0.330428026692148      -0.314686277435645     
 -0.298944528179143      -0.283202778922640      -0.267461029666138     
 -0.251719280409635      -0.235977531153133      -0.220235781896631     
 -0.405695923339628      -0.389954174083126      -0.374212424826624     
 -0.358470675570121      -0.342728926313619      -0.326987177057116     
 -0.311245427800614      -0.295503678544112      -0.279761929287609     
 -0.264020180031107      -0.248278430774604      -0.435449656961122     
 -0.419707907704620      -0.403966158448118      -0.388224409191615     
 -0.372482659935113      -0.356740910678610      -0.340999161422108     
 -0.325257412165605      -0.309515662909103      -0.293773913652600     
 -0.278032164396098      -0.466445241172906      -0.450703491916403     
 -0.434961742659902      -0.419219993403398      -0.403478244146896     
 -0.387736494890394      -0.371994745633891      -0.356252996377389     
 -0.340511247120886      -0.324769497864384      -0.309027748607882     
 -0.498193857096096      -0.482452107839593      -0.466710358583089     
 -0.450968609326588      -0.435226860070085      -0.419485110813583     
 -0.403743361557081      -0.388001612300578      -0.372259863044076     
 -0.356518113787573      -0.340776364531071      -0.530194810091879     
 -0.514453060835375      -0.498711311578873      -0.482969562322370     
 -0.467227813065868      -0.451486063809365      -0.435744314552863     
 -0.420002565296361      -0.404260816039859      -0.388519066783356     
 -0.372777317526853      -0.561943426015067      -0.546201676758565     
 -0.530459927502063      -0.514718178245560      -0.498976428989056     
 -0.483234679732556      -0.467492930476052      -0.451751181219549     
 -0.436009431963047      -0.420267682706545      -0.404525933450043     
 -0.592939010226851      -0.577197260970347      -0.561455511713846     
 -0.545713762457344      -0.529972013200842      -0.514230263944338     
 -0.498488514687836      -0.482746765431333      -0.467005016174831     
 -0.451263266918328      -0.435521517661827      -0.622692743848345     
 -0.606950994591842      -0.591209245335339      -0.575467496078838     
 -0.559725746822334      -0.543983997565833      -0.528242248309330     
 -0.512500499052828      -0.496758749796325      -0.481017000539823     
 -0.465275251283321      -0.650735392726318      -0.634993643469815     
 -0.619251894213313      -0.603510144956811      -0.587768395700308     
 -0.572026646443807      -0.556284897187303      -0.540543147930801     
 -0.524801398674299      -0.509059649417796      -0.493317900161294     
 -0.676624707536100      -0.660882958279597      -0.645141209023094     
 -0.629399459766593      -0.613657710510090      -0.597915961253588     
 -0.582174211997085      -0.566432462740583      -0.550690713484081     
 -0.534948964227578      -0.519207214971076      -0.699952398317612     
 -0.684210649061111      -0.668468899804607      -0.652727150548106     
 -0.636985401291604      -0.621243652035099      -0.605501902778599     
 -0.589760153522096      -0.574018404265593      -0.558276655009091     
 -0.542534905752588      -0.720350573451944      -0.704608824195442     
 -0.688867074938939      -0.673125325682437      -0.657383576425936     
 -0.641641827169432      -0.625900077912930      -0.610158328656427     
 -0.594416579399926      -0.578674830143422      -0.562933080886920     
 -0.737497541531948      -0.721755792275446      -0.706014043018942     
 -0.690272293762440      -0.674530544505939      -0.658788795249437     
 -0.643047045992933      -0.627305296736431      -0.611563547479929     
 -0.595821798223426      -0.580080048966923      -0.751122884627899     
 -0.735381135371397      -0.719639386114894      -0.703897636858392     
 -0.688155887601890      -0.672414138345387      -0.656672389088885     
 -0.640930639832382      -0.625188890575880      -0.609447141319378     
 -0.593705392062875      -0.761011722939791      -0.745269973683288     
 -0.729528224426785      -0.713786475170282      -0.698044725913781     
 -0.682302976657277      -0.666561227400776      -0.650819478144272     
 -0.635077728887771      -0.619335979631268      -0.603594230374765     
 -0.767008103580135      -0.751266354323634      -0.735524605067133     
 -0.719782855810628      -0.704041106554126      -0.688299357297623     
 -0.672557608041120      -0.656815858784618      -0.641074109528117     
 -0.625332360271614      -0.609590611015111      -0.769017460044173     
 -0.753275710787670      -0.737533961531170      -0.721792212274667     
 -0.706050463018164      -0.690308713761663      -0.674566964505160     
 -0.658825215248656      -0.643083465992155      -0.627341716735651     
 -0.611599967479150     
  3.960717710078315E-002  3.564645939070483E-002  3.168574168062652E-002
  2.772502397054821E-002  2.376430626046989E-002  1.980358855039158E-002
  1.584287084031326E-002  1.188215313023495E-002  7.921435420156629E-003
  3.960717710078312E-003  0.000000000000000E+000  3.960717710078315E-002
  3.564645939070483E-002  3.168574168062652E-002  2.772502397054821E-002
  2.376430626046989E-002  1.980358855039158E-002  1.584287084031326E-002
  1.188215313023495E-002  7.921435420156629E-003  3.960717710078312E-003
  0.000000000000000E+000  3.960717710078315E-002  3.564645939070483E-002
  3.168574168062652E-002  2.772502397054821E-002  2.376430626046989E-002
  1.980358855039158E-002  1.584287084031326E-002  1.188215313023495E-002
  7.921435420156629E-003  3.960717710078312E-003  0.000000000000000E+000
  3.960717710078315E-002  3.564645939070483E-002  3.168574168062652E-002
  2.772502397054821E-002  2.376430626046989E-002  1.980358855039158E-002
  1.584287084031326E-002  1.188215313023495E-002  7.921435420156629E-003
  3.960717710078312E-003  0.000000000000000E+000  3.960717710078315E-002
  3.564645939070483E-002  3.168574168062652E-002  2.772502397054821E-002
  2.376430626046989E-002  1.980358855039158E-002  1.584287084031326E-002
  1.188215313023495E-002  7.921435420156629E-003  3.960717710078312E-003
  0.000000000000000E+000  3.960717710078315E-002  3.564645939070483E-002
  3.168574168062652E-002  2.772502397054821E-002  2.376430626046989E-002
  1.980358855039158E-002  1.584287084031326E-002  1.188215313023495E-002
  7.921435420156629E-003  3.960717710078312E-003  0.000000000000000E+000
  3.960717710078315E-002  3.564645939070483E-002  3.168574168062652E-002
  2.772502397054821E-002  2.376430626046989E-002  1.980358855039158E-002
  1.584287084031326E-002  1.188215313023495E-002  7.921435420156629E-003
  3.960717710078312E-003  0.000000000000000E+000  3.960717710078315E-002
  3.564645939070483E-002  3.168574168062652E-002  2.772502397054821E-002
  2.376430626046989E-002  1.980358855039158E-002  1.584287084031326E-002
  1.188215313023495E-002  7.921435420156629E-003  3.960717710078312E-003
  0.000000000000000E+000  3.960717710078315E-002  3.564645939070483E-002
  3.168574168062652E-002  2.772502397054821E-002  2.376430626046989E-002
  1.980358855039158E-002  1.584287084031326E-002  1.188215313023495E-002
  7.921435420156629E-003  3.960717710078312E-003  0.000000000000000E+000
  3.960717710078315E-002  3.564645939070483E-002  3.168574168062652E-002
  2.772502397054821E-002  2.376430626046989E-002  1.980358855039158E-002
  1.584287084031326E-002  1.188215313023495E-002  7.921435420156629E-003
  3.960717710078312E-003  0.000000000000000E+000  3.960717710078315E-002
  3.564645939070483E-002  3.168574168062652E-002  2.772502397054821E-002
  2.376430626046989E-002  1.980358855039158E-002  1.584287084031326E-002
  1.188215313023495E-002  7.921435420156629E-003  3.960717710078312E-003
  0.000000000000000E+000  3.960717710078315E-002  3.564645939070483E-002
  3.168574168062652E-002  2.772502397054821E-002  2.376430626046989E-002
  1.980358855039158E-002  1.584287084031326E-002  1.188215313023495E-002
  7.921435420156629E-003  3.960717710078312E-003  0.000000000000000E+000
  3.960717710078315E-002  3.564645939070483E-002  3.168574168062652E-002
  2.772502397054821E-002  2.376430626046989E-002  1.980358855039158E-002
  1.584287084031326E-002  1.188215313023495E-002  7.921435420156629E-003
  3.960717710078312E-003  0.000000000000000E+000  3.960717710078315E-002
  3.564645939070483E-002  3.168574168062652E-002  2.772502397054821E-002
  2.376430626046989E-002  1.980358855039158E-002  1.584287084031326E-002
  1.188215313023495E-002  7.921435420156629E-003  3.960717710078312E-003
  0.000000000000000E+000  3.960717710078315E-002  3.564645939070483E-002
  3.168574168062652E-002  2.772502397054821E-002  2.376430626046989E-002
  1.980358855039158E-002  1.584287084031326E-002  1.188215313023495E-002
  7.921435420156629E-003  3.960717710078312E-003  0.000000000000000E+000
  3.960717710078315E-002  3.564645939070483E-002  3.168574168062652E-002
  2.772502397054821E-002  2.376430626046989E-002  1.980358855039158E-002
  1.584287084031326E-002  1.188215313023495E-002  7.921435420156629E-003
  3.960717710078312E-003  0.000000000000000E+000  3.960717710078315E-002
  3.564645939070483E-002  3.168574168062652E-002  2.772502397054821E-002
  2.376430626046989E-002  1.980358855039158E-002  1.584287084031326E-002
  1.188215313023495E-002  7.921435420156629E-003  3.960717710078312E-003
  0.000000000000000E+000  3.960717710078315E-002  3.564645939070483E-002
  3.168574168062652E-002  2.772502397054821E-002  2.376430626046989E-002
  1.980358855039158E-002  1.584287084031326E-002  1.188215313023495E-002
  7.921435420156629E-003  3.960717710078312E-003  0.000000000000000E+000
  3.960717710078315E-002  3.564645939070483E-002  3.168574168062652E-002
  2.772502397054821E-002  2.376430626046989E-002  1.980358855039158E-002
  1.584287084031326E-002  1.188215313023495E-002  7.921435420156629E-003
  3.960717710078312E-003  0.000000000000000E+000  3.960717710078315E-002
  3.564645939070483E-002  3.168574168062652E-002  2.772502397054821E-002
  2.376430626046989E-002  1.980358855039158E-002  1.584287084031326E-002
  1.188215313023495E-002  7.921435420156629E-003  3.960717710078312E-003
  0.000000000000000E+000  3.960717710078315E-002  3.564645939070483E-002
  3.168574168062652E-002  2.772502397054821E-002  2.376430626046989E-002
  1.980358855039158E-002  1.584287084031326E-002  1.188215313023495E-002
  7.921435420156629E-003  3.960717710078312E-003  0.000000000000000E+000
  3.960717710078315E-002  3.564645939070483E-002  3.168574168062652E-002
  2.772502397054821E-002  2.376430626046989E-002  1.980358855039158E-002
  1.584287084031326E-002  1.188215313023495E-002  7.921435420156629E-003
  3.960717710078312E-003  0.000000000000000E+000  3.960717710078315E-002
  3.564645939070483E-002  3.168574168062652E-002  2.772502397054821E-002
  2.376430626046989E-002  1.980358855039158E-002  1.584287084031326E-002
  1.188215313023495E-002  7.921435420156629E-003  3.960717710078312E-003
  0.000000000000000E+000  3.960717710078315E-002  3.564645939070483E-002
  3.168574168062652E-002  2.772502397054821E-002  2.376430626046989E-002
  1.980358855039158E-002  1.584287084031326E-002  1.188215313023495E-002
  7.921435420156629E-003  3.960717710078312E-003  0.000000000000000E+000
  3.960717710078315E-002  3.564645939070483E-002  3.168574168062652E-002
  2.772502397054821E-002  2.376430626046989E-002  1.980358855039158E-002
  1.584287084031326E-002  1.188215313023495E-002  7.921435420156629E-003
  3.960717710078312E-003  0.000000000000000E+000  3.960717710078315E-002
  3.564645939070483E-002  3.168574168062652E-002  2.772502397054821E-002
  2.376430626046989E-002  1.980358855039158E-002  1.584287084031326E-002
  1.188215313023495E-002  7.921435420156629E-003  3.960717710078312E-003
  0.000000000000000E+000
  0.200274186600969       0.273332750814684       0.321356326963413     
  0.357098187548349       0.383600316220772       0.402262084845589     
  0.414117190989671       0.419373425131107       0.418044163327630     
  0.410905822224097       0.311926137650239       0.439410663924495     
  0.523823435132755       0.586659017719400       0.633218878021600     
  0.665820987091719       0.686466734739152       0.695662897722649     
  0.693796023400138       0.683452259000351       0.344818177732292     
  0.519525277468010       0.641810359143021       0.735955133840974     
  0.806366115841789       0.855119274275364       0.886644739037628     
  0.901437361696007       0.900145221283557       0.885234098459576     
  0.300233142827154       0.481924387275202       0.624193243496432     
  0.741592792246556       0.834075264923237       0.900686805596966     
  0.946203727845271       0.970881298137323       0.974526280169016     
  0.958807924401607       0.243958515831307       0.402895176045248     
  0.537732462899257       0.655654693954597       0.755349822179190     
  0.832159374760342       0.888662511341862       0.926013144204697     
  0.941770856312750       0.933857960376002       0.238518227612984     
  0.382719570957421       0.503636446112736       0.609957400211202     
  0.702711980458828       0.780602081563506       0.842431635905599     
  0.887137573559592       0.912146268017530       0.914318173263601     
  0.289377030269819       0.447243182592602       0.571475290014253     
  0.676546395178276       0.766849575002141       0.843503561624627     
  0.906905011622873       0.956036666475162       0.988811304767432     
   1.00222368973491       0.391834431604237       0.590245076461583     
  0.738630732111745       0.859728319190125       0.961364852248115     
   1.04699585588786        1.11829738002306        1.17570410873160     
   1.21826158859162        1.24276221592652       0.535374012192995     
  0.796362276632782       0.985651401729079        1.13662899817742     
   1.26146696415575        1.36590357680426        1.45285304052018     
   1.52351099198212        1.57743764228291        1.61134793784441     
  0.704868413793508        1.04253409560058        1.28365886670824     
   1.47346011585252        1.62872518337196        1.75753833501334     
   1.86415820776438        1.95058947648403        2.01681472391025     
   2.05937269157142       0.891159612398832        1.31413580835646     
   1.61350860411431        1.84718333899633        2.03682791575407     
   2.19300421838092        2.32139960818059        2.42486295811207     
   2.50378406457032        2.55450646733797        1.08904948174604     
   1.60274365938975        1.96408676582251        2.24441260121277     
   2.47053347859255        2.65560612883754        2.80680600992181     
   2.92786539750516        3.01962029828278        3.07828073226057     
   1.29517552360166        1.90309762045788        2.32858601070639     
   2.65698646515055        2.92049216313577        3.13499370708307     
   3.30925192781033        3.44796047344057        3.55247225238468     
   3.61893826386832        1.50764188801896        2.21204796330892     
   2.70271548144743        3.07954368716695        3.38035517097155     
   3.62393728490809        3.82075970896950        3.97657444569299     
   4.09333481973104        4.16723679956864        1.72644476396952     
   2.52894523492195        3.08493264901906        3.50953642783561     
   3.84653913981288        4.11784070484461        4.33578786502481     
   4.50733113735399        4.63515433616659        4.71566533021212     
   1.95482631619739        2.85724777652565        3.47801435076294     
   3.94867241305338        4.31955486178262        4.61603827632929     
   4.85259258299084        5.03755782145320        5.17452770094812     
   5.26035179087883        2.19736894017585        3.20156489298863     
   3.88545775732632        4.39903945786778        4.80015663094076     
   5.11819441913629        5.37004673888566        5.56562611695643     
   5.70957572436815        5.79935571909199        2.44188863940991     
   3.54341410097915        4.28424149871499        4.83418484928443     
   5.25926982538204        5.59322384641861        5.85551947713855     
   6.05771294044164        6.20556207212944        6.29731128275221     
   2.64553159830839        3.82047834680901        4.59906338623114     
   5.16942659422266        5.60520714503074        5.94403288016786     
   6.20761535034641        6.40893610824527        6.55478233534871     
   6.64443188153433        2.75902627653874        3.96168897367489     
   4.74500333988989        5.31047666035531        5.73751311609350     
   6.06659899739525        6.32090685104509        6.51416157729771     
   6.65358087656195        6.73906361186044        2.72255723067744     
   3.87896335139197        4.61451177229065        5.13508260464028     
   5.52206976537510        5.81663409046787        6.04184717832555     
   6.21091578517391        6.33057061392300        6.40150541442704     
   2.52668750044536        3.55232813990735        4.18239272779820     
   4.61826844075090        4.93764979438110        5.17834695503691     
   5.36075131025559        5.49600045000739        5.58929385226790     
   5.64113713339421        2.17803333179965        2.99261481815535     
   3.47396304342408        3.80215153448151        4.04137010635060     
   4.22127342054619        4.35742902408818        4.45826629898503     
   4.52790481028146        4.56742718763137        1.66338944215855     
   2.21292253050237        2.53327643546403        2.75220925118174     
   2.91237077624962        3.03318989687263        3.12490003092387     
   3.19327979083156        3.24206828349188        3.27690554255088     
   1.01082076321378        1.31852674307145        1.49958917720962     
   1.62401905506801        1.71535983534457        1.78441880966955     
   1.83691675041885        1.87607175053729        1.90369762257963     
   1.92024532883572     
  0.000000000000000E+000  0.000000000000000E+000  0.000000000000000E+000
  0.000000000000000E+000  0.000000000000000E+000  0.000000000000000E+000
  0.000000000000000E+000  0.000000000000000E+000  0.000000000000000E+000
  0.000000000000000E+000  0.000000000000000E+000  0.000000000000000E+000
  0.000000000000000E+000  0.000000000000000E+000  0.000000000000000E+000
  0.000000000000000E+000  0.000000000000000E+000  0.000000000000000E+000
  0.000000000000000E+000  0.000000000000000E+000  0.000000000000000E+000
  0.000000000000000E+000  0.000000000000000E+000  0.000000000000000E+000
  0.000000000000000E+000  0.000000000000000E+000  0.000000000000000E+000
  0.000000000000000E+000  0.000000000000000E+000  0.000000000000000E+000
  0.000000000000000E+000  0.000000000000000E+000  0.000000000000000E+000
  0.000000000000000E+000  0.000000000000000E+000  0.000000000000000E+000
  0.000000000000000E+000  0.000000000000000E+000  0.000000000000000E+000
  0.000000000000000E+000  0.000000000000000E+000  0.000000000000000E+000
  0.000000000000000E+000  0.000000000000000E+000  0.000000000000000E+000
  0.000000000000000E+000  0.000000000000000E+000  0.000000000000000E+000
  0.000000000000000E+000  0.000000000000000E+000  0.000000000000000E+000
  0.000000000000000E+000  0.000000000000000E+000  0.000000000000000E+000
  0.000000000000000E+000  0.000000000000000E+000  0.000000000000000E+000
  0.000000000000000E+000  0.000000000000000E+000  0.000000000000000E+000
  0.000000000000000E+000  0.000000000000000E+000  0.000000000000000E+000
  0.000000000000000E+000  0.000000000000000E+000  0.000000000000000E+000
  0.000000000000000E+000  0.000000000000000E+000  0.000000000000000E+000
  0.000000000000000E+000  0.000000000000000E+000  0.000000000000000E+000
  0.000000000000000E+000  0.000000000000000E+000  0.000000000000000E+000
  0.000000000000000E+000  0.000000000000000E+000  0.000000000000000E+000
  0.000000000000000E+000  0.000000000000000E+000  0.000000000000000E+000
  0.000000000000000E+000  0.000000000000000E+000  0.000000000000000E+000
  0.000000000000000E+000  0.000000000000000E+000  0.000000000000000E+000
  0.000000000000000E+000  0.000000000000000E+000  0.000000000000000E+000
  0.000000000000000E+000  0.000000000000000E+000  0.000000000000000E+000
  0.000000000000000E+000  0.000000000000000E+000  0.000000000000000E+000
  0.000000000000000E+000  0.000000000000000E+000  0.000000000000000E+000
  0.000000000000000E+000  0.000000000000000E+000  0.000000000000000E+000
  0.000000000000000E+000  0.000000000000000E+000  0.000000000000000E+000
  0.000000000000000E+000  0.000000000000000E+000  0.000000000000000E+000
  0.000000000000000E+000  0.000000000000000E+000  0.000000000000000E+000
  0.000000000000000E+000  0.000000000000000E+000  0.000000000000000E+000
  0.000000000000000E+000  0.000000000000000E+000  0.000000000000000E+000