 Title = "Wing and Wake"
 VARIABLES = "X" "Y" "Z" "GAM" "skew"
 Zone I=   11 J=   26 K=1  T="Blade"
 DATAPACKING=BLOCK
 VARLOCATION=([4]=CELLCENTERED,[5]=CELLCENTERED)
 -0.255255939471627      -0.246607708768590      -0.237959478065552     
 -0.229311247362515      -0.220663016659478      -0.212014785956440     
 -0.203366555253403      -0.194718324550366      -0.186070093847329     
 -0.177421863144291      -0.168773632441254      -0.258582217388093     
 -0.249933986685056      -0.241285755982018      -0.232637525278981     
 -0.223989294575944      -0.215341063872907      -0.206692833169869     
 -0.198044602466832      -0.189396371763795      -0.180748141060758     
 -0.172099910357720      -0.268508593747726      -0.259860363044689     
 -0.251212132341652      -0.242563901638614      -0.233915670935577     
 -0.225267440232540      -0.216619209529503      -0.207970978826465     
 -0.199322748123428      -0.190674517420390      -0.182026286717353     
 -0.284878523665606      -0.276230292962569      -0.267582062259531     
 -0.258933831556494      -0.250285600853457      -0.241637370150419     
 -0.232989139447382      -0.224340908744345      -0.215692678041308     
 -0.207044447338270      -0.198396216635233      -0.307433843568004     
 -0.298785612864967      -0.290137382161930      -0.281489151458892     
 -0.272840920755855      -0.264192690052818      -0.255544459349781     
 -0.246896228646743      -0.238247997943706      -0.229599767240669     
 -0.220951536537632      -0.335818842586166      -0.327170611883129     
 -0.318522381180091      -0.309874150477054      -0.301225919774017     
 -0.292577689070980      -0.283929458367942      -0.275281227664905     
 -0.266632996961868      -0.257984766258830      -0.249336535555793     
 -0.369585872329198      -0.360937641626160      -0.352289410923123     
 -0.343641180220086      -0.334992949517049      -0.326344718814012     
 -0.317696488110974      -0.309048257407937      -0.300400026704899     
 -0.291751796001862      -0.283103565298825      -0.408202406566607     
 -0.399554175863569      -0.390905945160532      -0.382257714457495     
 -0.373609483754457      -0.364961253051420      -0.356313022348383     
 -0.347664791645346      -0.339016560942308      -0.330368330239271     
 -0.321720099536234      -0.451059439485069      -0.442411208782031     
 -0.433762978078994      -0.425114747375957      -0.416466516672920     
 -0.407818285969882      -0.399170055266845      -0.390521824563808     
 -0.381873593860771      -0.373225363157733      -0.364577132454696     
 -0.497481090073910      -0.488832859370873      -0.480184628667836     
 -0.471536397964798      -0.462888167261761      -0.454239936558723     
 -0.445591705855686      -0.436943475152649      -0.428295244449611     
 -0.419647013746574      -0.410998783043537      -0.546735261172394     
 -0.538087030469357      -0.529438799766319      -0.520790569063282     
 -0.512142338360245      -0.503494107657208      -0.494845876954170     
 -0.486197646251133      -0.477549415548096      -0.468901184845059     
 -0.460252954142021      -0.598045185079282      -0.589396954376245     
 -0.580748723673208      -0.572100492970170      -0.563452262267133     
 -0.554804031564096      -0.546155800861059      -0.537507570158021     
 -0.528859339454984      -0.520211108751947      -0.511562878048909     
 -0.650601673643501      -0.641953442940463      -0.633305212237425     
 -0.624656981534389      -0.616008750831351      -0.607360520128314     
 -0.598712289425276      -0.590064058722240      -0.581415828019202     
 -0.572767597316165      -0.564119366613128      -0.703575879644667     
 -0.694927648941629      -0.686279418238591      -0.677631187535554     
 -0.668982956832517      -0.660334726129479      -0.651686495426443     
 -0.643038264723405      -0.634390034020369      -0.625741803317330     
 -0.617093572614293      -0.756132368208884      -0.747484137505847     
 -0.738835906802810      -0.730187676099772      -0.721539445396734     
 -0.712891214693698      -0.704242983990660      -0.695594753287623     
 -0.686946522584585      -0.678298291881548      -0.669650061178512     
 -0.807442292115773      -0.798794061412734      -0.790145830709698     
 -0.781497600006661      -0.772849369303623      -0.764201138600586     
 -0.755552907897548      -0.746904677194511      -0.738256446491474     
 -0.729608215788436      -0.720959985085400      -0.856696463214257     
 -0.848048232511219      -0.839400001808181      -0.830751771105145     
 -0.822103540402107      -0.813455309699070      -0.804807078996032     
 -0.796158848292996      -0.787510617589958      -0.778862386886922     
 -0.770214156183884      -0.903118113803098      -0.894469883100060     
 -0.885821652397023      -0.877173421693985      -0.868525190990948     
 -0.859876960287912      -0.851228729584874      -0.842580498881836     
 -0.833932268178799      -0.825284037475762      -0.816635806772724     
 -0.945975146721559      -0.937326916018522      -0.928678685315485     
 -0.920030454612447      -0.911382223909411      -0.902733993206374     
 -0.894085762503336      -0.885437531800299      -0.876789301097262     
 -0.868141070394224      -0.859492839691187      -0.984591680958968     
 -0.975943450255932      -0.967295219552893      -0.958646988849857     
 -0.949998758146820      -0.941350527443782      -0.932702296740744     
 -0.924054066037708      -0.915405835334670      -0.906757604631633     
 -0.898109373928595       -1.01835871070200       -1.00971047999896     
  -1.00106224929592      -0.992414018592889      -0.983765787889852     
 -0.975117557186813      -0.966469326483777      -0.957821095780739     
 -0.949172865077703      -0.940524634374664      -0.931876403671627     
  -1.04674370972016       -1.03809547901713       -1.02944724831409     
  -1.02079901761105       -1.01215078690801       -1.00350255620498     
 -0.994854325501938      -0.986206094798901      -0.977557864095864     
 -0.968909633392826      -0.960261402689789       -1.06929902962256     
  -1.06065079891952       -1.05200256821649       -1.04335433751345     
  -1.03470610681041       -1.02605787610737       -1.01740964540434     
  -1.00876141470130       -1.00011318399826      -0.991464953295225     
 -0.982816722592186       -1.08566895954044       -1.07702072883740     
  -1.06837249813436       -1.05972426743133       -1.05107603672829     
  -1.04242780602525       -1.03377957532222       -1.02513134461918     
  -1.01648311391614       -1.00783488321310      -0.999186652510067     
  -1.09559533590007       -1.08694710519704       -1.07829887449400     
  -1.06965064379096       -1.06100241308792       -1.05235418238489     
  -1.04370595168185       -1.03505772097881       -1.02640949027578     
  -1.01776125957274       -1.00911302886970       -1.09892161381654     
  -1.09027338311350       -1.08162515241047       -1.07297692170743     
  -1.06432869100439       -1.05568046030135       -1.04703222959832     
  -1.03838399889528       -1.02973576819224       -1.02108753748920     
  -1.01243930678617     
 -7.662045704753996E-002 -6.011520573384851E-002 -4.360995442015708E-002
 -2.710470310646564E-002 -1.059945179277386E-002  5.905799520917277E-003
  2.241105083460886E-002  3.891630214830027E-002  5.542155346199157E-002
  7.192680477568310E-002  8.843205608937468E-002 -7.487759241268542E-002
 -5.837234109899399E-002 -4.186708978530249E-002 -2.536183847161119E-002
 -8.856587157919720E-003  7.648664155771743E-003  2.415391546946309E-002
  4.065916678315452E-002  5.716441809684606E-002  7.366966941053756E-002
  9.017492072422913E-002 -6.967648452455083E-002 -5.317123321085954E-002
 -3.666598189716789E-002 -2.016073058347635E-002 -3.655479269785095E-003
  1.284977204390631E-002  2.935502335759799E-002  4.586027467128920E-002
  6.236552598498055E-002  7.887077729867213E-002  9.537602861236344E-002
 -6.109915796152304E-002 -4.459390664783149E-002 -2.808865533413999E-002
 -1.158340402044870E-002  4.921847293242672E-003  2.142709860693422E-002
  3.793234992062559E-002  5.443760123431695E-002  7.094285254800850E-002
  8.744810386170004E-002  0.103953355175391      -4.928088228734767E-002
 -3.277563097365630E-002 -1.627037965996463E-002  2.348716537266784E-004
  1.674012296741802E-002  3.324537428110971E-002  4.975062559480115E-002
  6.625587690849240E-002  8.276112822218380E-002  9.926637953587512E-002
  0.115771630849567      -3.440803876930212E-002 -1.790278745561052E-002
 -1.397536141919218E-003  1.510771517177236E-002  3.161296648546361E-002
  4.811821779915550E-002  6.462346911284637E-002  8.112872042653801E-002
  9.763397174022981E-002  0.114139223053921       0.130644474367613     
 -1.671518103427183E-002 -2.099297205805860E-004  1.629532159311076E-002
  3.280057290680238E-002  4.930582422049413E-002  6.581107553418528E-002
  8.231632684787660E-002  9.882157816156791E-002  0.115326829475259     
  0.131832080788951       0.148337332102642       3.518663982060437E-003
  2.002391529575196E-002  3.652916660944357E-002  5.303441792313472E-002
  6.953966923682603E-002  8.604492055051768E-002  0.102550171864209     
  0.119055423177900       0.135560674491592       0.152065925805283     
  0.168571177118975       2.597439645667432E-002  4.247964777036615E-002
  5.898489908405745E-002  7.549015039774855E-002  9.199540171144023E-002
  0.108500653025131       0.125005904338823       0.141511155652514     
  0.158016406966206       0.174521658279897       0.191026909593588     
  5.029787607404093E-002  6.680312738773232E-002  8.330837870142387E-002
  9.981363001511549E-002  0.116318881328807       0.132824132642498     
  0.149329383956189       0.165834635269881       0.182339886583572     
  0.198845137897264       0.215350389210955       7.610550703045166E-002
  9.261075834414328E-002  0.109116009657834       0.125621260971526     
  0.142126512285217       0.158631763598909       0.175137014912600     
  0.191642266226292       0.208147517539983       0.224652768853675     
  0.241158020167366       0.102990287568993       0.119495538882684     
  0.136000790196376       0.152506041510067       0.169011292823758     
  0.185516544137450       0.202021795451141       0.218527046764833     
  0.235032298078524       0.251537549392215       0.268042800705907     
  0.130528228640381       0.147033479954073       0.163538731267764     
  0.180043982581456       0.196549233895147       0.213054485208838     
  0.229559736522531       0.246064987836222       0.262570239149913     
  0.279075490463604       0.295580741777296       0.158285040463554     
  0.174790291777246       0.191295543090936       0.207800794404628     
  0.224306045718320       0.240811297032011       0.257316548345703     
  0.273821799659393       0.290327050973086       0.306832302286777     
  0.323337553600468       0.185822981534943       0.202328232848634     
  0.218833484162326       0.235338735476017       0.251843986789709     
  0.268349238103400       0.284854489417091       0.301359740730783     
  0.317864992044474       0.334370243358165       0.350875494671858     
  0.212707762073484       0.229213013387175       0.245718264700867     
  0.262223516014557       0.278728767328249       0.295234018641941     
  0.311739269955632       0.328244521269324       0.344749772583015     
  0.361255023896706       0.377760275210398       0.238515393029894     
  0.255020644343586       0.271525895657277       0.288031146970969     
  0.304536398284660       0.321041649598351       0.337546900912043     
  0.354052152225734       0.370557403539426       0.387062654853118     
  0.403567906166809       0.262838872647261       0.279344123960952     
  0.295849375274644       0.312354626588335       0.328859877902027     
  0.345365129215718       0.361870380529410       0.378375631843101     
  0.394880883156793       0.411386134470484       0.427891385784175     
  0.285294605121875       0.301799856435566       0.318305107749258     
  0.334810359062948       0.351315610376640       0.367820861690332     
  0.384326113004023       0.400831364317715       0.417336615631406     
  0.433841866945098       0.450347118258789       0.305528450138207     
  0.322033701451899       0.338538952765589       0.355044204079282     
  0.371549455392972       0.388054706706665       0.404559958020355     
  0.421065209334048       0.437570460647739       0.454075711961431     
  0.470580963275121       0.323221307873238       0.339726559186929     
  0.356231810500620       0.372737061814311       0.389242313128003     
  0.405747564441694       0.422252815755387       0.438758067069078     
  0.455263318382769       0.471768569696460       0.488273821010151     
  0.338094151391283       0.354599402704974       0.371104654018666     
  0.387609905332358       0.404115156646048       0.420620407959741     
  0.437125659273432       0.453630910587123       0.470136161900814     
  0.486641413214506       0.503146664528198       0.349912427065459     
  0.366417678379150       0.382922929692841       0.399428181006532     
  0.415933432320224       0.432438683633916       0.448943934947607     
  0.465449186261299       0.481954437574990       0.498459688888681     
  0.514964940202373       0.358489753628486       0.374995004942177     
  0.391500256255869       0.408005507569560       0.424510758883252     
  0.441016010196944       0.457521261510634       0.474026512824327     
  0.490531764138017       0.507037015451710       0.523542266765401     
  0.363690861516621       0.380196112830312       0.396701364144002     
  0.413206615457694       0.429711866771386       0.446217118085078     
  0.462722369398769       0.479227620712461       0.495732872026152     
  0.512238123339843       0.528743374653535       0.365433726151474     
  0.381938977465166       0.398444228778857       0.414949480092550     
  0.431454731406241       0.447959982719932       0.464465234033625     
  0.480970485347315       0.497475736661006       0.513980987974698     
  0.530486239288390     
  3.960717710078315E-002  3.564645939070483E-002  3.168574168062652E-002
  2.772502397054821E-002  2.376430626046989E-002  1.980358855039158E-002
  1.584287084031326E-002  1.188215313023495E-002  7.921435420156629E-003
  3.960717710078312E-003  0.000000000000000E+000  3.960717710078315E-002
  3.564645939070483E-002  3.168574168062652E-002  2.772502397054821E-002
  2.376430626046989E-002  1.980358855039158E-002  1.584287084031326E-002
  1.188215313023495E-002  7.921435420156629E-003  3.960717710078312E-003
  0.000000000000000E+000  3.960717710078315E-002  3.564645939070483E-002
  3.168574168062652E-002  2.772502397054821E-002  2.376430626046989E-002
  1.980358855039158E-002  1.584287084031326E-002  1.188215313023495E-002
  7.921435420156629E-003  3.960717710078312E-003  0.000000000000000E+000
  3.960717710078315E-002  3.564645939070483E-002  3.168574168062652E-002
  2.772502397054821E-002  2.376430626046989E-002  1.980358855039158E-002
  1.584287084031326E-002  1.188215313023495E-002  7.921435420156629E-003
  3.960717710078312E-003  0.000000000000000E+000  3.960717710078315E-002
  3.564645939070483E-002  3.168574168062652E-002  2.772502397054821E-002
  2.376430626046989E-002  1.980358855039158E-002  1.584287084031326E-002
  1.188215313023495E-002  7.921435420156629E-003  3.960717710078312E-003
  0.000000000000000E+000  3.960717710078315E-002  3.564645939070483E-002
  3.168574168062652E-002  2.772502397054821E-002  2.376430626046989E-002
  1.980358855039158E-002  1.584287084031326E-002  1.188215313023495E-002
  7.921435420156629E-003  3.960717710078312E-003  0.000000000000000E+000
  3.960717710078315E-002  3.564645939070483E-002  3.168574168062652E-002
  2.772502397054821E-002  2.376430626046989E-002  1.980358855039158E-002
  1.584287084031326E-002  1.188215313023495E-002  7.921435420156629E-003
  3.960717710078312E-003  0.000000000000000E+000  3.960717710078315E-002
  3.564645939070483E-002  3.168574168062652E-002  2.772502397054821E-002
  2.376430626046989E-002  1.980358855039158E-002  1.584287084031326E-002
  1.188215313023495E-002  7.921435420156629E-003  3.960717710078312E-003
  0.000000000000000E+000  3.960717710078315E-002  3.564645939070483E-002
  3.168574168062652E-002  2.772502397054821E-002  2.376430626046989E-002
  1.980358855039158E-002  1.584287084031326E-002  1.188215313023495E-002
  7.921435420156629E-003  3.960717710078312E-003  0.000000000000000E+000
  3.960717710078315E-002  3.564645939070483E-002  3.168574168062652E-002
  2.772502397054821E-002  2.376430626046989E-002  1.980358855039158E-002
  1.584287084031326E-002  1.188215313023495E-002  7.921435420156629E-003
  3.960717710078312E-003  0.000000000000000E+000  3.960717710078315E-002
  3.564645939070483E-002  3.168574168062652E-002  2.772502397054821E-002
  2.376430626046989E-002  1.980358855039158E-002  1.584287084031326E-002
  1.188215313023495E-002  7.921435420156629E-003  3.960717710078312E-003
  0.000000000000000E+000  3.960717710078315E-002  3.564645939070483E-002
  3.168574168062652E-002  2.772502397054821E-002  2.376430626046989E-002
  1.980358855039158E-002  1.584287084031326E-002  1.188215313023495E-002
  7.921435420156629E-003  3.960717710078312E-003  0.000000000000000E+000
  3.960717710078315E-002  3.564645939070483E-002  3.168574168062652E-002
  2.772502397054821E-002  2.376430626046989E-002  1.980358855039158E-002
  1.584287084031326E-002  1.188215313023495E-002  7.921435420156629E-003
  3.960717710078312E-003  0.000000000000000E+000  3.960717710078315E-002
  3.564645939070483E-002  3.168574168062652E-002  2.772502397054821E-002
  2.376430626046989E-002  1.980358855039158E-002  1.584287084031326E-002
  1.188215313023495E-002  7.921435420156629E-003  3.960717710078312E-003
  0.000000000000000E+000  3.960717710078315E-002  3.564645939070483E-002
  3.168574168062652E-002  2.772502397054821E-002  2.376430626046989E-002
  1.980358855039158E-002  1.584287084031326E-002  1.188215313023495E-002
  7.921435420156629E-003  3.960717710078312E-003  0.000000000000000E+000
  3.960717710078315E-002  3.564645939070483E-002  3.168574168062652E-002
  2.772502397054821E-002  2.376430626046989E-002  1.980358855039158E-002
  1.584287084031326E-002  1.188215313023495E-002  7.921435420156629E-003
  3.960717710078312E-003  0.000000000000000E+000  3.960717710078315E-002
  3.564645939070483E-002  3.168574168062652E-002  2.772502397054821E-002
  2.376430626046989E-002  1.980358855039158E-002  1.584287084031326E-002
  1.188215313023495E-002  7.921435420156629E-003  3.960717710078312E-003
  0.000000000000000E+000  3.960717710078315E-002  3.564645939070483E-002
  3.168574168062652E-002  2.772502397054821E-002  2.376430626046989E-002
  1.980358855039158E-002  1.584287084031326E-002  1.188215313023495E-002
  7.921435420156629E-003  3.960717710078312E-003  0.000000000000000E+000
  3.960717710078315E-002  3.564645939070483E-002  3.168574168062652E-002
  2.772502397054821E-002  2.376430626046989E-002  1.980358855039158E-002
  1.584287084031326E-002  1.188215313023495E-002  7.921435420156629E-003
  3.960717710078312E-003  0.000000000000000E+000  3.960717710078315E-002
  3.564645939070483E-002  3.168574168062652E-002  2.772502397054821E-002
  2.376430626046989E-002  1.980358855039158E-002  1.584287084031326E-002
  1.188215313023495E-002  7.921435420156629E-003  3.960717710078312E-003
  0.000000000000000E+000  3.960717710078315E-002  3.564645939070483E-002
  3.168574168062652E-002  2.772502397054821E-002  2.376430626046989E-002
  1.980358855039158E-002  1.584287084031326E-002  1.188215313023495E-002
  7.921435420156629E-003  3.960717710078312E-003  0.000000000000000E+000
  3.960717710078315E-002  3.564645939070483E-002  3.168574168062652E-002
  2.772502397054821E-002  2.376430626046989E-002  1.980358855039158E-002
  1.584287084031326E-002  1.188215313023495E-002  7.921435420156629E-003
  3.960717710078312E-003  0.000000000000000E+000  3.960717710078315E-002
  3.564645939070483E-002  3.168574168062652E-002  2.772502397054821E-002
  2.376430626046989E-002  1.980358855039158E-002  1.584287084031326E-002
  1.188215313023495E-002  7.921435420156629E-003  3.960717710078312E-003
  0.000000000000000E+000  3.960717710078315E-002  3.564645939070483E-002
  3.168574168062652E-002  2.772502397054821E-002  2.376430626046989E-002
  1.980358855039158E-002  1.584287084031326E-002  1.188215313023495E-002
  7.921435420156629E-003  3.960717710078312E-003  0.000000000000000E+000
  3.960717710078315E-002  3.564645939070483E-002  3.168574168062652E-002
  2.772502397054821E-002  2.376430626046989E-002  1.980358855039158E-002
  1.584287084031326E-002  1.188215313023495E-002  7.921435420156629E-003
  3.960717710078312E-003  0.000000000000000E+000  3.960717710078315E-002
  3.564645939070483E-002  3.168574168062652E-002  2.772502397054821E-002
  2.376430626046989E-002  1.980358855039158E-002  1.584287084031326E-002
  1.188215313023495E-002  7.921435420156629E-003  3.960717710078312E-003
  0.000000000000000E+000
 -2.354492583086384E-002  1.603439585439039E-005  3.862261303858085E-002
  8.824775435754201E-002  0.147274002188205       0.214267897279196     
  0.288467430538381       0.368031414971632       0.449822540955660     
  0.527002316978650      -3.852968879157131E-002 -9.770462722362438E-004
  6.254302189162986E-002  0.144692399781561       0.242488751960932     
  0.353576210180214       0.476683721930881       0.609049673255064     
  0.745948023028770       0.877501001758917      -4.773886067032963E-002
 -1.623353737270331E-003  8.064725653092464E-002  0.188189892807015     
  0.316467726158420       0.461910304541564       0.622446468632139     
  0.795450870122974       0.974868707596325        1.14472101620445     
 -3.970635187722813E-002  1.292856790636530E-002  0.105711732539832     
  0.226929554200638       0.371113368277062       0.534425158548899     
  0.713347384489618       0.903717255551095        1.09862189033393     
   1.27987367452120       7.603622220609959E-003  7.561347323139023E-002
  0.176158621691474       0.301541042671450       0.447022497554802     
  0.609740215714930       0.787094112153601       0.974008417126454     
   1.16200651809021        1.33272171902677       0.104436562985459     
  0.208530033231820       0.326693035638696       0.458898713967411     
  0.603213988431659       0.757399238208926       0.919512418130891     
   1.08680459183876        1.25305227521431        1.40214165187252     
  0.246002988304383       0.408680337475915       0.561099136085982     
  0.713134873189687       0.866443570430735        1.02007474290277     
   1.17231742448124        1.32140019300795        1.46322700908526     
   1.58558749789191       0.420008126536167       0.656987414806112     
  0.855111796090750        1.03621893788073        1.20647542005793     
   1.36712755652060        1.51752120295449        1.65594360833280     
   1.77891887838673        1.87720800410609       0.609594902569111     
  0.927661063135401        1.17572689430263        1.38887736261767     
   1.57851854272693        1.74867572536096        1.90045177448074     
   2.03329477475563        2.14463438360837        2.22713608671478     
  0.802883247130752        1.20310163506431        1.50146422668566     
   1.74705234665299        1.95698958280509        2.13763944634281     
   2.29313362361022        2.42491904566759        2.53143066749407     
   2.60619870978604       0.998762875725472        1.48363153377216     
   1.83499899940522        2.11554465348807        2.34773242261748     
   2.54208254302082        2.70454763959619        2.83834131019646     
   2.94341162077100        3.01389787433967        1.19277168546833     
   1.76214354000356        2.16738947155486        2.48517999846513     
   2.74390116686259        2.95734104577419        3.13303580400808     
   3.27484381939982        3.38320335138614        3.45295135460528     
   1.38618800915670        2.04105462764011        2.50230242090416     
   2.86043949077557        3.14939686401601        3.38578790121975     
   3.57863885111040        3.73255262020963        3.84839276212743     
   3.92128598848622        1.58365809964173        2.32643922104767     
   2.84582552892949        3.24621991305095        3.56701104068017     
   3.82763161739748        4.03874994020737        4.20601118392094     
   4.33097382678996        4.40909848656464        1.78826532325603     
   2.62160788372377        3.20045349055950        3.64366202242977     
   3.99632011504137        4.28086819185021        4.50982618640426     
   4.69007805840482        4.82404183723968        4.90760601571270     
   2.00320176284264        2.92961415655284        3.56807443673168     
   4.05306463447291        4.43593787048647        4.74249282652524     
   4.98734621686655        5.17881654764449        5.32032926799500     
   5.40838477572517        2.23074838503029        3.25171511289323     
   3.94807347981852        4.47175970855748        4.88126846499173     
   5.20624977082402        5.46370171632623        5.66354432472901     
   5.81034484503857        5.90139736953991        2.45744612031085     
   3.56748589617689        4.31496261580728        4.87037993287480     
   5.29994035918520        5.63743889467348        5.90238583742872     
   6.10635214307764        6.25508839483009        6.34685015479642     
   2.64261684123949        3.81793891100495        4.59765230199833     
   5.16916670532273        5.60581405245660        5.94513997536737     
   6.20884346489322        6.40989057552042        6.55505643223558     
   6.64369854729325        2.73738014453238        3.93225438081937     
   4.71112217192293        5.27332758101178        5.69747279275657     
   6.02378982150295        6.27536711371897        6.46587748380977     
   6.60252735094863        6.68539300751623        2.69254353766757     
   3.83703262189039        4.56521736244061        5.08043331126625     
   5.46309704588031        5.75393740378351        5.97581924552606     
   6.14184049820026        6.25868956264210        6.32716245896932     
   2.49724792736602        3.51113440767658        4.13396973915506     
   4.56469895332313        4.88007946310144        5.11748296636103     
   5.29707636510240        5.42988086219363        5.52105082292144     
   5.57114713581447        2.15286676897835        2.95790195964596     
   3.43349673583287        3.75762132529556        3.99370641221377     
   4.17105871891117        4.30506773631584        4.40407121285299     
   4.47215053567322        4.51041439202680        1.64446906257018     
   2.18751977784256        2.50397788783570        2.72013961613495     
   2.87815582314865        2.99722696455384        3.08746815872789     
   3.15459452587022        3.20230703759166        3.23619713608572     
  0.999407768351018        1.30347154245296        1.48231808935480     
   1.60516067137666        1.69526799308948        1.76332019591013     
   1.81497180482896        1.85340566230707        1.88041797339551     
   1.89646665851445     
  0.000000000000000E+000  0.000000000000000E+000  0.000000000000000E+000
  0.000000000000000E+000  0.000000000000000E+000  0.000000000000000E+000
  0.000000000000000E+000  0.000000000000000E+000  0.000000000000000E+000
  0.000000000000000E+000  0.000000000000000E+000  0.000000000000000E+000
  0.000000000000000E+000  0.000000000000000E+000  0.000000000000000E+000
  0.000000000000000E+000  0.000000000000000E+000  0.000000000000000E+000
  0.000000000000000E+000  0.000000000000000E+000  0.000000000000000E+000
  0.000000000000000E+000  0.000000000000000E+000  0.000000000000000E+000
  0.000000000000000E+000  0.000000000000000E+000  0.000000000000000E+000
  0.000000000000000E+000  0.000000000000000E+000  0.000000000000000E+000
  0.000000000000000E+000  0.000000000000000E+000  0.000000000000000E+000
  0.000000000000000E+000  0.000000000000000E+000  0.000000000000000E+000
  0.000000000000000E+000  0.000000000000000E+000  0.000000000000000E+000
  0.000000000000000E+000  0.000000000000000E+000  0.000000000000000E+000
  0.000000000000000E+000  0.000000000000000E+000  0.000000000000000E+000
  0.000000000000000E+000  0.000000000000000E+000  0.000000000000000E+000
  0.000000000000000E+000  0.000000000000000E+000  0.000000000000000E+000
  0.000000000000000E+000  0.000000000000000E+000  0.000000000000000E+000
  0.000000000000000E+000  0.000000000000000E+000  0.000000000000000E+000
  0.000000000000000E+000  0.000000000000000E+000  0.000000000000000E+000
  0.000000000000000E+000  0.000000000000000E+000  0.000000000000000E+000
  0.000000000000000E+000  0.000000000000000E+000  0.000000000000000E+000
  0.000000000000000E+000  0.000000000000000E+000  0.000000000000000E+000
  0.000000000000000E+000  0.000000000000000E+000  0.000000000000000E+000
  0.000000000000000E+000  0.000000000000000E+000  0.000000000000000E+000
  0.000000000000000E+000  0.000000000000000E+000  0.000000000000000E+000
  0.000000000000000E+000  0.000000000000000E+000  0.000000000000000E+000
  0.000000000000000E+000  0.000000000000000E+000  0.000000000000000E+000
  0.000000000000000E+000  0.000000000000000E+000  0.000000000000000E+000
  0.000000000000000E+000  0.000000000000000E+000  0.000000000000000E+000
  0.000000000000000E+000  0.000000000000000E+000  0.000000000000000E+000
  0.000000000000000E+000  0.000000000000000E+000  0.000000000000000E+000
  0.000000000000000E+000  0.000000000000000E+000  0.000000000000000E+000
  0.000000000000000E+000  0.000000000000000E+000  0.000000000000000E+000
  0.000000000000000E+000  0.000000000000000E+000  0.000000000000000E+000
  0.000000000000000E+000  0.000000000000000E+000  0.000000000000000E+000
  0.000000000000000E+000  0.000000000000000E+000  0.000000000000000E+000
  0.000000000000000E+000  0.000000000000000E+000  0.000000000000000E+000
  0.000000000000000E+000  0.000000000000000E+000  0.000000000000000E+000