 Title = "Wing and Wake"
 VARIABLES = "X" "Y" "Z" "GAM" "skew"
 Zone I=   11 J=   26 K=1  T="Blade"
 DATAPACKING=BLOCK
 VARLOCATION=([4]=CELLCENTERED,[5]=CELLCENTERED)
  0.226716064701042       0.222635869071611       0.218555673442179     
  0.214475477812747       0.210395282183316       0.206315086553884     
  0.202234890924452       0.198154695295020       0.194074499665589     
  0.189994304036157       0.185914108406725       0.230380155970560     
  0.226299960341128       0.222219764711696       0.218139569082265     
  0.214059373452833       0.209979177823401       0.205898982193970     
  0.201818786564538       0.197738590935106       0.193658395305675     
  0.189578199676243       0.241314644870970       0.237234449241538     
  0.233154253612107       0.229074057982675       0.224993862353243     
  0.220913666723812       0.216833471094380       0.212753275464948     
  0.208673079835516       0.204592884206085       0.200512688576653     
  0.259347087980367       0.255266892350935       0.251186696721504     
  0.247106501092072       0.243026305462640       0.238946109833208     
  0.234865914203777       0.230785718574345       0.226705522944913     
  0.222625327315482       0.218545131686050       0.284193102898855     
  0.280112907269424       0.276032711639992       0.271952516010560     
  0.267872320381128       0.263792124751697       0.259711929122265     
  0.255631733492833       0.251551537863402       0.247471342233970     
  0.243391146604538       0.315460853128881       0.311380657499450     
  0.307300461870017       0.303220266240586       0.299140070611155     
  0.295059874981723       0.290979679352291       0.286899483722859     
  0.282819288093428       0.278739092463995       0.274658896834564     
  0.352657227570867       0.348577031941436       0.344496836312004     
  0.340416640682573       0.336336445053141       0.332256249423710     
  0.328176053794278       0.324095858164846       0.320015662535414     
  0.315935466905982       0.311855271276550       0.395195617179829     
  0.391115421550397       0.387035225920966       0.382955030291534     
  0.378874834662102       0.374794639032670       0.370714443403239     
  0.366634247773807       0.362554052144375       0.358473856514943     
  0.354393660885512       0.442405166140428       0.438324970510997     
  0.434244774881565       0.430164579252133       0.426084383622702     
  0.422004187993270       0.417923992363837       0.413843796734406     
  0.409763601104975       0.405683405475543       0.401603209846111     
  0.493541351663939       0.489461156034508       0.485380960405077     
  0.481300764775645       0.477220569146213       0.473140373516781     
  0.469060177887349       0.464979982257918       0.460899786628486     
  0.456819590999054       0.452739395369622       0.547797725557382     
  0.543717529927950       0.539637334298518       0.535557138669086     
  0.531476943039655       0.527396747410224       0.523316551780791     
  0.519236356151360       0.515156160521927       0.511075964892496     
  0.506995769263064       0.604318632393266       0.600238436763834     
  0.596158241134404       0.592078045504970       0.587997849875539     
  0.583917654246109       0.579837458616677       0.575757262987244     
  0.571677067357813       0.567596871728381       0.563516676098949     
  0.662212703706841       0.658132508077409       0.654052312447976     
  0.649972116818545       0.645891921189113       0.641811725559681     
  0.637731529930250       0.633651334300819       0.629571138671386     
  0.625490943041955       0.621410747412523       0.720566915409247     
  0.716486719779814       0.712406524150382       0.708326328520950     
  0.704246132891519       0.700165937262087       0.696085741632656     
  0.692005546003223       0.687925350373794       0.683845154744360     
  0.679764959114929       0.778460986722819       0.774380791093387     
  0.770300595463957       0.766220399834524       0.762140204205092     
  0.758060008575662       0.753979812946229       0.749899617316797     
  0.745819421687364       0.741739226057932       0.737659030428503     
  0.834981893558705       0.830901697929272       0.826821502299842     
  0.822741306670410       0.818661111040978       0.814580915411546     
  0.810500719782113       0.806420524152682       0.802340328523251     
  0.798260132893818       0.794179937264388       0.889238267452146     
  0.885158071822714       0.881077876193282       0.876997680563852     
  0.872917484934419       0.868837289304988       0.864757093675556     
  0.860676898046125       0.856596702416692       0.852516506787262     
  0.848436311157830       0.940374452975658       0.936294257346226     
  0.932214061716794       0.928133866087362       0.924053670457931     
  0.919973474828500       0.915893279199068       0.911813083569635     
  0.907732887940204       0.903652692310772       0.899572496681340     
  0.987584001936256       0.983503806306824       0.979423610677393     
  0.975343415047961       0.971263219418530       0.967183023789099     
  0.963102828159666       0.959022632530235       0.954942436900804     
  0.950862241271372       0.946782045641939        1.03012239154522     
   1.02604219591579        1.02196200028635        1.01788180465692     
   1.01380160902749        1.00972141339806        1.00564121776863     
   1.00156102213920       0.997480826509764       0.993400630880333     
  0.989320435250900        1.06731876598721        1.06323857035777     
   1.05915837472834        1.05507817909891        1.05099798346948     
   1.04691778784005        1.04283759221062        1.03875739658118     
   1.03467720095175        1.03059700532232        1.02651680969289     
   1.09858651621723        1.09450632058780        1.09042612495837     
   1.08634592932893        1.08226573369950        1.07818553807007     
   1.07410534244064        1.07002514681121        1.06594495118178     
   1.06186475555235        1.05778455992291        1.12343253113572     
   1.11935233550629        1.11527213987685        1.11119194424742     
   1.10711174861799        1.10303155298856        1.09895135735913     
   1.09487116172970        1.09079096610027        1.08671077047083     
   1.08263057484140        1.14146497424512        1.13738477861568     
   1.13330458298625        1.12922438735682        1.12514419172739     
   1.12106399609796        1.11698380046853        1.11290360483909     
   1.10882340920966        1.10474321358023        1.10066301795080     
   1.15239946314552        1.14831926751609        1.14423907188666     
   1.14015887625723        1.13607868062780        1.13199848499837     
   1.12791828936893        1.12383809373950        1.11975789811007     
   1.11567770248064        1.11159750685121        1.15606355441504     
   1.15198335878561        1.14790316315618        1.14382296752675     
   1.13974277189732        1.13566257626789        1.13158238063845     
   1.12750218500902        1.12342198937959        1.11934179375016     
   1.11526159812073     
  0.140093237096547       0.121911729490008       0.103730221883469     
  8.554871427692988E-002  6.736720667039064E-002  4.918569906385193E-002
  3.100419145731275E-002  1.282268385077388E-002 -5.358823755764893E-003
 -2.354033136230411E-002 -4.172183896884319E-002  0.139270961545627     
  0.121089453939088       0.102907946332548       8.472643872600991E-002
  6.654493111947067E-002  4.836342351293176E-002  3.018191590639275E-002
  1.200040829985386E-002 -6.181099306685171E-003 -2.436260691322412E-002
 -4.254411451976335E-002  0.136817102669508       0.118635595062969     
  0.100454087456430       8.227257984989091E-002  6.409107224335200E-002
  4.590956463681303E-002  2.772805703027383E-002  9.546549423735229E-003
 -8.634958182803644E-003 -2.681646578934289E-002 -4.499797339588159E-002
  0.132770359288532       0.114588851681992       9.640734407545314E-002
  7.822583646891457E-002  6.004432886237549E-002  4.186282125583644E-002
  2.368131364929760E-002  5.499806042758605E-003 -1.268170156378047E-002
 -3.086320917031961E-002 -4.904471677685800E-002  0.127194550963222     
  0.109013043356684       9.083153575014419E-002  7.265002814360526E-002
  5.446852053706623E-002  3.628701293052727E-002  1.810550532398824E-002
 -7.600228255048569E-005 -1.825750988908953E-002 -3.643901749562836E-002
 -5.462052510216749E-002  0.120177611521697       0.101996103915158     
  8.381459630861922E-002  6.563308870207987E-002  4.745158109554136E-002
  2.927007348900189E-002  1.108856588246329E-002 -7.092941724075728E-003
 -2.527444933061495E-002 -4.345595693715394E-002 -6.163746454369300E-002
  0.111830202290665       9.364869468412618E-002  7.546718707758733E-002
  5.728567947104835E-002  3.910417186450914E-002  2.092266425797019E-002
  2.741156651431339E-003 -1.544035095510732E-002 -3.362185856164620E-002
 -5.180336616818537E-002 -6.998487377472422E-002  0.102283966900200     
  8.410245929366118E-002  6.592095168712209E-002  4.773944408058371E-002
  2.955793647404460E-002  1.137642886750556E-002 -6.805078739033540E-003
 -2.498658634557200E-002 -4.316809395211132E-002 -6.134960155864997E-002
 -7.953110916518935E-002  9.168945518505528E-002  7.350794757851578E-002
  5.532643997197709E-002  3.714493236543847E-002  1.896342475889956E-002
  7.819171523604209E-004 -1.739959045417868E-002 -3.558109806071764E-002
 -5.376260566725707E-002 -7.194411327379557E-002 -9.012562088033432E-002
  8.021374892383168E-002  6.203224131729296E-002  4.385073371075375E-002
  2.566922610421459E-002  7.487718497675838E-003 -1.069378910886285E-002
 -2.887529671540193E-002 -4.705680432194104E-002 -6.523831192848016E-002
 -8.341981953501881E-002 -0.101601327141558       6.803782685952418E-002
  4.985631925298512E-002  3.167481164644641E-002  1.349330403990764E-002
 -4.688203566631589E-003 -2.286971117317065E-002 -4.105121877970909E-002
 -5.923272638624912E-002 -7.741423399278732E-002 -9.559574159932632E-002
 -0.113777249205865       5.535371055662953E-002  3.717220295009135E-002
  1.899069534355190E-002  8.091877370129853E-004 -1.737231986952626E-002
 -3.555382747606489E-002 -5.373533508260374E-002 -7.191684268914297E-002
 -9.009835029568217E-002 -0.108279857902220      -0.126461365508759     
  4.236143610636975E-002  2.417992849983053E-002  5.998420893291162E-003
 -1.218308671324703E-002 -3.036459431978647E-002 -4.854610192632484E-002
 -6.672760953286493E-002 -8.490911713940358E-002 -0.103090624745942     
 -0.121272132352481      -0.139453639959020       2.926589943803276E-002
  1.108439183149280E-002 -7.097115775045165E-003 -2.527862338158487E-002
 -4.346013098812372E-002 -6.164163859466305E-002 -7.982314620120250E-002
 -9.800465380773989E-002 -0.116186161414280      -0.134367669020819     
 -0.152549176627358       1.627362498777135E-002 -1.907882618766901E-003
 -2.008939022530652E-002 -3.827089783184495E-002 -5.645240543838434E-002
 -7.463391304492283E-002 -9.281542065146166E-002 -0.110996928258002     
 -0.129178435864540      -0.147359943471079      -0.165541451077618     
  3.589508684877576E-003 -1.459199892166176E-002 -3.277350652820055E-002
 -5.095501413473881E-002 -6.913652174127814E-002 -8.731802934781761E-002
 -0.105499536954356      -0.123681044560895      -0.141862552167434     
 -0.160044059773973      -0.178225567380512      -8.586413379430094E-003
 -2.676792098596900E-002 -4.494942859250823E-002 -6.313093619904653E-002
 -8.131244380558600E-002 -9.949395141212458E-002 -0.117675459018664     
 -0.135856966625203      -0.154038474231742      -0.172219981838281     
 -0.190401489444820      -2.006211964065358E-002 -3.824362724719284E-002
 -5.642513485373220E-002 -7.460664246027027E-002 -9.278815006680909E-002
 -0.110969657673349      -0.129151165279887      -0.147332672886426     
 -0.165514180492965      -0.183695688099504      -0.201877195706043     
 -3.065663135579908E-002 -4.883813896233793E-002 -6.701964656887748E-002
 -8.520115417541509E-002 -0.103382661781955      -0.121564169388494     
 -0.139745676995032      -0.157927184601572      -0.176108692208111     
 -0.194290199814650      -0.212471707421188      -4.020286674626320E-002
 -5.838437435280272E-002 -7.656588195934118E-002 -9.474738956588122E-002
 -0.112928897172418      -0.131110404778959      -0.149291912385496     
 -0.167473419992037      -0.185654927598576      -0.203836435205115     
 -0.222017942811652      -4.855027597729600E-002 -6.673178358383476E-002
 -8.491329119037323E-002 -0.103094798796912      -0.121276306403451     
 -0.139457814009990      -0.157639321616530      -0.175820829223069     
 -0.194002336829607      -0.212183844436146      -0.230365352042685     
 -5.556721541881979E-002 -7.374872302535854E-002 -9.193023063189933E-002
 -0.110111738238438      -0.128293245844975      -0.146474753451515     
 -0.164656261058054      -0.182837768664593      -0.201019276271132     
 -0.219200783877672      -0.237382291484212      -6.114302374413036E-002
 -7.932453135066829E-002 -9.750603895720709E-002 -0.115687546563746     
 -0.133869054170286      -0.152050561776824      -0.170232069383363     
 -0.188413576989903      -0.206595084596442      -0.224776592202979     
 -0.242958099809520      -6.518976712510564E-002 -8.337127473164374E-002
 -0.101552782338184      -0.119734289944723      -0.137915797551262     
 -0.156097305157802      -0.174278812764340      -0.192460320370880     
 -0.210641827977417      -0.228823335583959      -0.247004843190496     
 -6.764362600122485E-002 -8.582513360776241E-002 -0.104006641214301     
 -0.122188148820841      -0.140369656427381      -0.158551164033921     
 -0.176732671640459      -0.194914179246998      -0.213095686853537     
 -0.231277194460076      -0.249458702066614      -6.846590155214434E-002
 -8.664740915868470E-002 -0.104828916765222      -0.123010424371762     
 -0.141191931978301      -0.159373439584840      -0.177554947191379     
 -0.195736454797918      -0.213917962404457      -0.232099470010996     
 -0.250280977617536     
  3.960717710078315E-002  3.564645939070483E-002  3.168574168062652E-002
  2.772502397054821E-002  2.376430626046989E-002  1.980358855039158E-002
  1.584287084031326E-002  1.188215313023495E-002  7.921435420156629E-003
  3.960717710078312E-003  0.000000000000000E+000  3.960717710078315E-002
  3.564645939070483E-002  3.168574168062652E-002  2.772502397054821E-002
  2.376430626046989E-002  1.980358855039158E-002  1.584287084031326E-002
  1.188215313023495E-002  7.921435420156629E-003  3.960717710078312E-003
  0.000000000000000E+000  3.960717710078315E-002  3.564645939070483E-002
  3.168574168062652E-002  2.772502397054821E-002  2.376430626046989E-002
  1.980358855039158E-002  1.584287084031326E-002  1.188215313023495E-002
  7.921435420156629E-003  3.960717710078312E-003  0.000000000000000E+000
  3.960717710078315E-002  3.564645939070483E-002  3.168574168062652E-002
  2.772502397054821E-002  2.376430626046989E-002  1.980358855039158E-002
  1.584287084031326E-002  1.188215313023495E-002  7.921435420156629E-003
  3.960717710078312E-003  0.000000000000000E+000  3.960717710078315E-002
  3.564645939070483E-002  3.168574168062652E-002  2.772502397054821E-002
  2.376430626046989E-002  1.980358855039158E-002  1.584287084031326E-002
  1.188215313023495E-002  7.921435420156629E-003  3.960717710078312E-003
  0.000000000000000E+000  3.960717710078315E-002  3.564645939070483E-002
  3.168574168062652E-002  2.772502397054821E-002  2.376430626046989E-002
  1.980358855039158E-002  1.584287084031326E-002  1.188215313023495E-002
  7.921435420156629E-003  3.960717710078312E-003  0.000000000000000E+000
  3.960717710078315E-002  3.564645939070483E-002  3.168574168062652E-002
  2.772502397054821E-002  2.376430626046989E-002  1.980358855039158E-002
  1.584287084031326E-002  1.188215313023495E-002  7.921435420156629E-003
  3.960717710078312E-003  0.000000000000000E+000  3.960717710078315E-002
  3.564645939070483E-002  3.168574168062652E-002  2.772502397054821E-002
  2.376430626046989E-002  1.980358855039158E-002  1.584287084031326E-002
  1.188215313023495E-002  7.921435420156629E-003  3.960717710078312E-003
  0.000000000000000E+000  3.960717710078315E-002  3.564645939070483E-002
  3.168574168062652E-002  2.772502397054821E-002  2.376430626046989E-002
  1.980358855039158E-002  1.584287084031326E-002  1.188215313023495E-002
  7.921435420156629E-003  3.960717710078312E-003  0.000000000000000E+000
  3.960717710078315E-002  3.564645939070483E-002  3.168574168062652E-002
  2.772502397054821E-002  2.376430626046989E-002  1.980358855039158E-002
  1.584287084031326E-002  1.188215313023495E-002  7.921435420156629E-003
  3.960717710078312E-003  0.000000000000000E+000  3.960717710078315E-002
  3.564645939070483E-002  3.168574168062652E-002  2.772502397054821E-002
  2.376430626046989E-002  1.980358855039158E-002  1.584287084031326E-002
  1.188215313023495E-002  7.921435420156629E-003  3.960717710078312E-003
  0.000000000000000E+000  3.960717710078315E-002  3.564645939070483E-002
  3.168574168062652E-002  2.772502397054821E-002  2.376430626046989E-002
  1.980358855039158E-002  1.584287084031326E-002  1.188215313023495E-002
  7.921435420156629E-003  3.960717710078312E-003  0.000000000000000E+000
  3.960717710078315E-002  3.564645939070483E-002  3.168574168062652E-002
  2.772502397054821E-002  2.376430626046989E-002  1.980358855039158E-002
  1.584287084031326E-002  1.188215313023495E-002  7.921435420156629E-003
  3.960717710078312E-003  0.000000000000000E+000  3.960717710078315E-002
  3.564645939070483E-002  3.168574168062652E-002  2.772502397054821E-002
  2.376430626046989E-002  1.980358855039158E-002  1.584287084031326E-002
  1.188215313023495E-002  7.921435420156629E-003  3.960717710078312E-003
  0.000000000000000E+000  3.960717710078315E-002  3.564645939070483E-002
  3.168574168062652E-002  2.772502397054821E-002  2.376430626046989E-002
  1.980358855039158E-002  1.584287084031326E-002  1.188215313023495E-002
  7.921435420156629E-003  3.960717710078312E-003  0.000000000000000E+000
  3.960717710078315E-002  3.564645939070483E-002  3.168574168062652E-002
  2.772502397054821E-002  2.376430626046989E-002  1.980358855039158E-002
  1.584287084031326E-002  1.188215313023495E-002  7.921435420156629E-003
  3.960717710078312E-003  0.000000000000000E+000  3.960717710078315E-002
  3.564645939070483E-002  3.168574168062652E-002  2.772502397054821E-002
  2.376430626046989E-002  1.980358855039158E-002  1.584287084031326E-002
  1.188215313023495E-002  7.921435420156629E-003  3.960717710078312E-003
  0.000000000000000E+000  3.960717710078315E-002  3.564645939070483E-002
  3.168574168062652E-002  2.772502397054821E-002  2.376430626046989E-002
  1.980358855039158E-002  1.584287084031326E-002  1.188215313023495E-002
  7.921435420156629E-003  3.960717710078312E-003  0.000000000000000E+000
  3.960717710078315E-002  3.564645939070483E-002  3.168574168062652E-002
  2.772502397054821E-002  2.376430626046989E-002  1.980358855039158E-002
  1.584287084031326E-002  1.188215313023495E-002  7.921435420156629E-003
  3.960717710078312E-003  0.000000000000000E+000  3.960717710078315E-002
  3.564645939070483E-002  3.168574168062652E-002  2.772502397054821E-002
  2.376430626046989E-002  1.980358855039158E-002  1.584287084031326E-002
  1.188215313023495E-002  7.921435420156629E-003  3.960717710078312E-003
  0.000000000000000E+000  3.960717710078315E-002  3.564645939070483E-002
  3.168574168062652E-002  2.772502397054821E-002  2.376430626046989E-002
  1.980358855039158E-002  1.584287084031326E-002  1.188215313023495E-002
  7.921435420156629E-003  3.960717710078312E-003  0.000000000000000E+000
  3.960717710078315E-002  3.564645939070483E-002  3.168574168062652E-002
  2.772502397054821E-002  2.376430626046989E-002  1.980358855039158E-002
  1.584287084031326E-002  1.188215313023495E-002  7.921435420156629E-003
  3.960717710078312E-003  0.000000000000000E+000  3.960717710078315E-002
  3.564645939070483E-002  3.168574168062652E-002  2.772502397054821E-002
  2.376430626046989E-002  1.980358855039158E-002  1.584287084031326E-002
  1.188215313023495E-002  7.921435420156629E-003  3.960717710078312E-003
  0.000000000000000E+000  3.960717710078315E-002  3.564645939070483E-002
  3.168574168062652E-002  2.772502397054821E-002  2.376430626046989E-002
  1.980358855039158E-002  1.584287084031326E-002  1.188215313023495E-002
  7.921435420156629E-003  3.960717710078312E-003  0.000000000000000E+000
  3.960717710078315E-002  3.564645939070483E-002  3.168574168062652E-002
  2.772502397054821E-002  2.376430626046989E-002  1.980358855039158E-002
  1.584287084031326E-002  1.188215313023495E-002  7.921435420156629E-003
  3.960717710078312E-003  0.000000000000000E+000  3.960717710078315E-002
  3.564645939070483E-002  3.168574168062652E-002  2.772502397054821E-002
  2.376430626046989E-002  1.980358855039158E-002  1.584287084031326E-002
  1.188215313023495E-002  7.921435420156629E-003  3.960717710078312E-003
  0.000000000000000E+000
  0.170160190914584       0.262364463192608       0.335380965918969     
  0.393878489535517       0.440664836643888       0.477796161079592     
  0.506565114669372       0.527541769656083       0.540554292242529     
  0.545133451050893       0.281158489746294       0.440993944624873     
  0.567801004229995       0.669194115617364       0.750004812111153     
  0.813822938190831       0.862885301786700       0.898386357513774     
  0.920497237137852       0.930019741594208       0.364239977915654     
  0.591042740671243       0.776008716639248       0.924301678239795     
   1.04217044062196        1.13446317622132        1.20404146214177     
   1.25318942620429        1.28247164553405        1.29094708747834     
  0.397873044422418       0.665772374199370       0.898186452494573     
   1.09173631724869        1.24901368374981        1.37205386625724     
   1.46284794880396        1.52422403353572        1.55614396915891     
   1.55591705141851       0.388602698737191       0.645204551189642     
  0.877750911892340        1.09319826511251        1.28375919544177     
   1.43974543299276        1.55507796963628        1.63013454620431     
   1.66374293296363        1.64980099706584       0.381080361051824     
  0.605081083559461       0.799031207579860       0.981015029493390     
   1.15046370140461        1.29482700256588        1.40508170908079     
   1.48280837502641        1.52473021453317        1.51781404594914     
  0.435321879946434       0.664317626156165       0.842495881153170     
  0.993859085124490        1.12512781273364        1.23681418535731     
   1.32781116449913        1.39804138958865        1.44487063160639     
   1.46103085126816       0.529556993476252       0.795027063064290     
  0.992100240812786        1.15202053856495        1.28557019560904     
   1.39723392419839        1.48876214084604        1.56055373622999     
   1.61170173753375        1.63879319716046       0.650573868410823     
  0.968243121497934        1.19861287929993        1.38190663989546     
   1.53264693121629        1.65766536210454        1.76042505781823     
   1.84230768487925        1.90279202981622        1.93829708042400     
  0.794526585800702        1.17649259008355        1.44975004647948     
   1.66478977657272        1.84021161577583        1.98492512791585     
   2.10365621562706        2.19865607678163        2.26992937637430     
   2.31384926589373       0.958717605676843        1.41511906105521     
   1.73877147877246        1.99156303435581        2.19654285809525     
   2.36489963090720        2.50263928084962        2.61278234045010     
   2.69580047012430        2.74802497534161        1.13930631109284     
   1.67794856904454        2.05747350556351        2.35216467466069     
   2.58986155226677        2.78419600403637        2.94260638421650     
   3.06897017690920        3.16419291403382        3.22450219711710     
   1.33239034326067        1.95883372548863        2.39785220331125     
   2.73697801614935        3.00917948088125        3.23071091351294     
   3.41053671101604        3.55347320124836        3.66093652525063     
   3.72907159579296        1.53481066603606        2.25278404685835     
   2.75340850742046        3.13818162840138        3.44549546603460     
   3.69440343592484        3.89552068399839        4.05468740620100     
   4.17390757525117        4.24937185520172        1.74554439569333     
   2.55769047081085        3.12083686772083        3.55121833776646     
   3.89300709358985        4.16828342247737        4.38949060581637     
   4.56364035353672        4.69345870015001        4.77535010089329     
   1.96745838630620        2.87641541448223        3.50212277190228     
   3.97682421481764        4.35109326754643        4.65041761286982     
   4.88933103840889        5.07621847199376        5.21470572448363     
   5.30164085096306        2.20614309742589        3.21484456577328     
   3.90211189421396        4.41843493936683        4.82184195134041     
   5.14180351412562        5.39525636688411        5.59213606864416     
   5.73710189159013        5.82762093977671        2.45150392802075     
   3.55741630900609        4.30123286436618        4.85345683347171     
   5.28039454314000        5.61590093062610        5.87949608694615     
   6.08274798609734        6.23141525484352        6.32372881980294     
   2.65936304988392        3.83994648819648        4.62197754271478     
   5.19474188334243        5.63231245927027        5.97248663786758     
   6.23704506683844        6.43900514238530        6.58518155462625     
   6.67488306777216        2.78145762615378        3.99268123750303     
   4.78095862189689        5.34981056754370        5.77934924427730     
   6.11028847163333        6.36589339911953        6.55995131409710     
   6.69972516991663        6.78514260322641        2.75003352303238     
   3.91724242966423        4.65923097141998        5.18417421676398     
   5.57435007409243        5.87131538761212        6.09833029296626     
   6.26869692121692        6.38918690182099        6.46048105458770     
   2.55320524365656        3.58922203299554        4.22543247553028     
   4.66542734528734        4.98775512709368        5.23063170390953     
   5.41465265095902        5.55105639707307        5.64507691133022     
   5.69719887243780        2.20069107238933        3.02364551927208     
   3.50983738586311        3.84125093372186        4.08277172925192     
   4.26437552196917        4.40179101282552        4.50352712932924     
   4.57372974406356        4.61346495106449        1.68046193604268     
   2.23565767389060        2.55926685183677        2.78038124182595     
   2.94211012323852        3.06409283234329        3.15666972015108     
   3.22567435160431        3.27487183891685        3.30993633096316     
   1.02113231969000        1.33201166491964        1.51491877537882     
   1.64059330686105        1.73283229234956        1.80256013138297     
   1.85555762004793        1.89507355769400        1.92293329820420     
   1.93957982757791     
  0.000000000000000E+000  0.000000000000000E+000  0.000000000000000E+000
  0.000000000000000E+000  0.000000000000000E+000  0.000000000000000E+000
  0.000000000000000E+000  0.000000000000000E+000  0.000000000000000E+000
  0.000000000000000E+000  0.000000000000000E+000  0.000000000000000E+000
  0.000000000000000E+000  0.000000000000000E+000  0.000000000000000E+000
  0.000000000000000E+000  0.000000000000000E+000  0.000000000000000E+000
  0.000000000000000E+000  0.000000000000000E+000  0.000000000000000E+000
  0.000000000000000E+000  0.000000000000000E+000  0.000000000000000E+000
  0.000000000000000E+000  0.000000000000000E+000  0.000000000000000E+000
  0.000000000000000E+000  0.000000000000000E+000  0.000000000000000E+000
  0.000000000000000E+000  0.000000000000000E+000  0.000000000000000E+000
  0.000000000000000E+000  0.000000000000000E+000  0.000000000000000E+000
  0.000000000000000E+000  0.000000000000000E+000  0.000000000000000E+000
  0.000000000000000E+000  0.000000000000000E+000  0.000000000000000E+000
  0.000000000000000E+000  0.000000000000000E+000  0.000000000000000E+000
  0.000000000000000E+000  0.000000000000000E+000  0.000000000000000E+000
  0.000000000000000E+000  0.000000000000000E+000  0.000000000000000E+000
  0.000000000000000E+000  0.000000000000000E+000  0.000000000000000E+000
  0.000000000000000E+000  0.000000000000000E+000  0.000000000000000E+000
  0.000000000000000E+000  0.000000000000000E+000  0.000000000000000E+000
  0.000000000000000E+000  0.000000000000000E+000  0.000000000000000E+000
  0.000000000000000E+000  0.000000000000000E+000  0.000000000000000E+000
  0.000000000000000E+000  0.000000000000000E+000  0.000000000000000E+000
  0.000000000000000E+000  0.000000000000000E+000  0.000000000000000E+000
  0.000000000000000E+000  0.000000000000000E+000  0.000000000000000E+000
  0.000000000000000E+000  0.000000000000000E+000  0.000000000000000E+000
  0.000000000000000E+000  0.000000000000000E+000  0.000000000000000E+000
  0.000000000000000E+000  0.000000000000000E+000  0.000000000000000E+000
  0.000000000000000E+000  0.000000000000000E+000  0.000000000000000E+000
  0.000000000000000E+000  0.000000000000000E+000  0.000000000000000E+000
  0.000000000000000E+000  0.000000000000000E+000  0.000000000000000E+000
  0.000000000000000E+000  0.000000000000000E+000  0.000000000000000E+000
  0.000000000000000E+000  0.000000000000000E+000  0.000000000000000E+000
  0.000000000000000E+000  0.000000000000000E+000  0.000000000000000E+000
  0.000000000000000E+000  0.000000000000000E+000  0.000000000000000E+000
  0.000000000000000E+000  0.000000000000000E+000  0.000000000000000E+000
  0.000000000000000E+000  0.000000000000000E+000  0.000000000000000E+000
  0.000000000000000E+000  0.000000000000000E+000  0.000000000000000E+000
  0.000000000000000E+000  0.000000000000000E+000  0.000000000000000E+000