 Title = "Wing and Wake"
 VARIABLES = "X" "Y" "Z" "GAM" "skew"
 Zone I=   11 J=   26 K=1  T="Blade"
 DATAPACKING=BLOCK
 VARLOCATION=([4]=CELLCENTERED,[5]=CELLCENTERED)
  9.461881422802873E-002  0.102447519448564       0.110276224669099     
  0.118104929889633       0.125933635110168       0.133762340330703     
  0.141591045551238       0.149419750771772       0.157248455992307     
  0.165077161212842       0.172905866433377       9.802653234623039E-002
  0.105855237566765       0.113683942787300       0.121512648007835     
  0.129341353228370       0.137170058448905       0.144998763669439     
  0.152827468889974       0.160656174110509       0.168484879331044     
  0.176313584551579       0.108195944950439       0.116024650170974     
  0.123853355391509       0.131682060612044       0.139510765832578     
  0.147339471053113       0.155168176273648       0.162996881494183     
  0.170825586714718       0.178654291935252       0.186482997155787     
  0.124966674328974       0.132795379549509       0.140624084770044     
  0.148452789990579       0.156281495211114       0.164110200431648     
  0.171938905652183       0.179767610872718       0.187596316093253     
  0.195425021313788       0.203253726534322       0.148074236061188     
  0.155902941281723       0.163731646502257       0.171560351722792     
  0.179389056943327       0.187217762163862       0.195046467384397     
  0.202875172604932       0.210703877825466       0.218532583046001     
  0.226361288266536       0.177154210094775       0.184982915315310     
  0.192811620535844       0.200640325756379       0.208469030976914     
  0.216297736197449       0.224126441417983       0.231955146638518     
  0.239783851859053       0.247612557079588       0.255441262300123     
  0.211747987867691       0.219576693088226       0.227405398308760     
  0.235234103529295       0.243062808749830       0.250891513970365     
  0.258720219190899       0.266548924411434       0.274377629631969     
  0.282206334852504       0.290035040073038       0.251310004839136     
  0.259138710059670       0.266967415280206       0.274796120500740     
  0.282624825721275       0.290453530941810       0.298282236162345     
  0.306110941382879       0.313939646603414       0.321768351823949     
  0.329597057044484       0.295216344368267       0.303045049588802     
  0.310873754809336       0.318702460029871       0.326531165250406     
  0.334359870470941       0.342188575691476       0.350017280912011     
  0.357845986132546       0.365674691353080       0.373503396573615     
  0.342774577252334       0.350603282472868       0.358431987693403     
  0.366260692913938       0.374089398134473       0.381918103355008     
  0.389746808575542       0.397575513796077       0.405404219016612     
  0.413232924237147       0.421061629457682       0.393234681748843     
  0.401063386969378       0.408892092189913       0.416720797410448     
  0.424549502630983       0.432378207851518       0.440206913072052     
  0.448035618292587       0.455864323513122       0.463693028733657     
  0.471521733954191       0.445800871866481       0.453629577087015     
  0.461458282307550       0.469286987528085       0.477115692748620     
  0.484944397969154       0.492773103189689       0.500601808410225     
  0.508430513630759       0.516259218851294       0.524087924071829     
  0.499644147385570       0.507472852606105       0.515301557826639     
  0.523130263047174       0.530958968267709       0.538787673488244     
  0.546616378708778       0.554445083929313       0.562273789149848     
  0.570102494370383       0.577931199590918       0.553915367686762     
  0.561744072907297       0.569572778127832       0.577401483348366     
  0.585230188568901       0.593058893789436       0.600887599009972     
  0.608716304230505       0.616545009451041       0.624373714671576     
  0.632202419892110       0.607758643205852       0.615587348426387     
  0.623416053646921       0.631244758867456       0.639073464087991     
  0.646902169308526       0.654730874529060       0.662559579749595     
  0.670388284970130       0.678216990190665       0.686045695411200     
  0.660324833323489       0.668153538544023       0.675982243764558     
  0.683810948985093       0.691639654205628       0.699468359426163     
  0.707297064646697       0.715125769867233       0.722954475087767     
  0.730783180308301       0.738611885528837       0.710784937819999     
  0.718613643040533       0.726442348261068       0.734271053481603     
  0.742099758702137       0.749928463922673       0.757757169143207     
  0.765585874363742       0.773414579584277       0.781243284804812     
  0.789071990025347       0.758343170704066       0.766171875924600     
  0.774000581145135       0.781829286365669       0.789657991586204     
  0.797486696806739       0.805315402027274       0.813144107247809     
  0.820972812468344       0.828801517688879       0.836630222909412     
  0.802249510233196       0.810078215453731       0.817906920674266     
  0.825735625894800       0.833564331115336       0.841393036335870     
  0.849221741556404       0.857050446776940       0.864879151997474     
  0.872707857218010       0.880536562438544       0.841811527204641     
  0.849640232425177       0.857468937645710       0.865297642866246     
  0.873126348086780       0.880955053307315       0.888783758527850     
  0.896612463748386       0.904441168968920       0.912269874189455     
  0.920098579409989       0.876405304977558       0.884234010198092     
  0.892062715418626       0.899891420639161       0.907720125859696     
  0.915548831080231       0.923377536300766       0.931206241521301     
  0.939034946741835       0.946863651962370       0.954692357182906     
  0.905485279011144       0.913313984231679       0.921142689452213     
  0.928971394672748       0.936800099893283       0.944628805113819     
  0.952457510334353       0.960286215554887       0.968114920775422     
  0.975943625995957       0.983772331216492       0.928592840743358     
  0.936421545963892       0.944250251184427       0.952078956404962     
  0.959907661625497       0.967736366846032       0.975565072066566     
  0.983393777287101       0.991222482507636       0.999051187728171     
   1.00687989294871       0.945363570121894       0.953192275342428     
  0.961020980562962       0.968849685783498       0.976678391004032     
  0.984507096224567       0.992335801445101        1.00016450666564     
   1.00799321188617        1.01582191710671        1.02365062232724     
  0.955532982726101       0.963361687946635       0.971190393167170     
  0.979019098387705       0.986847803608240       0.994676508828775     
   1.00250521404931        1.01033391926985        1.01816262449038     
   1.02599132971091        1.03382003493145       0.958940700844302     
  0.966769406064837       0.974598111285372       0.982426816505908     
  0.990255521726441       0.998084226946976        1.00591293216751     
   1.01374163738805        1.02157034260858        1.02939904782912     
   1.03722775304965     
  0.249145678404822       0.232236314437155       0.215326950469487     
  0.198417586501820       0.181508222534153       0.164598858566486     
  0.147689494598818       0.130780130631151       0.113870766663484     
  9.696140269581666E-002  8.005203872814955E-002  0.250723385329404     
  0.233814021361737       0.216904657394070       0.199995293426403     
  0.183085929458735       0.166176565491068       0.149267201523401     
  0.132357837555734       0.115448473588067       9.853910962039954E-002
  8.162974565273211E-002  0.255431624722475       0.238522260754808     
  0.221612896787141       0.204703532819473       0.187794168851806     
  0.170884804884139       0.153975440916472       0.137066076948805     
  0.120156712981137       0.103247349013470       8.633798504580290E-002
  0.263196144836239       0.246286780868572       0.229377416900905     
  0.212468052933238       0.195558688965571       0.178649324997903     
  0.161739961030236       0.144830597062569       0.127921233094902     
  0.111011869127235       9.410250515956736E-002  0.273894494550204     
  0.256985130582537       0.240075766614869       0.223166402647202     
  0.206257038679535       0.189347674711868       0.172438310744200     
  0.155528946776533       0.138619582808866       0.121710218841199     
  0.104800854873532       0.287357954498494       0.270448590530827     
  0.253539226563160       0.236629862595493       0.219720498627826     
  0.202811134660158       0.185901770692491       0.168992406724824     
  0.152083042757157       0.135173678789489       0.118264314821822     
  0.303374197875045       0.286464833907379       0.269555469939711     
  0.252646105972044       0.235736742004377       0.218827378036710     
  0.201918014069042       0.185008650101375       0.168099286133708     
  0.151189922166041       0.134280558198374       0.321690638954170     
  0.304781274986502       0.287871911018835       0.270962547051168     
  0.254053183083501       0.237143819115834       0.220234455148167     
  0.203325091180499       0.186415727212832       0.169506363245165     
  0.152596999277498       0.342018416518337       0.325109052550670     
  0.308199688583003       0.291290324615336       0.274380960647668     
  0.257471596680001       0.240562232712334       0.223652868744667     
  0.206743504777000       0.189834140809332       0.172924776841665     
  0.364036949372135       0.347127585404468       0.330218221436800     
  0.313308857469133       0.296399493501466       0.279490129533799     
  0.262580765566131       0.245671401598464       0.228762037630797     
  0.211852673663130       0.194943309695463       0.387398992099225     
  0.370489628131558       0.353580264163890       0.336670900196223     
  0.319761536228556       0.302852172260889       0.285942808293222     
  0.269033444325554       0.252124080357887       0.235214716390220     
  0.218305352422553       0.411736111329993       0.394826747362326     
  0.377917383394658       0.361008019426991       0.344098655459324     
  0.327189291491657       0.310279927523990       0.293370563556323     
  0.276461199588655       0.259551835620988       0.242642471653321     
  0.436664496155880       0.419755132188212       0.402845768220544     
  0.385936404252878       0.369027040285210       0.352117676317544     
  0.335208312349876       0.318298948382209       0.301389584414542     
  0.284480220446875       0.267570856479207       0.461791011056685     
  0.444881647089018       0.427972283121351       0.411062919153683     
  0.394153555186016       0.377244191218349       0.360334827250682     
  0.343425463283015       0.326516099315348       0.309606735347680     
  0.292697371380013       0.486719395882572       0.469810031914905     
  0.452900667947237       0.435991303979571       0.419081940011903     
  0.402172576044236       0.385263212076569       0.368353848108901     
  0.351444484141234       0.334535120173567       0.317625756205900     
  0.511056515113340       0.494147151145672       0.477237787178006     
  0.460328423210339       0.443419059242671       0.426509695275004     
  0.409600331307337       0.392690967339670       0.375781603372003     
  0.358872239404335       0.341962875436668       0.534418557840430     
  0.517509193872763       0.500599829905096       0.483690465937429     
  0.466781101969761       0.449871738002094       0.432962374034426     
  0.416053010066760       0.399143646099093       0.382234282131425     
  0.365324918163758       0.556437090694228       0.539527726726560     
  0.522618362758893       0.505708998791226       0.488799634823559     
  0.471890270855892       0.454980906888224       0.438071542920557     
  0.421162178952890       0.404252814985222       0.387343451017556     
  0.576764868258394       0.559855504290728       0.542946140323061     
  0.526036776355393       0.509127412387726       0.492218048420059     
  0.475308684452391       0.458399320484725       0.441489956517057     
  0.424580592549390       0.407671228581723       0.595081309337519     
  0.578171945369852       0.561262581402184       0.544353217434517     
  0.527443853466850       0.510534489499183       0.493625125531516     
  0.476715761563849       0.459806397596181       0.442897033628514     
  0.425987669660847       0.611097552714071       0.594188188746403     
  0.577278824778736       0.560369460811069       0.543460096843401     
  0.526550732875735       0.509641368908067       0.492732004940400     
  0.475822640972733       0.458913277005065       0.442003913037398     
  0.624561012662361       0.607651648694694       0.590742284727026     
  0.573832920759360       0.556923556791693       0.540014192824025     
  0.523104828856358       0.506195464888691       0.489286100921024     
  0.472376736953356       0.455467372985689       0.635259362376325     
  0.618349998408658       0.601440634440991       0.584531270473323     
  0.567621906505657       0.550712542537989       0.533803178570322     
  0.516893814602655       0.499984450634987       0.483075086667321     
  0.466165722699653       0.643023882490090       0.626114518522424     
  0.609205154554755       0.592295790587088       0.575386426619421     
  0.558477062651753       0.541567698684086       0.524658334716419     
  0.507748970748752       0.490839606781085       0.473930242813417     
  0.647732121883160       0.630822757915493       0.613913393947827     
  0.597004029980158       0.580094666012492       0.563185302044824     
  0.546275938077157       0.529366574109489       0.512457210141823     
  0.495547846174155       0.478638482206488       0.649309828807743     
  0.632400464840076       0.615491100872409       0.598581736904742     
  0.581672372937074       0.564763008969407       0.547853645001739     
  0.530944281034072       0.514034917066406       0.497125553098738     
  0.480216189131071     
  3.960717710078315E-002  3.564645939070483E-002  3.168574168062652E-002
  2.772502397054821E-002  2.376430626046989E-002  1.980358855039158E-002
  1.584287084031326E-002  1.188215313023495E-002  7.921435420156629E-003
  3.960717710078312E-003  0.000000000000000E+000  3.960717710078315E-002
  3.564645939070483E-002  3.168574168062652E-002  2.772502397054821E-002
  2.376430626046989E-002  1.980358855039158E-002  1.584287084031326E-002
  1.188215313023495E-002  7.921435420156629E-003  3.960717710078312E-003
  0.000000000000000E+000  3.960717710078315E-002  3.564645939070483E-002
  3.168574168062652E-002  2.772502397054821E-002  2.376430626046989E-002
  1.980358855039158E-002  1.584287084031326E-002  1.188215313023495E-002
  7.921435420156629E-003  3.960717710078312E-003  0.000000000000000E+000
  3.960717710078315E-002  3.564645939070483E-002  3.168574168062652E-002
  2.772502397054821E-002  2.376430626046989E-002  1.980358855039158E-002
  1.584287084031326E-002  1.188215313023495E-002  7.921435420156629E-003
  3.960717710078312E-003  0.000000000000000E+000  3.960717710078315E-002
  3.564645939070483E-002  3.168574168062652E-002  2.772502397054821E-002
  2.376430626046989E-002  1.980358855039158E-002  1.584287084031326E-002
  1.188215313023495E-002  7.921435420156629E-003  3.960717710078312E-003
  0.000000000000000E+000  3.960717710078315E-002  3.564645939070483E-002
  3.168574168062652E-002  2.772502397054821E-002  2.376430626046989E-002
  1.980358855039158E-002  1.584287084031326E-002  1.188215313023495E-002
  7.921435420156629E-003  3.960717710078312E-003  0.000000000000000E+000
  3.960717710078315E-002  3.564645939070483E-002  3.168574168062652E-002
  2.772502397054821E-002  2.376430626046989E-002  1.980358855039158E-002
  1.584287084031326E-002  1.188215313023495E-002  7.921435420156629E-003
  3.960717710078312E-003  0.000000000000000E+000  3.960717710078315E-002
  3.564645939070483E-002  3.168574168062652E-002  2.772502397054821E-002
  2.376430626046989E-002  1.980358855039158E-002  1.584287084031326E-002
  1.188215313023495E-002  7.921435420156629E-003  3.960717710078312E-003
  0.000000000000000E+000  3.960717710078315E-002  3.564645939070483E-002
  3.168574168062652E-002  2.772502397054821E-002  2.376430626046989E-002
  1.980358855039158E-002  1.584287084031326E-002  1.188215313023495E-002
  7.921435420156629E-003  3.960717710078312E-003  0.000000000000000E+000
  3.960717710078315E-002  3.564645939070483E-002  3.168574168062652E-002
  2.772502397054821E-002  2.376430626046989E-002  1.980358855039158E-002
  1.584287084031326E-002  1.188215313023495E-002  7.921435420156629E-003
  3.960717710078312E-003  0.000000000000000E+000  3.960717710078315E-002
  3.564645939070483E-002  3.168574168062652E-002  2.772502397054821E-002
  2.376430626046989E-002  1.980358855039158E-002  1.584287084031326E-002
  1.188215313023495E-002  7.921435420156629E-003  3.960717710078312E-003
  0.000000000000000E+000  3.960717710078315E-002  3.564645939070483E-002
  3.168574168062652E-002  2.772502397054821E-002  2.376430626046989E-002
  1.980358855039158E-002  1.584287084031326E-002  1.188215313023495E-002
  7.921435420156629E-003  3.960717710078312E-003  0.000000000000000E+000
  3.960717710078315E-002  3.564645939070483E-002  3.168574168062652E-002
  2.772502397054821E-002  2.376430626046989E-002  1.980358855039158E-002
  1.584287084031326E-002  1.188215313023495E-002  7.921435420156629E-003
  3.960717710078312E-003  0.000000000000000E+000  3.960717710078315E-002
  3.564645939070483E-002  3.168574168062652E-002  2.772502397054821E-002
  2.376430626046989E-002  1.980358855039158E-002  1.584287084031326E-002
  1.188215313023495E-002  7.921435420156629E-003  3.960717710078312E-003
  0.000000000000000E+000  3.960717710078315E-002  3.564645939070483E-002
  3.168574168062652E-002  2.772502397054821E-002  2.376430626046989E-002
  1.980358855039158E-002  1.584287084031326E-002  1.188215313023495E-002
  7.921435420156629E-003  3.960717710078312E-003  0.000000000000000E+000
  3.960717710078315E-002  3.564645939070483E-002  3.168574168062652E-002
  2.772502397054821E-002  2.376430626046989E-002  1.980358855039158E-002
  1.584287084031326E-002  1.188215313023495E-002  7.921435420156629E-003
  3.960717710078312E-003  0.000000000000000E+000  3.960717710078315E-002
  3.564645939070483E-002  3.168574168062652E-002  2.772502397054821E-002
  2.376430626046989E-002  1.980358855039158E-002  1.584287084031326E-002
  1.188215313023495E-002  7.921435420156629E-003  3.960717710078312E-003
  0.000000000000000E+000  3.960717710078315E-002  3.564645939070483E-002
  3.168574168062652E-002  2.772502397054821E-002  2.376430626046989E-002
  1.980358855039158E-002  1.584287084031326E-002  1.188215313023495E-002
  7.921435420156629E-003  3.960717710078312E-003  0.000000000000000E+000
  3.960717710078315E-002  3.564645939070483E-002  3.168574168062652E-002
  2.772502397054821E-002  2.376430626046989E-002  1.980358855039158E-002
  1.584287084031326E-002  1.188215313023495E-002  7.921435420156629E-003
  3.960717710078312E-003  0.000000000000000E+000  3.960717710078315E-002
  3.564645939070483E-002  3.168574168062652E-002  2.772502397054821E-002
  2.376430626046989E-002  1.980358855039158E-002  1.584287084031326E-002
  1.188215313023495E-002  7.921435420156629E-003  3.960717710078312E-003
  0.000000000000000E+000  3.960717710078315E-002  3.564645939070483E-002
  3.168574168062652E-002  2.772502397054821E-002  2.376430626046989E-002
  1.980358855039158E-002  1.584287084031326E-002  1.188215313023495E-002
  7.921435420156629E-003  3.960717710078312E-003  0.000000000000000E+000
  3.960717710078315E-002  3.564645939070483E-002  3.168574168062652E-002
  2.772502397054821E-002  2.376430626046989E-002  1.980358855039158E-002
  1.584287084031326E-002  1.188215313023495E-002  7.921435420156629E-003
  3.960717710078312E-003  0.000000000000000E+000  3.960717710078315E-002
  3.564645939070483E-002  3.168574168062652E-002  2.772502397054821E-002
  2.376430626046989E-002  1.980358855039158E-002  1.584287084031326E-002
  1.188215313023495E-002  7.921435420156629E-003  3.960717710078312E-003
  0.000000000000000E+000  3.960717710078315E-002  3.564645939070483E-002
  3.168574168062652E-002  2.772502397054821E-002  2.376430626046989E-002
  1.980358855039158E-002  1.584287084031326E-002  1.188215313023495E-002
  7.921435420156629E-003  3.960717710078312E-003  0.000000000000000E+000
  3.960717710078315E-002  3.564645939070483E-002  3.168574168062652E-002
  2.772502397054821E-002  2.376430626046989E-002  1.980358855039158E-002
  1.584287084031326E-002  1.188215313023495E-002  7.921435420156629E-003
  3.960717710078312E-003  0.000000000000000E+000  3.960717710078315E-002
  3.564645939070483E-002  3.168574168062652E-002  2.772502397054821E-002
  2.376430626046989E-002  1.980358855039158E-002  1.584287084031326E-002
  1.188215313023495E-002  7.921435420156629E-003  3.960717710078312E-003
  0.000000000000000E+000
  0.176609081001977       0.251688253719455       0.309491130114124     
  0.358525339090503       0.399930280532272       0.433442362604432     
  0.460569815389689       0.483426395196103       0.502687050636513     
  0.518485648153607       0.291305692393070       0.421808763520727     
  0.520836087748266       0.604167512134574       0.674295645661834     
  0.731311434471937       0.777817365138308       0.817007100088814     
  0.850317404153859       0.879516092089094       0.383468341563165     
  0.569172531536809       0.708595413145049       0.824318919487202     
  0.921373970593165        1.00129667850361        1.06724818594541     
   1.12258573921793        1.16909966757101        1.20687074979465     
  0.448983862567286       0.676439430284003       0.847889496393851     
  0.989239818089915        1.10808949594562        1.20740178283370     
   1.28982850392050        1.35791492960377        1.41292431774120     
   1.45374474840959       0.495536087682304       0.750873355268576     
  0.944246341273438        1.10362791196129        1.23820535073332     
   1.35179172407069        1.44642826522921        1.52352442044227     
   1.58373878990606        1.62524343448701       0.535168582367874     
  0.810874965617989        1.01942922772972        1.19104579498267     
   1.33596897865892        1.45856790456448        1.56082664750876     
   1.64356318276458        1.70677382040629        1.74825540408676     
  0.582283972095669       0.878521810874436        1.10052506948114     
   1.28195360772926        1.43448993494026        1.56330265181095     
   1.67083218415855        1.75806472405496        1.82472340553639     
   1.86783048481481       0.649414689826199       0.973961713438867     
   1.21384983675741        1.40787012581235        1.56985595670894     
   1.70616732911939        1.81999586121257        1.91268860806536     
   1.98381680864884        2.02977621813214       0.744040208166011     
   1.10950905585374        1.37593725961386        1.58911548642154     
   1.76568520757341        1.91350089118767        2.03659165101015     
   2.13674139509497        2.21367164595646        2.26343591148958     
  0.867584993846045        1.28772834100220        1.59037560425656     
   1.83016323855041        2.02719699187005        2.19109941398683     
   2.32690120638570        2.43694251510025        2.52119443824331     
   2.57554418762174        1.01720132140964        1.50439031263618     
   1.85191790876745        2.12492625744528        2.34758765324665     
   2.53157398137260        2.68308702765477        2.80517636393767     
   2.89818497947439        2.95793872977039        1.18874476324092     
   1.75326125538661        2.15276502187837        2.46429874576860     
   2.71664624443716        2.92383497442653        3.09344440331186     
   3.22936838284226        3.33240145471094        3.39833313873527     
   1.37891624875020        2.02914431202554        2.48617504937792     
   2.84024019460049        3.12525030501068        3.35787597135791     
   3.54725432353407        3.69823039781772        3.81212521153694     
   3.88472701312195        1.58520600724305        2.32787438011774     
   2.84652882074983        3.24580551351328        3.56524336606478     
   3.82443451758052        4.03425728324911        4.20064569762480     
   4.32554954295625        4.40484621788452        1.80512692412418     
   2.64505654004930        3.22761860589284        3.67305970959755     
   4.02707635113865        4.31249621857373        4.54215613388651     
   4.72324368701473        4.85847486453429        4.94395444597091     
   2.03316303477898        2.97170030708470        3.61749918655666     
   4.10746545632018        4.49395243323565        4.80331976358750     
   5.05056514277319        5.24429026974174        5.38811996171564     
   5.47857214634264        2.25458445884711        3.28569284729166     
   3.98865999190409        4.51723171537910        4.93058803163839     
   5.25875326541288        5.51898714403036        5.72139436636987     
   5.87062203084087        5.96383465199835        2.44163025978236     
   3.54641716572629        4.29161761123666        4.84614203838411     
   5.27546120676083        5.61303316672822        5.87826050801762     
   6.08269542205670        6.23204152697092        6.32439867131344     
   2.56143441279272        3.70542512921191        4.46700983345591     
   5.02651955948438        5.45441551634956        5.78694142415981     
   6.04522763144985        6.24199151674989        6.38388276201844     
   6.47025500843096        2.58909727216256        3.72466428009654     
   4.46719931406044        5.00360888781307        5.40757967798524     
   5.71709646323919        5.95420859685332        6.13213783608190     
   6.25804188383698        6.33267645645760        2.51111273932700     
   3.58164129490453        4.26357748890930        4.74552504871116     
   5.10211687615603        5.37133788675939        5.57471611747382     
   5.72478304967699        5.82823282452136        5.88674603403509     
   2.31852921673501        3.26043607648885        3.83862958248238     
   4.23743207868446        4.52798124039196        4.74501469047901     
   4.90742070248359        5.02570707505522        5.10510026023347     
   5.14699482569646        1.99841417963016        2.74452747891155     
   3.18425427021666        3.48276741812538        3.69890584066429     
   3.85990220947428        3.98015143943587        4.06759570326945     
   4.12637543509254        4.15823959603510        1.52789125153241     
   2.03068941417143        2.32265838539302        2.52115672476719     
   2.66530743877774        2.77295430092801        2.85355603830731     
   2.91254872738705        2.95359739912998        2.98235686118848     
  0.929049422256331        1.21043992210528        1.37530896522999     
   1.48798861931314        1.57007898882608        1.63150618472518     
   1.67755801832755        1.71126289598588        1.73441906673068     
   1.74772679191270     
  0.000000000000000E+000  0.000000000000000E+000  0.000000000000000E+000
  0.000000000000000E+000  0.000000000000000E+000  0.000000000000000E+000
  0.000000000000000E+000  0.000000000000000E+000  0.000000000000000E+000
  0.000000000000000E+000  0.000000000000000E+000  0.000000000000000E+000
  0.000000000000000E+000  0.000000000000000E+000  0.000000000000000E+000
  0.000000000000000E+000  0.000000000000000E+000  0.000000000000000E+000
  0.000000000000000E+000  0.000000000000000E+000  0.000000000000000E+000
  0.000000000000000E+000  0.000000000000000E+000  0.000000000000000E+000
  0.000000000000000E+000  0.000000000000000E+000  0.000000000000000E+000
  0.000000000000000E+000  0.000000000000000E+000  0.000000000000000E+000
  0.000000000000000E+000  0.000000000000000E+000  0.000000000000000E+000
  0.000000000000000E+000  0.000000000000000E+000  0.000000000000000E+000
  0.000000000000000E+000  0.000000000000000E+000  0.000000000000000E+000
  0.000000000000000E+000  0.000000000000000E+000  0.000000000000000E+000
  0.000000000000000E+000  0.000000000000000E+000  0.000000000000000E+000
  0.000000000000000E+000  0.000000000000000E+000  0.000000000000000E+000
  0.000000000000000E+000  0.000000000000000E+000  0.000000000000000E+000
  0.000000000000000E+000  0.000000000000000E+000  0.000000000000000E+000
  0.000000000000000E+000  0.000000000000000E+000  0.000000000000000E+000
  0.000000000000000E+000  0.000000000000000E+000  0.000000000000000E+000
  0.000000000000000E+000  0.000000000000000E+000  0.000000000000000E+000
  0.000000000000000E+000  0.000000000000000E+000  0.000000000000000E+000
  0.000000000000000E+000  0.000000000000000E+000  0.000000000000000E+000
  0.000000000000000E+000  0.000000000000000E+000  0.000000000000000E+000
  0.000000000000000E+000  0.000000000000000E+000  0.000000000000000E+000
  0.000000000000000E+000  0.000000000000000E+000  0.000000000000000E+000
  0.000000000000000E+000  0.000000000000000E+000  0.000000000000000E+000
  0.000000000000000E+000  0.000000000000000E+000  0.000000000000000E+000
  0.000000000000000E+000  0.000000000000000E+000  0.000000000000000E+000
  0.000000000000000E+000  0.000000000000000E+000  0.000000000000000E+000
  0.000000000000000E+000  0.000000000000000E+000  0.000000000000000E+000
  0.000000000000000E+000  0.000000000000000E+000  0.000000000000000E+000
  0.000000000000000E+000  0.000000000000000E+000  0.000000000000000E+000
  0.000000000000000E+000  0.000000000000000E+000  0.000000000000000E+000
  0.000000000000000E+000  0.000000000000000E+000  0.000000000000000E+000
  0.000000000000000E+000  0.000000000000000E+000  0.000000000000000E+000
  0.000000000000000E+000  0.000000000000000E+000  0.000000000000000E+000
  0.000000000000000E+000  0.000000000000000E+000  0.000000000000000E+000
  0.000000000000000E+000  0.000000000000000E+000  0.000000000000000E+000