 Title = "Wing and Wake"
 VARIABLES = "X" "Y" "Z" "GAM" "skew"
 Zone I=   11 J=   26 K=1  T="Blade"
 DATAPACKING=BLOCK
 VARLOCATION=([4]=CELLCENTERED,[5]=CELLCENTERED)
 -0.226735616957769      -0.222652883560644      -0.218570150163520     
 -0.214487416766396      -0.210404683369272      -0.206321949972147     
 -0.202239216575023      -0.198156483177899      -0.194073749780774     
 -0.189991016383650      -0.185908282986526      -0.230399593416896     
 -0.226316860019772      -0.222234126622648      -0.218151393225524     
 -0.214068659828399      -0.209985926431275      -0.205903193034151     
 -0.201820459637026      -0.197737726239902      -0.193654992842778     
 -0.189572259445653      -0.241333739696765      -0.237251006299641     
 -0.233168272902516      -0.229085539505392      -0.225002806108268     
 -0.220920072711144      -0.216837339314019      -0.212754605916895     
 -0.208671872519771      -0.204589139122646      -0.200506405725522     
 -0.259365617778799      -0.255282884381675      -0.251200150984551     
 -0.247117417587426      -0.243034684190302      -0.238951950793178     
 -0.234869217396054      -0.230786483998929      -0.226703750601805     
 -0.222621017204681      -0.218538283807556      -0.284210854173923     
 -0.280128120776799      -0.276045387379674      -0.271962653982550     
 -0.267879920585426      -0.263797187188302      -0.259714453791177     
 -0.255631720394053      -0.251548986996929      -0.247466253599805     
 -0.243383520202680      -0.315477624662361      -0.311394891265237     
 -0.307312157868112      -0.303229424470988      -0.299146691073864     
 -0.295063957676740      -0.290981224279615      -0.286898490882491     
 -0.282815757485367      -0.278733024088242      -0.274650290691118     
 -0.352672833595646      -0.348590100198522      -0.344507366801398     
 -0.340424633404274      -0.336341900007150      -0.332259166610026     
 -0.328176433212901      -0.324093699815777      -0.320010966418652     
 -0.315928233021528      -0.311845499624403      -0.395209890309562     
 -0.391127156912437      -0.387044423515313      -0.382961690118188     
 -0.378878956721064      -0.374796223323940      -0.370713489926816     
 -0.366630756529691      -0.362548023132567      -0.358465289735443     
 -0.354382556338319      -0.442417960009321      -0.438335226612197     
 -0.434252493215072      -0.430169759817948      -0.426087026420824     
 -0.422004293023700      -0.417921559626575      -0.413838826229451     
 -0.409756092832327      -0.405673359435203      -0.401590626038078     
 -0.493552543235026      -0.489469809837902      -0.485387076440778     
 -0.481304343043653      -0.477221609646529      -0.473138876249405     
 -0.469056142852280      -0.464973409455156      -0.460890676058032     
 -0.456807942660908      -0.452725209263783      -0.547807217062889     
 -0.543724483665765      -0.539641750268640      -0.535559016871516     
 -0.531476283474392      -0.527393550077268      -0.523310816680143     
 -0.519228083283019      -0.515145349885894      -0.511062616488770     
 -0.506979883091646      -0.604326352876471      -0.600243619479347     
 -0.596160886082223      -0.592078152685098      -0.587995419287974     
 -0.583912685890850      -0.579829952493725      -0.575747219096602     
 -0.571664485699477      -0.567581752302353      -0.563499018905229     
 -0.662218610141099      -0.658135876743974      -0.654053143346849     
 -0.649970409949725      -0.645887676552602      -0.641804943155477     
 -0.637722209758352      -0.633639476361229      -0.629556742964104     
 -0.625474009566980      -0.621391276169856      -0.720570993376550     
 -0.716488259979425      -0.712405526582301      -0.708322793185176     
 -0.704240059788052      -0.700157326390928      -0.696074592993805     
 -0.691991859596679      -0.687909126199555      -0.683826392802431     
 -0.679743659405306      -0.778463250641177      -0.774380517244053     
 -0.770297783846929      -0.766215050449804      -0.762132317052680     
 -0.758049583655556      -0.753966850258431      -0.749884116861306     
 -0.745801383464183      -0.741718650067058      -0.737635916669935     
 -0.834982386454760      -0.830899653057635      -0.826816919660511     
 -0.822734186263387      -0.818651452866262      -0.814568719469138     
 -0.810485986072014      -0.806403252674890      -0.802320519277765     
 -0.798237785880640      -0.794155052483517      -0.889237060282622     
 -0.885154326885498      -0.881071593488373      -0.876988860091250     
 -0.872906126694124      -0.868823393297001      -0.864740659899875     
 -0.860657926502752      -0.856575193105628      -0.852492459708504     
 -0.848409726311379      -0.940371643508328      -0.936288910111202     
 -0.932206176714079      -0.928123443316954      -0.924040709919830     
 -0.919957976522706      -0.915875243125581      -0.911792509728457     
 -0.907709776331333      -0.903627042934208      -0.899544309537083     
 -0.987579713208086      -0.983496979810962      -0.979414246413838     
 -0.975331513016713      -0.971248779619590      -0.967166046222465     
 -0.963083312825340      -0.959000579428217      -0.954917846031092     
 -0.950835112633968      -0.946752379236844       -1.03011676992200     
  -1.02603403652488       -1.02195130312775       -1.01786856973063     
  -1.01378583633350       -1.00970310293638       -1.00562036953926     
  -1.00153763614213      -0.997454902745007      -0.993372169347883     
 -0.989289435950758       -1.06731197885529       -1.06322924545816     
  -1.05914651206104       -1.05506377866391       -1.05098104526679     
  -1.04689831186967       -1.04281557847254       -1.03873284507542     
  -1.03465011167829       -1.03056737828117       -1.02648464488404     
  -1.09857874934372       -1.09449601594660       -1.09041328254948     
  -1.08633054915235       -1.08224781575523       -1.07816508235810     
  -1.07408234896098       -1.06999961556385       -1.06591688216673     
  -1.06183414876961       -1.05775141537248       -1.12342398573885     
  -1.11934125234172       -1.11525851894460       -1.11117578554748     
  -1.10709305215035       -1.10301031875323       -1.09892758535610     
  -1.09484485195898       -1.09076211856185       -1.08667938516473     
  -1.08259665176761       -1.14145586382088       -1.13737313042376     
  -1.13329039702663       -1.12920766362951       -1.12512493023239     
  -1.12104219683526       -1.11695946343814       -1.11287673004101     
  -1.10879399664389       -1.10471126324676       -1.10062852984964     
  -1.15239001010075       -1.14830727670363       -1.14422454330650     
  -1.14014180990938       -1.13605907651225       -1.13197634311513     
  -1.12789360971801       -1.12381087632088       -1.11972814292376     
  -1.11564540952663       -1.11156267612951       -1.15605398655988     
  -1.15197125316275       -1.14788851976563       -1.14380578636851     
  -1.13972305297138       -1.13564031957426       -1.13155758617713     
  -1.12747485278001       -1.12339211938289       -1.11930938598576     
  -1.11522665258864     
 -0.140061590296901      -0.121880652388502      -0.103699714480102     
 -8.551877657170288E-002 -6.733783866330321E-002 -4.915690075490387E-002
 -3.097596284650444E-002 -1.279502493810481E-002  5.385912970294475E-003
  2.356685087869401E-002  4.174778878709355E-002 -0.139238803313560     
 -0.121057865405161      -0.102876927496761      -8.469598958836209E-002
 -6.651505167996258E-002 -4.833411377156316E-002 -3.015317586316370E-002
 -1.197223795476413E-002  6.208699953635298E-003  2.438963786203474E-002
  4.257057577043430E-002 -0.136783418205775      -0.118602480297375     
 -0.100421542388976      -8.224060448057617E-002 -6.405966657217685E-002
 -4.587872866377739E-002 -2.769779075537779E-002 -9.516852846978410E-003
  8.664085061421078E-003  2.684502296982064E-002  4.502596087822006E-002
 -0.132734157863470      -0.114553219955070      -9.637228204667050E-002
 -7.819134413827122E-002 -6.001040622987176E-002 -4.182946832147216E-002
 -2.364853041307265E-002 -5.467592504673198E-003  1.271334540372626E-002
  3.089428331212581E-002  4.907522122052508E-002 -0.127154881541154     
 -0.108973943632755      -9.079300572435500E-002 -7.261206781595572E-002
 -5.443112990755609E-002 -3.625019199915671E-002 -1.806925409075720E-002
  1.116838176422573E-004  1.829262172604170E-002  3.647355963444110E-002
  5.465449754284057E-002 -0.120133577759329      -0.101952639850930     
 -8.377170194253039E-002 -6.559076403413097E-002 -4.740982612573148E-002
 -2.922888821733173E-002 -1.104795030893263E-002  7.132987599466901E-003
  2.531392550786663E-002  4.349486341626612E-002  6.167580132466548E-002
 -0.111780976672958      -9.360003876455880E-002 -7.541910085615945E-002
 -5.723816294775980E-002 -3.905722503936035E-002 -2.087628713096104E-002
 -2.695349222561575E-003  1.548558868583791E-002  3.366652659423721E-002
  5.184746450263685E-002  7.002840241103617E-002 -0.102228803790775     
 -8.404786588237549E-002 -6.586692797397616E-002 -4.768599006557666E-002
 -2.950505215717736E-002 -1.132411424877786E-002  6.856823659621671E-003
  2.503776156802116E-002  4.321869947642072E-002  6.139963738481990E-002
  7.958057529321975E-002 -9.162770258532307E-002 -7.344676467692364E-002
 -5.526582676852427E-002 -3.708488886012504E-002 -1.890395095172542E-002
 -7.230130433258386E-004  1.745792486507367E-002  3.563886277347300E-002
  5.381980068187271E-002  7.200073859027198E-002  9.018167649867123E-002
 -8.014485875540359E-002 -6.196392084700431E-002 -4.378298293860448E-002
 -2.560204503020485E-002 -7.421107121805338E-003  1.075983078659370E-002
  2.894076869499324E-002  4.712170660339275E-002  6.530264451179241E-002
  8.348358242019205E-002  0.101664520328591      -6.796136360773207E-002
 -4.978042569933272E-002 -3.159948779093326E-002 -1.341854988253400E-002
  4.762388025865465E-003  2.294332593426526E-002  4.112426384266462E-002
  5.930520175106423E-002  7.748613965946327E-002  9.566707756786307E-002
  0.113848015476262      -5.526935813885515E-002 -3.708842023045607E-002
 -1.890748232205626E-002 -7.265444136568770E-004  1.745439349474255E-002
  3.563533140314221E-002  5.381626931154113E-002  7.199720721994118E-002
  9.017814512834035E-002  0.108359083036740       0.126540020945139     
 -4.226900285685381E-002 -2.408806494845414E-002 -5.907127040054459E-003
  1.227381086834457E-002  3.045474877674462E-002  4.863568668514330E-002
  6.681662459354365E-002  8.499756250194239E-002  0.103178500410342     
  0.121359438318741       0.139540376227141      -2.916532113056031E-002
 -1.098438322216050E-002  7.196554686238588E-003  2.537749259463841E-002
  4.355843050303784E-002  6.173936841143765E-002  7.992030631983713E-002
  9.810124422823598E-002  0.116282182136636       0.134463120045035     
  0.152644057953435      -1.616496584855835E-002  2.015972059841003E-003
  2.019690996824063E-002  3.837784787663931E-002  5.655878578503993E-002
  7.473972369343879E-002  9.292066160183809E-002  0.111101599510238     
  0.129282537418637       0.147463475327037       0.165644413235437     
 -3.472960379681478E-003  1.470797752871802E-002  3.288891543711723E-002
  5.106985334551632E-002  6.925079125391631E-002  8.743172916231608E-002
  0.105612667070715       0.123793604979115       0.141974542887514     
  0.160155480795914       0.178336418704313       8.710534767989999E-003
  2.689147267638949E-002  4.507241058478860E-002  6.325334849318801E-002
  8.143428640158761E-002  9.961522430998722E-002  0.117796162218387     
  0.135977100126786       0.154158038035186       0.172338975943586     
  0.190519913851984       2.019337859790981E-002  3.837431650630926E-002
  5.655525441470863E-002  7.473619232310745E-002  9.291713023150758E-002
  0.111098068139907       0.129279006048306       0.147459943956706     
  0.165640881865105       0.183821819773505       0.202002757681904     
  3.079447980336205E-002  4.897541771176078E-002  6.715635562016012E-002
  8.533729352855958E-002  0.103518231436959       0.121699169345359     
  0.139880107253758       0.158061045162157       0.176241983070557     
  0.194422920978957       0.212603858887356       4.034665268554445E-002
  5.852759059394418E-002  7.670852850234319E-002  9.488946641074350E-002
  0.113070404319142       0.131251342227542       0.149432280135941     
  0.167613218044341       0.185794155952741       0.203975093861140     
  0.222156031769539       4.869925377191551E-002  6.688019168031555E-002
  8.506112958871417E-002  0.103242067497113       0.121423005405513     
  0.139603943313913       0.157784881222313       0.175965819130712     
  0.194146757039111       0.212327694947511       0.230508632855911     
  5.572055755374039E-002  7.390149546213928E-002  9.208243337053944E-002
  0.110263371278939       0.128444309187338       0.146625247095738     
  0.164806185004137       0.182987122912536       0.201168060820936     
  0.219348998729335       0.237529936637736       6.129983387605612E-002
  7.948077178445517E-002  9.766170969285461E-002  0.115842647601254     
  0.134023585509654       0.152204523418053       0.170385461326453     
  0.188566399234852       0.206747337143252       0.224928275051651     
  0.243109212960051       6.534909421836133E-002  8.353003212675975E-002
  0.101710970035160       0.119891907943559       0.138072845851959     
  0.156253783760359       0.174434721668757       0.192615659577158     
  0.210796597485557       0.228977535393956       0.247158473302356     
  6.780447932614685E-002  8.598541723454563E-002  0.104166355142944     
  0.122347293051345       0.140528230959744       0.158709168868144     
  0.176890106776544       0.195071044684944       0.213251982593343     
  0.231432920501741       0.249613858410142       6.862726630948718E-002
  8.680820421788683E-002  0.104989142126286       0.123170080034686     
  0.141351017943085       0.159531955851484       0.177712893759885     
  0.195893831668284       0.214074769576683       0.232255707485083     
  0.250436645393483     
  3.960717710078315E-002  3.564645939070483E-002  3.168574168062652E-002
  2.772502397054821E-002  2.376430626046989E-002  1.980358855039158E-002
  1.584287084031326E-002  1.188215313023495E-002  7.921435420156629E-003
  3.960717710078312E-003  0.000000000000000E+000  3.960717710078315E-002
  3.564645939070483E-002  3.168574168062652E-002  2.772502397054821E-002
  2.376430626046989E-002  1.980358855039158E-002  1.584287084031326E-002
  1.188215313023495E-002  7.921435420156629E-003  3.960717710078312E-003
  0.000000000000000E+000  3.960717710078315E-002  3.564645939070483E-002
  3.168574168062652E-002  2.772502397054821E-002  2.376430626046989E-002
  1.980358855039158E-002  1.584287084031326E-002  1.188215313023495E-002
  7.921435420156629E-003  3.960717710078312E-003  0.000000000000000E+000
  3.960717710078315E-002  3.564645939070483E-002  3.168574168062652E-002
  2.772502397054821E-002  2.376430626046989E-002  1.980358855039158E-002
  1.584287084031326E-002  1.188215313023495E-002  7.921435420156629E-003
  3.960717710078312E-003  0.000000000000000E+000  3.960717710078315E-002
  3.564645939070483E-002  3.168574168062652E-002  2.772502397054821E-002
  2.376430626046989E-002  1.980358855039158E-002  1.584287084031326E-002
  1.188215313023495E-002  7.921435420156629E-003  3.960717710078312E-003
  0.000000000000000E+000  3.960717710078315E-002  3.564645939070483E-002
  3.168574168062652E-002  2.772502397054821E-002  2.376430626046989E-002
  1.980358855039158E-002  1.584287084031326E-002  1.188215313023495E-002
  7.921435420156629E-003  3.960717710078312E-003  0.000000000000000E+000
  3.960717710078315E-002  3.564645939070483E-002  3.168574168062652E-002
  2.772502397054821E-002  2.376430626046989E-002  1.980358855039158E-002
  1.584287084031326E-002  1.188215313023495E-002  7.921435420156629E-003
  3.960717710078312E-003  0.000000000000000E+000  3.960717710078315E-002
  3.564645939070483E-002  3.168574168062652E-002  2.772502397054821E-002
  2.376430626046989E-002  1.980358855039158E-002  1.584287084031326E-002
  1.188215313023495E-002  7.921435420156629E-003  3.960717710078312E-003
  0.000000000000000E+000  3.960717710078315E-002  3.564645939070483E-002
  3.168574168062652E-002  2.772502397054821E-002  2.376430626046989E-002
  1.980358855039158E-002  1.584287084031326E-002  1.188215313023495E-002
  7.921435420156629E-003  3.960717710078312E-003  0.000000000000000E+000
  3.960717710078315E-002  3.564645939070483E-002  3.168574168062652E-002
  2.772502397054821E-002  2.376430626046989E-002  1.980358855039158E-002
  1.584287084031326E-002  1.188215313023495E-002  7.921435420156629E-003
  3.960717710078312E-003  0.000000000000000E+000  3.960717710078315E-002
  3.564645939070483E-002  3.168574168062652E-002  2.772502397054821E-002
  2.376430626046989E-002  1.980358855039158E-002  1.584287084031326E-002
  1.188215313023495E-002  7.921435420156629E-003  3.960717710078312E-003
  0.000000000000000E+000  3.960717710078315E-002  3.564645939070483E-002
  3.168574168062652E-002  2.772502397054821E-002  2.376430626046989E-002
  1.980358855039158E-002  1.584287084031326E-002  1.188215313023495E-002
  7.921435420156629E-003  3.960717710078312E-003  0.000000000000000E+000
  3.960717710078315E-002  3.564645939070483E-002  3.168574168062652E-002
  2.772502397054821E-002  2.376430626046989E-002  1.980358855039158E-002
  1.584287084031326E-002  1.188215313023495E-002  7.921435420156629E-003
  3.960717710078312E-003  0.000000000000000E+000  3.960717710078315E-002
  3.564645939070483E-002  3.168574168062652E-002  2.772502397054821E-002
  2.376430626046989E-002  1.980358855039158E-002  1.584287084031326E-002
  1.188215313023495E-002  7.921435420156629E-003  3.960717710078312E-003
  0.000000000000000E+000  3.960717710078315E-002  3.564645939070483E-002
  3.168574168062652E-002  2.772502397054821E-002  2.376430626046989E-002
  1.980358855039158E-002  1.584287084031326E-002  1.188215313023495E-002
  7.921435420156629E-003  3.960717710078312E-003  0.000000000000000E+000
  3.960717710078315E-002  3.564645939070483E-002  3.168574168062652E-002
  2.772502397054821E-002  2.376430626046989E-002  1.980358855039158E-002
  1.584287084031326E-002  1.188215313023495E-002  7.921435420156629E-003
  3.960717710078312E-003  0.000000000000000E+000  3.960717710078315E-002
  3.564645939070483E-002  3.168574168062652E-002  2.772502397054821E-002
  2.376430626046989E-002  1.980358855039158E-002  1.584287084031326E-002
  1.188215313023495E-002  7.921435420156629E-003  3.960717710078312E-003
  0.000000000000000E+000  3.960717710078315E-002  3.564645939070483E-002
  3.168574168062652E-002  2.772502397054821E-002  2.376430626046989E-002
  1.980358855039158E-002  1.584287084031326E-002  1.188215313023495E-002
  7.921435420156629E-003  3.960717710078312E-003  0.000000000000000E+000
  3.960717710078315E-002  3.564645939070483E-002  3.168574168062652E-002
  2.772502397054821E-002  2.376430626046989E-002  1.980358855039158E-002
  1.584287084031326E-002  1.188215313023495E-002  7.921435420156629E-003
  3.960717710078312E-003  0.000000000000000E+000  3.960717710078315E-002
  3.564645939070483E-002  3.168574168062652E-002  2.772502397054821E-002
  2.376430626046989E-002  1.980358855039158E-002  1.584287084031326E-002
  1.188215313023495E-002  7.921435420156629E-003  3.960717710078312E-003
  0.000000000000000E+000  3.960717710078315E-002  3.564645939070483E-002
  3.168574168062652E-002  2.772502397054821E-002  2.376430626046989E-002
  1.980358855039158E-002  1.584287084031326E-002  1.188215313023495E-002
  7.921435420156629E-003  3.960717710078312E-003  0.000000000000000E+000
  3.960717710078315E-002  3.564645939070483E-002  3.168574168062652E-002
  2.772502397054821E-002  2.376430626046989E-002  1.980358855039158E-002
  1.584287084031326E-002  1.188215313023495E-002  7.921435420156629E-003
  3.960717710078312E-003  0.000000000000000E+000  3.960717710078315E-002
  3.564645939070483E-002  3.168574168062652E-002  2.772502397054821E-002
  2.376430626046989E-002  1.980358855039158E-002  1.584287084031326E-002
  1.188215313023495E-002  7.921435420156629E-003  3.960717710078312E-003
  0.000000000000000E+000  3.960717710078315E-002  3.564645939070483E-002
  3.168574168062652E-002  2.772502397054821E-002  2.376430626046989E-002
  1.980358855039158E-002  1.584287084031326E-002  1.188215313023495E-002
  7.921435420156629E-003  3.960717710078312E-003  0.000000000000000E+000
  3.960717710078315E-002  3.564645939070483E-002  3.168574168062652E-002
  2.772502397054821E-002  2.376430626046989E-002  1.980358855039158E-002
  1.584287084031326E-002  1.188215313023495E-002  7.921435420156629E-003
  3.960717710078312E-003  0.000000000000000E+000  3.960717710078315E-002
  3.564645939070483E-002  3.168574168062652E-002  2.772502397054821E-002
  2.376430626046989E-002  1.980358855039158E-002  1.584287084031326E-002
  1.188215313023495E-002  7.921435420156629E-003  3.960717710078312E-003
  0.000000000000000E+000
  0.151063117415938       0.218207128413710       0.271046553462780     
  0.317499920940771       0.360462483114083       0.400678506642539     
  0.437833091636611       0.471477144136211       0.501393576863003     
  0.527048723261528       0.250245516637390       0.367117594603766     
  0.458043811705661       0.537412593827395       0.610304299947671     
  0.678207449186837       0.740796198817172       0.797501142109259     
  0.848344945816575       0.893937311121732       0.332232129877333     
  0.499382445570913       0.628725694898628       0.740383306373038     
  0.841463922251849       0.934544580652407        1.01982671856885     
   1.09698884608078        1.16596026793620        1.22501622504580     
  0.392730105137865       0.598961431881747       0.759766079237445     
  0.897898933104620        1.02142351528691        1.13352575059263     
   1.23491788766075        1.32543674673591        1.40461150125674     
   1.46931108010276       0.439736392946091       0.673063189806986     
  0.855302793290913        1.01095974900651        1.14882929741024     
   1.27252597221380        1.38304626952835        1.48011198561485     
   1.56283327078716        1.62690794157664       0.487407480879604     
  0.743044621828884       0.940195785399232        1.10586866195937     
   1.25039530835076        1.37844035156573        1.49127045637592     
   1.58854536790858        1.66905678471465        1.72866546809066     
  0.550465088504851       0.832403858388730        1.04515453529445     
   1.22047981757079        1.37014599439203        1.49973381091335     
   1.61158537979073        1.70620678940377        1.78300686625905     
   1.83802542746769       0.633097900881995       0.949638314973360     
   1.18411617505909        1.37452750124060        1.53459421163531     
   1.67078024780997        1.78632604311866        1.88252768096042     
   1.95894794458250        2.01170126293546       0.739891237201064     
   1.10304318640104        1.36797915095224        1.58045148953905     
   1.75710800705225        1.90579642295454        2.03054586930774     
   2.13315390518758        2.21340961405901        2.26738442191838     
  0.871670738876270        1.29354801969403        1.59752441192281     
   1.83864427966017        2.03717315700313        2.20279034124277     
   2.34055282634644        2.45284926337222        2.53975027175635     
   2.59724689527218        1.02583925579613        1.51698802599620     
   1.86735275975342        2.14271117455122        2.36748928659309     
   2.55349690245035        2.70704010332656        2.83126370625102     
   2.92660763743960        2.98895520961858        1.19929895391422     
   1.76865635410877        2.17154069893495        2.48575095636173     
   2.74037471223336        2.94961197304914        3.12117065111405     
   3.25904597192399        3.36411766473906        3.43219216770092     
   1.38925450393337        2.04422252924513        2.50453942980740     
   2.86117195837546        3.14832790749611        3.38284276739548     
   3.57396870611495        3.72663789335557        3.84223347312307     
   3.91654094907254        1.59337177050526        2.33984359647822     
   2.86116776597774        3.26254799020024        3.58375239579221     
   3.84449857960230        4.05574392453200        4.22347996481163     
   4.34969952517337        4.43028224134237        1.80962375499569     
   2.65180965215851        3.23605471399699        3.68288375501303     
   4.03809836400467        4.32457963617107        4.55520003508522     
   4.73717861473617        4.87326766825689        4.95959722456303     
   2.03452542561702        2.97396749424028        3.62054294261752     
   4.11118576354168        4.49825588309929        4.80811760803762     
   5.05577793635416        5.24985956722283        5.39402524055717     
   5.48485223078952        2.25709983719655        3.28941310188015     
   3.99318051737477        4.52229752337034        4.93600966374420     
   5.26437897700500        5.52469208241452        5.72708026110122     
   5.87623179206501        5.96938965824010        2.45175167712272     
   3.56065608176693        4.30830441357022        4.86440731765405     
   5.29476788200527        5.63301552695137        5.89864289965087     
   6.10324818949117        6.25256224212110        6.34471795186684     
   2.58268173671750        3.73532428335766        4.50218095554046     
   5.06528185121943        5.49577319794019        5.83023907630920     
   6.08998056736880        6.28778260198206        6.43028381624199     
   6.51674142640793        2.61885538528353        3.76670972980564     
   4.51689595719570        5.05866064112291        5.46661790965313     
   5.77920735659789        6.01870232945922        6.19840362646983     
   6.32542517277519        6.40033137657802        2.54371756725977     
   3.62774653798176        4.31812142396236        4.80599831596373     
   5.16701208356467        5.43963200556323        5.64561943362525     
   5.79757973374451        5.90214394708892        5.96078158839170     
   2.34932633986499        3.30374940138784        3.88967131855451     
   4.29387482239384        4.58844060082621        4.80854722924307     
   4.97328767629565        5.09322592369130        5.17351448700122     
   5.21534053892686        2.02451680263050        2.78067495221720     
   3.22648411070069        3.52924028738942        3.74854217002311     
   3.91196238694394        4.03404985941095        4.12278676966403     
   4.18225277200382        4.21402667480085        1.54738602346415     
   2.05699369957644        2.35307980834525        2.55447605036380     
   2.70080347206880        2.81012618605539        2.89200311966454     
   2.95189845649254        2.99344637125333        3.02223382818312     
  0.940768852686118        1.22598808387981        1.39320087305953     
   1.50754234406151        1.59088657607868        1.65328179528063     
   1.70007158593852        1.73429973029102        1.75774394013795     
   1.77103597916866     
  0.000000000000000E+000  0.000000000000000E+000  0.000000000000000E+000
  0.000000000000000E+000  0.000000000000000E+000  0.000000000000000E+000
  0.000000000000000E+000  0.000000000000000E+000  0.000000000000000E+000
  0.000000000000000E+000  0.000000000000000E+000  0.000000000000000E+000
  0.000000000000000E+000  0.000000000000000E+000  0.000000000000000E+000
  0.000000000000000E+000  0.000000000000000E+000  0.000000000000000E+000
  0.000000000000000E+000  0.000000000000000E+000  0.000000000000000E+000
  0.000000000000000E+000  0.000000000000000E+000  0.000000000000000E+000
  0.000000000000000E+000  0.000000000000000E+000  0.000000000000000E+000
  0.000000000000000E+000  0.000000000000000E+000  0.000000000000000E+000
  0.000000000000000E+000  0.000000000000000E+000  0.000000000000000E+000
  0.000000000000000E+000  0.000000000000000E+000  0.000000000000000E+000
  0.000000000000000E+000  0.000000000000000E+000  0.000000000000000E+000
  0.000000000000000E+000  0.000000000000000E+000  0.000000000000000E+000
  0.000000000000000E+000  0.000000000000000E+000  0.000000000000000E+000
  0.000000000000000E+000  0.000000000000000E+000  0.000000000000000E+000
  0.000000000000000E+000  0.000000000000000E+000  0.000000000000000E+000
  0.000000000000000E+000  0.000000000000000E+000  0.000000000000000E+000
  0.000000000000000E+000  0.000000000000000E+000  0.000000000000000E+000
  0.000000000000000E+000  0.000000000000000E+000  0.000000000000000E+000
  0.000000000000000E+000  0.000000000000000E+000  0.000000000000000E+000
  0.000000000000000E+000  0.000000000000000E+000  0.000000000000000E+000
  0.000000000000000E+000  0.000000000000000E+000  0.000000000000000E+000
  0.000000000000000E+000  0.000000000000000E+000  0.000000000000000E+000
  0.000000000000000E+000  0.000000000000000E+000  0.000000000000000E+000
  0.000000000000000E+000  0.000000000000000E+000  0.000000000000000E+000
  0.000000000000000E+000  0.000000000000000E+000  0.000000000000000E+000
  0.000000000000000E+000  0.000000000000000E+000  0.000000000000000E+000
  0.000000000000000E+000  0.000000000000000E+000  0.000000000000000E+000
  0.000000000000000E+000  0.000000000000000E+000  0.000000000000000E+000
  0.000000000000000E+000  0.000000000000000E+000  0.000000000000000E+000
  0.000000000000000E+000  0.000000000000000E+000  0.000000000000000E+000
  0.000000000000000E+000  0.000000000000000E+000  0.000000000000000E+000
  0.000000000000000E+000  0.000000000000000E+000  0.000000000000000E+000
  0.000000000000000E+000  0.000000000000000E+000  0.000000000000000E+000
  0.000000000000000E+000  0.000000000000000E+000  0.000000000000000E+000
  0.000000000000000E+000  0.000000000000000E+000  0.000000000000000E+000
  0.000000000000000E+000  0.000000000000000E+000  0.000000000000000E+000
  0.000000000000000E+000  0.000000000000000E+000  0.000000000000000E+000