 Title = "Wing and Tip"
 VARIABLES = "X" "Y" "Z" "GAM"
 Zone I=   11 J=   26 K=1  T="Blade"
 DATAPACKING=BLOCK
 VARLOCATION=([4]=CELLCENTERED)
 -0.237219635633934      -0.219551431956112      -0.201883228278289     
 -0.184215024600467      -0.166546820922645      -0.148878617244823     
 -0.131210413567001      -0.113542209889178      -9.587400621135631E-002
 -7.820580253353412E-002 -6.053759885571195E-002 -0.238412741898680     
 -0.220744538220858      -0.203076334543036      -0.185408130865214     
 -0.167739927187391      -0.150071723509569      -0.132403519831747     
 -0.114735316153925      -9.706711247610254E-002 -7.939890879828039E-002
 -6.173070512045820E-002 -0.241973244694396      -0.224305041016574     
 -0.206636837338752      -0.188968633660930      -0.171300429983108     
 -0.153632226305286      -0.135964022627463      -0.118295818949641     
 -0.100627615271819      -8.295941159399677E-002 -6.529120791617460E-002
 -0.247844992765054      -0.230176789087231      -0.212508585409409     
 -0.194840381731587      -0.177172178053765      -0.159503974375943     
 -0.141835770698120      -0.124167567020298      -0.106499363342476     
 -8.883115966465384E-002 -7.116295598683167E-002 -0.255935385135965     
 -0.238267181458142      -0.220598977780320      -0.202930774102498     
 -0.185262570424676      -0.167594366746854      -0.149926163069031     
 -0.132257959391209      -0.114589755713387      -9.692155203556482E-002
 -7.925334835774263E-002 -0.266116831486474      -0.248448627808652     
 -0.230780424130830      -0.213112220453007      -0.195444016775185     
 -0.177775813097363      -0.160107609419541      -0.142439405741719     
 -0.124771202063896      -0.107102998386074      -8.943479470825216E-002
 -0.278228764325533      -0.260560560647711      -0.242892356969889     
 -0.225224153292067      -0.207555949614245      -0.189887745936423     
 -0.172219542258600      -0.154551338580778      -0.136883134902956     
 -0.119214931225134      -0.101546727547312      -0.292080171236953     
 -0.274411967559130      -0.256743763881308      -0.239075560203486     
 -0.221407356525664      -0.203739152847842      -0.186070949170020     
 -0.168402745492197      -0.150734541814375      -0.133066338136553     
 -0.115398134458731      -0.307452607259309      -0.289784403581487     
 -0.272116199903665      -0.254447996225843      -0.236779792548021     
 -0.219111588870198      -0.201443385192376      -0.183775181514554     
 -0.166106977836732      -0.148438774158910      -0.130770570481087     
 -0.324103639893483      -0.306435436215660      -0.288767232537838     
 -0.271099028860016      -0.253430825182194      -0.235762621504372     
 -0.218094417826549      -0.200426214148727      -0.182758010470905     
 -0.165089806793083      -0.147421603115261      -0.341770672407987     
 -0.324102468730165      -0.306434265052343      -0.288766061374520     
 -0.271097857696698      -0.253429654018876      -0.235761450341054     
 -0.218093246663232      -0.200425042985409      -0.182756839307587     
 -0.165088635629765      -0.360175085146295      -0.342506881468473     
 -0.324838677790650      -0.307170474112828      -0.289502270435006     
 -0.271834066757184      -0.254165863079362      -0.236497659401539     
 -0.218829455723717      -0.201161252045895      -0.183493048368073     
 -0.379026629525260      -0.361358425847438      -0.343690222169616     
 -0.326022018491793      -0.308353814813971      -0.290685611136149     
 -0.273017407458327      -0.255349203780505      -0.237681000102682     
 -0.220012796424860      -0.202344592747038      -0.398028005428659     
 -0.380359801750837      -0.362691598073015      -0.345023394395193     
 -0.327355190717370      -0.309686987039548      -0.292018783361726     
 -0.274350579683904      -0.256682376006082      -0.239014172328260     
 -0.221345968650437      -0.416879549807624      -0.399211346129802     
 -0.381543142451980      -0.363874938774158      -0.346206735096336     
 -0.328538531418513      -0.310870327740691      -0.293202124062869     
 -0.275533920385047      -0.257865716707225      -0.240197513029402     
 -0.435283962545932      -0.417615758868110      -0.399947555190288     
 -0.382279351512466      -0.364611147834643      -0.346942944156821     
 -0.329274740478999      -0.311606536801177      -0.293938333123355     
 -0.276270129445532      -0.258601925767710      -0.452950995060437     
 -0.435282791382614      -0.417614587704792      -0.399946384026970     
 -0.382278180349148      -0.364609976671325      -0.346941772993503     
 -0.329273569315681      -0.311605365637859      -0.293937161960037     
 -0.276268958282215      -0.469602027694610      -0.451933824016788     
 -0.434265620338965      -0.416597416661143      -0.398929212983321     
 -0.381261009305499      -0.363592805627677      -0.345924601949854     
 -0.328256398272032      -0.310588194594210      -0.292919990916388     
 -0.484974463716966      -0.467306260039144      -0.449638056361322     
 -0.431969852683500      -0.414301649005678      -0.396633445327855     
 -0.378965241650033      -0.361297037972211      -0.343628834294389     
 -0.325960630616567      -0.308292426938744      -0.498825870628386     
 -0.481157666950564      -0.463489463272741      -0.445821259594919     
 -0.428153055917097      -0.410484852239275      -0.392816648561453     
 -0.375148444883630      -0.357480241205808      -0.339812037527986     
 -0.322143833850164      -0.510937803467445      -0.493269599789623     
 -0.475601396111801      -0.457933192433978      -0.440264988756156     
 -0.422596785078334      -0.404928581400512      -0.387260377722690     
 -0.369592174044867      -0.351923970367045      -0.334255766689223     
 -0.521119249817955      -0.503451046140132      -0.485782842462310     
 -0.468114638784488      -0.450446435106666      -0.432778231428844     
 -0.415110027751021      -0.397441824073199      -0.379773620395377     
 -0.362105416717555      -0.344437213039733      -0.529209642188866     
 -0.511541438511043      -0.493873234833221      -0.476205031155399     
 -0.458536827477577      -0.440868623799755      -0.423200420121932     
 -0.405532216444110      -0.387864012766288      -0.370195809088466     
 -0.352527605410644      -0.535081390259523      -0.517413186581700     
 -0.499744982903878      -0.482076779226056      -0.464408575548234     
 -0.446740371870412      -0.429072168192589      -0.411403964514767     
 -0.393735760836945      -0.376067557159123      -0.358399353481301     
 -0.538641893055239      -0.520973689377417      -0.503305485699595     
 -0.485637282021772      -0.467969078343950      -0.450300874666128     
 -0.432632670988306      -0.414964467310484      -0.397296263632661     
 -0.379628059954839      -0.361959856277017      -0.539834999319985     
 -0.522166795642163      -0.504498591964341      -0.486830388286519     
 -0.469162184608696      -0.451493980930874      -0.433825777253052     
 -0.416157573575230      -0.398489369897408      -0.380821166219586     
 -0.363152962541764     
  0.121462477923929       0.127382764574089       0.133303051224249     
  0.139223337874409       0.145143624524569       0.151063911174729     
  0.156984197824889       0.162904484475049       0.168824771125209     
  0.174745057775369       0.180665344425529       0.125023123842020     
  0.130943410492180       0.136863697142340       0.142783983792500     
  0.148704270442660       0.154624557092820       0.160544843742980     
  0.166465130393140       0.172385417043300       0.178305703693460     
  0.184225990343620       0.135648908083138       0.141569194733298     
  0.147489481383458       0.153409768033618       0.159330054683778     
  0.165250341333938       0.171170627984098       0.177090914634258     
  0.183011201284418       0.188931487934578       0.194851774584738     
  0.153172255682266       0.159092542332426       0.165012828982586     
  0.170933115632746       0.176853402282906       0.182773688933066     
  0.188693975583226       0.194614262233386       0.200534548883546     
  0.206454835533706       0.212375122183866       0.177316812979824     
  0.183237099629984       0.189157386280144       0.195077672930304     
  0.200997959580464       0.206918246230624       0.212838532880784     
  0.218758819530944       0.224679106181104       0.230599392831263     
  0.236519679481424       0.207701805883970       0.213622092534130     
  0.219542379184290       0.225462665834450       0.231382952484610     
  0.237303239134770       0.243223525784930       0.249143812435090     
  0.255064099085250       0.260984385735409       0.266904672385570     
  0.243848044905491       0.249768331555651       0.255688618205811     
  0.261608904855971       0.267529191506131       0.273449478156291     
  0.279369764806451       0.285290051456611       0.291210338106771     
  0.297130624756931       0.303050911407091       0.285185482262301     
  0.291105768912461       0.297026055562621       0.302946342212781     
  0.308866628862941       0.314786915513101       0.320707202163261     
  0.326627488813421       0.332547775463581       0.338468062113741     
  0.344388348763901       0.331062201873496       0.336982488523656     
  0.342902775173816       0.348823061823976       0.354743348474136     
  0.360663635124296       0.366583921774456       0.372504208424616     
  0.378424495074776       0.384344781724936       0.390265068375096     
  0.380754700465382       0.386674987115542       0.392595273765702     
  0.398515560415862       0.404435847066022       0.410356133716182     
  0.416276420366342       0.422196707016502       0.428116993666662     
  0.434037280316822       0.439957566966982       0.433479297650306     
  0.439399584300466       0.445319870950626       0.451240157600786     
  0.457160444250946       0.463080730901106       0.469001017551266     
  0.474921304201426       0.480841590851586       0.486761877501746     
  0.492682164151906       0.488404495034514       0.494324781684674     
  0.500245068334834       0.506165354984994       0.512085641635154     
  0.518005928285314       0.523926214935474       0.529846501585634     
  0.535766788235794       0.541687074885954       0.547607361536114     
  0.544664089444534       0.550584376094694       0.556504662744854     
  0.562424949395014       0.568345236045175       0.574265522695334     
  0.580185809345494       0.586106095995654       0.592026382645814     
  0.597946669295974       0.603866955946134       0.601370833468669     
  0.607291120118829       0.613211406768989       0.619131693419149     
  0.625051980069309       0.630972266719468       0.636892553369629     
  0.642812840019788       0.648733126669949       0.654653413320109     
  0.660573699970268       0.657630427878689       0.663550714528849     
  0.669471001179009       0.675391287829169       0.681311574479329     
  0.687231861129489       0.693152147779649       0.699072434429809     
  0.704992721079969       0.710913007730129       0.716833294380289     
  0.712555625262897       0.718475911913057       0.724396198563217     
  0.730316485213377       0.736236771863537       0.742157058513697     
  0.748077345163857       0.753997631814017       0.759917918464177     
  0.765838205114337       0.771758491764497       0.765280222447821     
  0.771200509097981       0.777120795748141       0.783041082398301     
  0.788961369048461       0.794881655698621       0.800801942348781     
  0.806722228998941       0.812642515649101       0.818562802299261     
  0.824483088949421       0.814972721039707       0.820893007689867     
  0.826813294340027       0.832733580990187       0.838653867640347     
  0.844574154290507       0.850494440940667       0.856414727590827     
  0.862335014240987       0.868255300891147       0.874175587541307     
  0.860849440650901       0.866769727301061       0.872690013951221     
  0.878610300601381       0.884530587251541       0.890450873901701     
  0.896371160551861       0.902291447202021       0.908211733852181     
  0.914132020502342       0.920052307152502       0.902186878007712     
  0.908107164657872       0.914027451308032       0.919947737958192     
  0.925868024608352       0.931788311258512       0.937708597908672     
  0.943628884558832       0.949549171208992       0.955469457859152     
  0.961389744509312       0.938333117029233       0.944253403679393     
  0.950173690329553       0.956093976979713       0.962014263629873     
  0.967934550280033       0.973854836930193       0.979775123580353     
  0.985695410230513       0.991615696880673       0.997535983530833     
  0.968718109933379       0.974638396583539       0.980558683233699     
  0.986478969883859       0.992399256534019       0.998319543184179     
   1.00423982983434        1.01016011648450        1.01608040313466     
   1.02200068978482        1.02792097643498       0.992862667230937     
  0.998782953881097        1.00470324053126        1.01062352718142     
   1.01654381383158        1.02246410048174        1.02838438713190     
   1.03430467378206        1.04022496043222        1.04614524708238     
   1.05206553373254        1.01038601483006        1.01630630148022     
   1.02222658813038        1.02814687478054        1.03406716143070     
   1.03998744808086        1.04590773473102        1.05182802138118     
   1.05774830803134        1.06366859468150        1.06958888133166     
   1.02101179907118        1.02693208572134        1.03285237237150     
   1.03877265902166        1.04469294567182        1.05061323232198     
   1.05653351897214        1.06245380562230        1.06837409227246     
   1.07429437892262        1.08021466557278        1.02457244498927     
   1.03049273163943        1.03641301828959        1.04233330493975     
   1.04825359158991        1.05417387824007        1.06009416489023     
   1.06601445154039        1.07193473819055        1.07785502484071     
   1.08377531149087     
  3.960717710078315E-002  3.564645939070483E-002  3.168574168062652E-002
  2.772502397054821E-002  2.376430626046989E-002  1.980358855039158E-002
  1.584287084031326E-002  1.188215313023495E-002  7.921435420156629E-003
  3.960717710078312E-003  0.000000000000000E+000  3.960717710078315E-002
  3.564645939070483E-002  3.168574168062652E-002  2.772502397054821E-002
  2.376430626046989E-002  1.980358855039158E-002  1.584287084031326E-002
  1.188215313023495E-002  7.921435420156629E-003  3.960717710078312E-003
  0.000000000000000E+000  3.960717710078315E-002  3.564645939070483E-002
  3.168574168062652E-002  2.772502397054821E-002  2.376430626046989E-002
  1.980358855039158E-002  1.584287084031326E-002  1.188215313023495E-002
  7.921435420156629E-003  3.960717710078312E-003  0.000000000000000E+000
  3.960717710078315E-002  3.564645939070483E-002  3.168574168062652E-002
  2.772502397054821E-002  2.376430626046989E-002  1.980358855039158E-002
  1.584287084031326E-002  1.188215313023495E-002  7.921435420156629E-003
  3.960717710078312E-003  0.000000000000000E+000  3.960717710078315E-002
  3.564645939070483E-002  3.168574168062652E-002  2.772502397054821E-002
  2.376430626046989E-002  1.980358855039158E-002  1.584287084031326E-002
  1.188215313023495E-002  7.921435420156629E-003  3.960717710078312E-003
  0.000000000000000E+000  3.960717710078315E-002  3.564645939070483E-002
  3.168574168062652E-002  2.772502397054821E-002  2.376430626046989E-002
  1.980358855039158E-002  1.584287084031326E-002  1.188215313023495E-002
  7.921435420156629E-003  3.960717710078312E-003  0.000000000000000E+000
  3.960717710078315E-002  3.564645939070483E-002  3.168574168062652E-002
  2.772502397054821E-002  2.376430626046989E-002  1.980358855039158E-002
  1.584287084031326E-002  1.188215313023495E-002  7.921435420156629E-003
  3.960717710078312E-003  0.000000000000000E+000  3.960717710078315E-002
  3.564645939070483E-002  3.168574168062652E-002  2.772502397054821E-002
  2.376430626046989E-002  1.980358855039158E-002  1.584287084031326E-002
  1.188215313023495E-002  7.921435420156629E-003  3.960717710078312E-003
  0.000000000000000E+000  3.960717710078315E-002  3.564645939070483E-002
  3.168574168062652E-002  2.772502397054821E-002  2.376430626046989E-002
  1.980358855039158E-002  1.584287084031326E-002  1.188215313023495E-002
  7.921435420156629E-003  3.960717710078312E-003  0.000000000000000E+000
  3.960717710078315E-002  3.564645939070483E-002  3.168574168062652E-002
  2.772502397054821E-002  2.376430626046989E-002  1.980358855039158E-002
  1.584287084031326E-002  1.188215313023495E-002  7.921435420156629E-003
  3.960717710078312E-003  0.000000000000000E+000  3.960717710078315E-002
  3.564645939070483E-002  3.168574168062652E-002  2.772502397054821E-002
  2.376430626046989E-002  1.980358855039158E-002  1.584287084031326E-002
  1.188215313023495E-002  7.921435420156629E-003  3.960717710078312E-003
  0.000000000000000E+000  3.960717710078315E-002  3.564645939070483E-002
  3.168574168062652E-002  2.772502397054821E-002  2.376430626046989E-002
  1.980358855039158E-002  1.584287084031326E-002  1.188215313023495E-002
  7.921435420156629E-003  3.960717710078312E-003  0.000000000000000E+000
  3.960717710078315E-002  3.564645939070483E-002  3.168574168062652E-002
  2.772502397054821E-002  2.376430626046989E-002  1.980358855039158E-002
  1.584287084031326E-002  1.188215313023495E-002  7.921435420156629E-003
  3.960717710078312E-003  0.000000000000000E+000  3.960717710078315E-002
  3.564645939070483E-002  3.168574168062652E-002  2.772502397054821E-002
  2.376430626046989E-002  1.980358855039158E-002  1.584287084031326E-002
  1.188215313023495E-002  7.921435420156629E-003  3.960717710078312E-003
  0.000000000000000E+000  3.960717710078315E-002  3.564645939070483E-002
  3.168574168062652E-002  2.772502397054821E-002  2.376430626046989E-002
  1.980358855039158E-002  1.584287084031326E-002  1.188215313023495E-002
  7.921435420156629E-003  3.960717710078312E-003  0.000000000000000E+000
  3.960717710078315E-002  3.564645939070483E-002  3.168574168062652E-002
  2.772502397054821E-002  2.376430626046989E-002  1.980358855039158E-002
  1.584287084031326E-002  1.188215313023495E-002  7.921435420156629E-003
  3.960717710078312E-003  0.000000000000000E+000  3.960717710078315E-002
  3.564645939070483E-002  3.168574168062652E-002  2.772502397054821E-002
  2.376430626046989E-002  1.980358855039158E-002  1.584287084031326E-002
  1.188215313023495E-002  7.921435420156629E-003  3.960717710078312E-003
  0.000000000000000E+000  3.960717710078315E-002  3.564645939070483E-002
  3.168574168062652E-002  2.772502397054821E-002  2.376430626046989E-002
  1.980358855039158E-002  1.584287084031326E-002  1.188215313023495E-002
  7.921435420156629E-003  3.960717710078312E-003  0.000000000000000E+000
  3.960717710078315E-002  3.564645939070483E-002  3.168574168062652E-002
  2.772502397054821E-002  2.376430626046989E-002  1.980358855039158E-002
  1.584287084031326E-002  1.188215313023495E-002  7.921435420156629E-003
  3.960717710078312E-003  0.000000000000000E+000  3.960717710078315E-002
  3.564645939070483E-002  3.168574168062652E-002  2.772502397054821E-002
  2.376430626046989E-002  1.980358855039158E-002  1.584287084031326E-002
  1.188215313023495E-002  7.921435420156629E-003  3.960717710078312E-003
  0.000000000000000E+000  3.960717710078315E-002  3.564645939070483E-002
  3.168574168062652E-002  2.772502397054821E-002  2.376430626046989E-002
  1.980358855039158E-002  1.584287084031326E-002  1.188215313023495E-002
  7.921435420156629E-003  3.960717710078312E-003  0.000000000000000E+000
  3.960717710078315E-002  3.564645939070483E-002  3.168574168062652E-002
  2.772502397054821E-002  2.376430626046989E-002  1.980358855039158E-002
  1.584287084031326E-002  1.188215313023495E-002  7.921435420156629E-003
  3.960717710078312E-003  0.000000000000000E+000  3.960717710078315E-002
  3.564645939070483E-002  3.168574168062652E-002  2.772502397054821E-002
  2.376430626046989E-002  1.980358855039158E-002  1.584287084031326E-002
  1.188215313023495E-002  7.921435420156629E-003  3.960717710078312E-003
  0.000000000000000E+000  3.960717710078315E-002  3.564645939070483E-002
  3.168574168062652E-002  2.772502397054821E-002  2.376430626046989E-002
  1.980358855039158E-002  1.584287084031326E-002  1.188215313023495E-002
  7.921435420156629E-003  3.960717710078312E-003  0.000000000000000E+000
  3.960717710078315E-002  3.564645939070483E-002  3.168574168062652E-002
  2.772502397054821E-002  2.376430626046989E-002  1.980358855039158E-002
  1.584287084031326E-002  1.188215313023495E-002  7.921435420156629E-003
  3.960717710078312E-003  0.000000000000000E+000  3.960717710078315E-002
  3.564645939070483E-002  3.168574168062652E-002  2.772502397054821E-002
  2.376430626046989E-002  1.980358855039158E-002  1.584287084031326E-002
  1.188215313023495E-002  7.921435420156629E-003  3.960717710078312E-003
  0.000000000000000E+000
  4.818911214158179E-002  6.450962503476410E-002  7.446769582129698E-002
  8.120307712534809E-002  8.576115256091746E-002  8.860050468256811E-002
  8.993370534224451E-002  8.983983830725938E-002  8.832563299021823E-002
  8.550794915757340E-002  8.092254209047592E-002  0.110204196362294     
  0.127904929149222       0.139819683763749       0.147862907412994     
  0.152869611626628       0.155228682783735       0.155096571531053     
  0.152534735082960       0.148007745561642       0.111719646926311     
  0.156279430202321       0.183406369662957       0.201608864986479     
  0.213866170909836       0.221498395383467       0.225131357906255     
  0.225035248065157       0.221328247354782       0.214538670595449     
  0.140871441154116       0.200502717714416       0.237756890474272     
  0.262976891431445       0.280023560278569       0.290685571066090     
  0.295833770885440       0.295844022015585       0.290840634828548     
  0.281400444308133       0.170306183976461       0.244534105069425     
  0.291927940687349       0.324459590838556       0.346657742844939     
  0.360678119292506       0.367600940778469       0.367910910951669     
  0.361791511086445       0.350014609609904       0.201134705876665     
  0.290043029486624       0.347568348395875       0.387510196160686     
  0.415057144840249       0.432692508195502       0.441683728620168     
  0.442628628541234       0.435795073622907       0.422142169306465     
  0.233957627273393       0.338113714382331       0.406026160574659     
  0.453567339891496       0.486672127775453       0.508179780801229     
  0.519553804561756       0.521508198553046       0.514386744090422     
  0.499272434441379       0.269042719458865       0.389293544461564     
  0.468080456211026       0.523568079095964       0.562532355140083     
  0.588215482711812       0.602298973948357       0.605617424284213     
  0.598573642492460       0.582309706209344       0.306372008954504     
  0.443653812169620       0.533909744872202       0.597783648531312     
  0.642972962410908       0.673165043808838       0.690280502949486     
  0.695279131939515       0.688607984653175       0.671416361321028     
  0.345652823896543       0.500821037238678       0.603115029860468     
  0.675807951563076       0.727581299150866       0.762600111460249     
  0.783040414498215       0.789990731942045       0.783930665993480     
  0.765976618288687       0.386328434974948       0.560006165967835     
  0.674762280039874       0.756604243195218       0.815240937433977     
  0.855337470744066       0.879336416368335       0.888457068083176     
  0.883202216817649       0.864623782591210       0.427591261244012     
  0.620032482394999       0.747423906988367       0.838556792864358     
  0.904189275191826       0.949498464572866       0.977199526485251     
  0.988643126958581       0.984348018842112       0.965276969985626     
  0.468391218619535       0.679351261047854       0.819200946530180     
  0.919497911295899       0.992047048475030        1.04253829786199     
   1.07396046478889        1.08779510797263        1.08457233010321     
   1.06514789160280       0.507434113614742       0.736038336771591     
  0.887717282432479       0.996699052489848        1.07580537253635     
   1.13122803509369        1.16622572207556        1.18240994420713     
   1.18032113127542        1.16069786085377       0.543170990497379     
  0.787773337052679       0.950088341730002        1.06682880883513     
   1.15177319191278        1.21159195121872        1.24980550958056     
   1.26815477994651        1.26719431984102        1.24754438099418     
  0.573785434640122       0.831811832019969        1.00287698304114     
   1.12589274156544        1.21550223036363        1.27881939613769     
   1.31961460497456        1.33975883680844        1.33983039204074     
   1.32034023265232       0.597190836875931       0.864967660240524     
   1.04205818740473        1.16918142697781        1.26172144635308     
   1.32718956164569        1.36959115462705        1.39092897411629     
   1.39181988268420        1.37268405534513       0.611051325412524     
  0.883624793229545        1.06301819445292        1.19126155306188     
   1.28432832621767        1.35007142476085        1.39271151224650     
   1.41438186855291        1.41575258152191        1.39717499607690     
  0.612833901315521       0.883788315562108        1.06060638914538     
   1.18604687967269        1.27650038133419        1.34009245990911     
   1.38122387467921        1.40214011182920        1.40356374255355     
   1.38578700785462       0.599878246857697       0.861153437792517     
   1.02923777035755        1.14699138384517        1.23102468763939     
   1.28962414094100        1.32728360425691        1.34629298501625     
   1.34738509447680        1.33076713472210       0.569423967355179     
  0.811117385932762       0.963043988747441        1.06751995938343     
   1.14105734286532        1.19183643832281        1.22422738813244     
   1.24041088625063        1.24103663255463        1.22615727048327     
  0.518440638847237       0.728641065692210       0.856266536420657     
  0.942111349136408        1.00175481439999        1.04264203361225     
   1.06862414884105        1.08157103985687        1.08198777202720     
   1.06973219406932       0.442930686315896       0.608362209027048     
  0.704938130855248       0.768933285811269       0.813167007294431     
  0.843461757584486       0.862759800030226       0.872503978702908     
  0.873174568839341       0.864809485956332       0.336948461348054     
  0.448114625209927       0.512081404866866       0.554531475070186     
  0.583964385543980       0.604185913763502       0.617124207124596     
  0.623760338624060       0.624561039376025       0.620321960101495     
  0.204516602222329       0.266688557621276       0.302780403635447     
  0.326854746329436       0.343598319840952       0.355124572093641     
  0.362507439298794       0.366283408019680       0.366643086998664     
  0.363536873615351     
 Zone I=   11 J=1    K=1  T="NearWake"
 DATAPACKING=BLOCK
 VARLOCATION=([4]=CELLCENTERED)
 -0.330417376538567      -0.273655474048300      -0.221676901291646     
 -0.174303913710160      -0.131747049830493      -9.407613505420806E-002
 -6.132298300870014E-002 -3.383962599163139E-002 -1.343269490959155E-002
  1.235610659242918E-003  1.243836926347689E-002
   1.02969643473172        1.04639109163918        1.05859264320446     
   1.06793857323264        1.07451496041090        1.07878233856477     
   1.08125513359978        1.08248422018783        1.08301777403937     
   1.14129974418005        1.14135968958335     
 -2.945501272318378E-003 -2.945501272318378E-003 -8.205156489788146E-003
 -1.165517622588186E-002 -1.354864338646111E-002 -1.391328104942429E-002
 -1.254735355171926E-002 -8.778610707357838E-003 -1.701861367415604E-003
  5.376724651322920E-003  6.606463856718197E-003
   1.38578700785462        1.20547404068409        1.02963737533924     
  0.859564452042030       0.696819971288156       0.543248310356472     
  0.400896696713892       0.271677936952260       0.156140588013869     
  0.000000000000000E+000
 Zone I=    2 J=1   K=1   T="FarWake"
 DATAPACKING=BLOCK
 VARLOCATION=([4]=CELLCENTERED)
  1.243836926347689E-002  1.243836926347689E-002
   1.14135968958335        1.14135968958335     
  6.606463856718197E-003  6.606463856718197E-003
  0.000000000000000E+000
 Zone I=   11 J=   26 K=1  T="Blade"
 DATAPACKING=BLOCK
 VARLOCATION=([4]=CELLCENTERED)
  0.237219635633934       0.219551431956112       0.201883228278289     
  0.184215024600467       0.166546820922645       0.148878617244823     
  0.131210413567001       0.113542209889178       9.587400621135629E-002
  7.820580253353411E-002  6.053759885571192E-002  0.238412741898680     
  0.220744538220858       0.203076334543036       0.185408130865214     
  0.167739927187391       0.150071723509569       0.132403519831747     
  0.114735316153925       9.706711247610253E-002  7.939890879828036E-002
  6.173070512045817E-002  0.241973244694396       0.224305041016574     
  0.206636837338752       0.188968633660930       0.171300429983108     
  0.153632226305286       0.135964022627463       0.118295818949641     
  0.100627615271819       8.295941159399675E-002  6.529120791617457E-002
  0.247844992765054       0.230176789087231       0.212508585409409     
  0.194840381731587       0.177172178053765       0.159503974375943     
  0.141835770698120       0.124167567020298       0.106499363342476     
  8.883115966465381E-002  7.116295598683164E-002  0.255935385135965     
  0.238267181458142       0.220598977780320       0.202930774102498     
  0.185262570424676       0.167594366746854       0.149926163069031     
  0.132257959391209       0.114589755713387       9.692155203556480E-002
  7.925334835774260E-002  0.266116831486474       0.248448627808652     