 Title = "Wing and Tip"
 VARIABLES = "X" "Y" "Z" "GAM"
 Zone I=   11 J=   26 K=1  T="Blade"
 DATAPACKING=BLOCK
 VARLOCATION=([4]=CELLCENTERED)
  0.251280154874682       0.243434863946630       0.235589573018579     
  0.227744282090527       0.219898991162475       0.212053700234423     
  0.204208409306371       0.196363118378319       0.188517827450267     
  0.180672536522215       0.172827245594163       0.254686323492779     
  0.246841032564727       0.238995741636675       0.231150450708623     
  0.223305159780571       0.215459868852519       0.207614577924467     
  0.199769286996415       0.191923996068364       0.184078705140312     
  0.176233414212260       0.264851112033214       0.257005821105162     
  0.249160530177110       0.241315239249058       0.233469948321006     
  0.225624657392954       0.217779366464902       0.209934075536850     
  0.202088784608798       0.194243493680747       0.186398202752695     
  0.281614215708555       0.273768924780503       0.265923633852451     
  0.258078342924399       0.250233051996347       0.242387761068295     
  0.234542470140243       0.226697179212191       0.218851888284139     
  0.211006597356088       0.203161306428036       0.304711270360048     
  0.296865979431996       0.289020688503944       0.281175397575893     
  0.273330106647841       0.265484815719789       0.257639524791737     
  0.249794233863685       0.241948942935633       0.234103652007581     
  0.226258361079529       0.333778021638329       0.325932730710277     
  0.318087439782225       0.310242148854173       0.302396857926121     
  0.294551566998069       0.286706276070017       0.278860985141966     
  0.271015694213914       0.263170403285862       0.255325112357810     
  0.368356069512103       0.360510778584051       0.352665487655999     
  0.344820196727947       0.336974905799895       0.329129614871843     
  0.321284323943791       0.313439033015739       0.305593742087688     
  0.297748451159636       0.289903160231584       0.407900097510476     
  0.400054806582424       0.392209515654372       0.384364224726320     
  0.376518933798268       0.368673642870216       0.360828351942164     
  0.352983061014112       0.345137770086060       0.337292479158009     
  0.329447188229957       0.451786472689456       0.443941181761404     
  0.436095890833353       0.428250599905301       0.420405308977249     
  0.412560018049197       0.404714727121145       0.396869436193093     
  0.389024145265041       0.381178854336990       0.373333563408937     
  0.499323080696022       0.491477789767970       0.483632498839918     
  0.475787207911866       0.467941916983814       0.460096626055763     
  0.452251335127710       0.444406044199659       0.436560753271607     
  0.428715462343555       0.420870171415503       0.549760240824916     
  0.541914949896864       0.534069658968813       0.526224368040760     
  0.518379077112709       0.510533786184657       0.502688495256605     
  0.494843204328553       0.486997913400501       0.479152622472449     
  0.471307331544397       0.602302528931207       0.594457238003155     
  0.586611947075103       0.578766656147051       0.570921365218999     
  0.563076074290948       0.555230783362895       0.547385492434844     
  0.539540201506792       0.531694910578740       0.523849619650688     
  0.656121321744217       0.648276030816165       0.640430739888113     
  0.632585448960061       0.624740158032010       0.616894867103957     
  0.609049576175905       0.601204285247854       0.593358994319802     
  0.585513703391750       0.577668412463698       0.710367864751497     
  0.702522573823445       0.694677282895393       0.686831991967341     
  0.678986701039289       0.671141410111236       0.663296119183185     
  0.655450828255133       0.647605537327081       0.639760246399029     
  0.631914955470977       0.764186657564506       0.756341366636455     
  0.748496075708403       0.740650784780351       0.732805493852299     
  0.724960202924247       0.717114911996195       0.709269621068143     
  0.701424330140091       0.693579039212039       0.685733748283987     
  0.816728945670797       0.808883654742745       0.801038363814694     
  0.793193072886642       0.785347781958590       0.777502491030538     
  0.769657200102486       0.761811909174434       0.753966618246382     
  0.746121327318330       0.738276036390279       0.867166105799691     
  0.859320814871640       0.851475523943588       0.843630233015536     
  0.835784942087484       0.827939651159432       0.820094360231380     
  0.812249069303328       0.804403778375277       0.796558487447224     
  0.788713196519172       0.914702713806257       0.906857422878205     
  0.899012131950153       0.891166841022101       0.883321550094049     
  0.875476259165997       0.867630968237945       0.859785677309894     
  0.851940386381842       0.844095095453789       0.836249804525737     
  0.958589088985237       0.950743798057185       0.942898507129133     
  0.935053216201082       0.927207925273030       0.919362634344978     
  0.911517343416926       0.903672052488874       0.895826761560822     
  0.887981470632770       0.880136179704718       0.998133116983611     
  0.990287826055559       0.982442535127506       0.974597244199455     
  0.966751953271403       0.958906662343351       0.951061371415299     
  0.943216080487248       0.935370789559195       0.927525498631143     
  0.919680207703092        1.03271116485738        1.02486587392933     
   1.01702058300128        1.00917529207323        1.00133000114518     
  0.993484710217125       0.985639419289073       0.977794128361021     
  0.969948837432969       0.962103546504917       0.954258255576865     
   1.06177791613567        1.05393262520761        1.04608733427956     
   1.03824204335151        1.03039675242346        1.02255146149541     
   1.01470617056735        1.00686087963930       0.999015588711250     
  0.991170297783198       0.983325006855147        1.08487497078716     
   1.07702967985911        1.06918438893106        1.06133909800300     
   1.05349380707495        1.04564851614690        1.03780322521885     
   1.02995793429080        1.02211264336274        1.01426735243469     
   1.00642206150664        1.10163807446250        1.09379278353445     
   1.08594749260640        1.07810220167834        1.07025691075029     
   1.06241161982224        1.05456632889419        1.04672103796614     
   1.03887574703808        1.03103045611003        1.02318516518198     
   1.11180286300293        1.10395757207488        1.09611228114683     
   1.08826699021878        1.08042169929073        1.07257640836267     
   1.06473111743462        1.05688582650657        1.04904053557852     
   1.04119524465047        1.03334995372242        1.11520903162103     
   1.10736374069298        1.09951844976493        1.09167315883688     
   1.08382786790882        1.07598257698077        1.06813728605272     
   1.06029199512467        1.05244670419662        1.04460141326856     
   1.03675612234051     
  8.879511720738266E-002  7.189344198049172E-002  5.499176675360091E-002
  3.809009152670993E-002  2.118841629981901E-002  4.286741072928130E-003
 -1.261493415396284E-002 -2.951660938085375E-002 -4.641828460774464E-002
 -6.331995983463561E-002 -8.022163506152655E-002  8.721406779066869E-002
  7.031239256377771E-002  5.341071733688681E-002  3.650904210999586E-002
  1.960736688310493E-002  2.705691656214055E-003 -1.419598357067692E-002
 -3.109765879756781E-002 -4.799933402445877E-002 -6.490100925134973E-002
 -8.180268447824064E-002  8.249585363430131E-002  6.559417840741050E-002
  4.869250318051944E-002  3.179082795362857E-002  1.488915272673761E-002
 -2.012522500153348E-003 -1.891419772704426E-002 -3.581587295393521E-002
 -5.271754818082610E-002 -6.961922340771706E-002 -8.652089863460802E-002
  7.471488379405089E-002  5.781320856716001E-002  4.091153334026898E-002
  2.400985811337815E-002  7.108182886487248E-003 -9.793492340403718E-003
 -2.669516756729472E-002 -4.359684279418552E-002 -6.049851802107651E-002
 -7.740019324796743E-002 -9.430186847485837E-002  6.399386881242446E-002
  4.709219358553361E-002  3.019051835864264E-002  1.328884313175171E-002
 -3.612832095139337E-003 -2.051450732203016E-002 -3.741618254892114E-002
 -5.431785777581202E-002 -7.121953300270298E-002 -8.812120822959381E-002
 -0.105022883456485       5.050188550010610E-002  3.360021027321513E-002
  1.669853504632426E-002 -2.031401805666685E-004 -1.710481540745761E-002
 -3.400649063434868E-002 -5.090816586123943E-002 -6.780984108813044E-002
 -8.471151631502136E-002 -0.101613191541912      -0.118514866768803     
  3.445171049365122E-002  1.755003526676039E-002  6.483600398692851E-004
 -1.625331518702163E-002 -3.315499041391248E-002 -5.005666564080342E-002
 -6.695834086769423E-002 -8.386001609458517E-002 -0.100761691321476     
 -0.117663366548367      -0.134565041775258       1.609646464082137E-002
 -8.052105860694934E-004 -1.770688581296065E-002 -3.460856103985145E-002
 -5.151023626674230E-002 -6.841191149363324E-002 -8.531358672052412E-002
 -0.102215261947415      -0.119116937174306      -0.136018612401197     
 -0.152920287628088      -4.274378866391834E-003 -2.117605409328287E-002
 -3.807772932017361E-002 -5.497940454706442E-002 -7.188107977395559E-002
 -8.878275500084648E-002 -0.105684430227737      -0.122586105454628     
 -0.139487780681519      -0.156389455908410      -0.173291131135301     
 -2.633955965692756E-002 -4.324123488381867E-002 -6.014291011070949E-002
 -7.704458533760046E-002 -9.394626056449160E-002 -0.110847935791382     
 -0.127749611018273      -0.144651286245164      -0.161552961472055     
 -0.178454636698946      -0.195356311925837      -4.975109664861931E-002
 -6.665277187551014E-002 -8.355444710240120E-002 -0.100456122329292     
 -0.117357797556183      -0.134259472783074      -0.151161148009965     
 -0.168062823236856      -0.184964498463747      -0.201866173690638     
 -0.218767848917529      -7.413977591773327E-002 -9.104145114462435E-002
 -0.107943126371515      -0.124844801598406      -0.141746476825297     
 -0.158648152052188      -0.175549827279079      -0.192451502505970     
 -0.209353177732861      -0.226254852959752      -0.243156528186643     
 -9.912097342310494E-002 -0.116022648649996      -0.132924323876887     
 -0.149825999103778      -0.166727674330669      -0.183629349557560     
 -0.200531024784451      -0.217432700011342      -0.234334375238232     
 -0.251236050465123      -0.268137725692015      -0.124300720757031     
 -0.141202395983922      -0.158104071210812      -0.175005746437704     
 -0.191907421664595      -0.208809096891485      -0.225710772118377     
 -0.242612447345267      -0.259514122572158      -0.276415797799049     
 -0.293317473025940      -0.149281918262403      -0.166183593489294     
 -0.183085268716185      -0.199986943943075      -0.216888619169967     
 -0.233790294396857      -0.250691969623748      -0.267593644850639     
 -0.284495320077530      -0.301396995304421      -0.318298670531312     
 -0.173670597531517      -0.190572272758408      -0.207473947985298     
 -0.224375623212189      -0.241277298439080      -0.258178973665972     
 -0.275080648892862      -0.291982324119753      -0.308883999346644     
 -0.325785674573535      -0.342687349800426      -0.197082134523208     
 -0.213983809750099      -0.230885484976990      -0.247787160203881     
 -0.264688835430772      -0.281590510657663      -0.298492185884554     
 -0.315393861111445      -0.332295536338336      -0.349197211565227     
 -0.366098886792118      -0.219147315313744      -0.236048990540635     
 -0.252950665767526      -0.269852340994417      -0.286754016221308     
 -0.303655691448199      -0.320557366675090      -0.337459041901981     
 -0.354360717128871      -0.371262392355763      -0.388164067582653     
 -0.239518158820957      -0.256419834047848      -0.273321509274739     
 -0.290223184501630      -0.307124859728521      -0.324026534955412     
 -0.340928210182303      -0.357829885409194      -0.374731560636085     
 -0.391633235862976      -0.408534911089867      -0.257873404673787     
 -0.274775079900678      -0.291676755127569      -0.308578430354460     
 -0.325480105581351      -0.342381780808242      -0.359283456035133     
 -0.376185131262024      -0.393086806488914      -0.409988481715806     
 -0.426890156942696      -0.273923579680242      -0.290825254907133     
 -0.307726930134024      -0.324628605360915      -0.341530280587806     
 -0.358431955814696      -0.375333631041588      -0.392235306268478     
 -0.409136981495369      -0.426038656722260      -0.442940331949151     
 -0.287415562992561      -0.304317238219451      -0.321218913446342     
 -0.338120588673233      -0.355022263900124      -0.371923939127015     
 -0.388825614353906      -0.405727289580797      -0.422628964807688     
 -0.439530640034579      -0.456432315261470      -0.298136577974187     
 -0.315038253201078      -0.331939928427969      -0.348841603654860     
 -0.365743278881750      -0.382644954108642      -0.399546629335532     
 -0.416448304562423      -0.433349979789315      -0.450251655016205     
 -0.467153330243097      -0.305917547814438      -0.322819223041328     
 -0.339720898268219      -0.356622573495110      -0.373524248722001     
 -0.390425923948892      -0.407327599175783      -0.424229274402674     
 -0.441130949629565      -0.458032624856456      -0.474934300083347     
 -0.310635761970805      -0.327537437197695      -0.344439112424586     
 -0.361340787651477      -0.378242462878368      -0.395144138105259     
 -0.412045813332150      -0.428947488559041      -0.445849163785932     
 -0.462750839012823      -0.479652514239714      -0.312216811387518     
 -0.329118486614410      -0.346020161841300      -0.362921837068192     
 -0.379823512295082      -0.396725187521973      -0.413626862748864     
 -0.430528537975755      -0.447430213202646      -0.464331888429537     
 -0.481233563656428     
  3.960717710078315E-002  3.564645939070483E-002  3.168574168062652E-002
  2.772502397054821E-002  2.376430626046989E-002  1.980358855039158E-002
  1.584287084031326E-002  1.188215313023495E-002  7.921435420156629E-003
  3.960717710078312E-003  0.000000000000000E+000  3.960717710078315E-002
  3.564645939070483E-002  3.168574168062652E-002  2.772502397054821E-002
  2.376430626046989E-002  1.980358855039158E-002  1.584287084031326E-002
  1.188215313023495E-002  7.921435420156629E-003  3.960717710078312E-003
  0.000000000000000E+000  3.960717710078315E-002  3.564645939070483E-002
  3.168574168062652E-002  2.772502397054821E-002  2.376430626046989E-002
  1.980358855039158E-002  1.584287084031326E-002  1.188215313023495E-002
  7.921435420156629E-003  3.960717710078312E-003  0.000000000000000E+000
  3.960717710078315E-002  3.564645939070483E-002  3.168574168062652E-002
  2.772502397054821E-002  2.376430626046989E-002  1.980358855039158E-002
  1.584287084031326E-002  1.188215313023495E-002  7.921435420156629E-003
  3.960717710078312E-003  0.000000000000000E+000  3.960717710078315E-002
  3.564645939070483E-002  3.168574168062652E-002  2.772502397054821E-002
  2.376430626046989E-002  1.980358855039158E-002  1.584287084031326E-002
  1.188215313023495E-002  7.921435420156629E-003  3.960717710078312E-003
  0.000000000000000E+000  3.960717710078315E-002  3.564645939070483E-002
  3.168574168062652E-002  2.772502397054821E-002  2.376430626046989E-002
  1.980358855039158E-002  1.584287084031326E-002  1.188215313023495E-002
  7.921435420156629E-003  3.960717710078312E-003  0.000000000000000E+000
  3.960717710078315E-002  3.564645939070483E-002  3.168574168062652E-002
  2.772502397054821E-002  2.376430626046989E-002  1.980358855039158E-002
  1.584287084031326E-002  1.188215313023495E-002  7.921435420156629E-003
  3.960717710078312E-003  0.000000000000000E+000  3.960717710078315E-002
  3.564645939070483E-002  3.168574168062652E-002  2.772502397054821E-002
  2.376430626046989E-002  1.980358855039158E-002  1.584287084031326E-002
  1.188215313023495E-002  7.921435420156629E-003  3.960717710078312E-003
  0.000000000000000E+000  3.960717710078315E-002  3.564645939070483E-002
  3.168574168062652E-002  2.772502397054821E-002  2.376430626046989E-002
  1.980358855039158E-002  1.584287084031326E-002  1.188215313023495E-002
  7.921435420156629E-003  3.960717710078312E-003  0.000000000000000E+000
  3.960717710078315E-002  3.564645939070483E-002  3.168574168062652E-002
  2.772502397054821E-002  2.376430626046989E-002  1.980358855039158E-002
  1.584287084031326E-002  1.188215313023495E-002  7.921435420156629E-003
  3.960717710078312E-003  0.000000000000000E+000  3.960717710078315E-002
  3.564645939070483E-002  3.168574168062652E-002  2.772502397054821E-002
  2.376430626046989E-002  1.980358855039158E-002  1.584287084031326E-002
  1.188215313023495E-002  7.921435420156629E-003  3.960717710078312E-003
  0.000000000000000E+000  3.960717710078315E-002  3.564645939070483E-002
  3.168574168062652E-002  2.772502397054821E-002  2.376430626046989E-002
  1.980358855039158E-002  1.584287084031326E-002  1.188215313023495E-002
  7.921435420156629E-003  3.960717710078312E-003  0.000000000000000E+000
  3.960717710078315E-002  3.564645939070483E-002  3.168574168062652E-002
  2.772502397054821E-002  2.376430626046989E-002  1.980358855039158E-002
  1.584287084031326E-002  1.188215313023495E-002  7.921435420156629E-003
  3.960717710078312E-003  0.000000000000000E+000  3.960717710078315E-002
  3.564645939070483E-002  3.168574168062652E-002  2.772502397054821E-002
  2.376430626046989E-002  1.980358855039158E-002  1.584287084031326E-002
  1.188215313023495E-002  7.921435420156629E-003  3.960717710078312E-003
  0.000000000000000E+000  3.960717710078315E-002  3.564645939070483E-002
  3.168574168062652E-002  2.772502397054821E-002  2.376430626046989E-002
  1.980358855039158E-002  1.584287084031326E-002  1.188215313023495E-002
  7.921435420156629E-003  3.960717710078312E-003  0.000000000000000E+000
  3.960717710078315E-002  3.564645939070483E-002  3.168574168062652E-002
  2.772502397054821E-002  2.376430626046989E-002  1.980358855039158E-002
  1.584287084031326E-002  1.188215313023495E-002  7.921435420156629E-003
  3.960717710078312E-003  0.000000000000000E+000  3.960717710078315E-002
  3.564645939070483E-002  3.168574168062652E-002  2.772502397054821E-002
  2.376430626046989E-002  1.980358855039158E-002  1.584287084031326E-002
  1.188215313023495E-002  7.921435420156629E-003  3.960717710078312E-003
  0.000000000000000E+000  3.960717710078315E-002  3.564645939070483E-002
  3.168574168062652E-002  2.772502397054821E-002  2.376430626046989E-002
  1.980358855039158E-002  1.584287084031326E-002  1.188215313023495E-002
  7.921435420156629E-003  3.960717710078312E-003  0.000000000000000E+000
  3.960717710078315E-002  3.564645939070483E-002  3.168574168062652E-002
  2.772502397054821E-002  2.376430626046989E-002  1.980358855039158E-002
  1.584287084031326E-002  1.188215313023495E-002  7.921435420156629E-003
  3.960717710078312E-003  0.000000000000000E+000  3.960717710078315E-002
  3.564645939070483E-002  3.168574168062652E-002  2.772502397054821E-002
  2.376430626046989E-002  1.980358855039158E-002  1.584287084031326E-002
  1.188215313023495E-002  7.921435420156629E-003  3.960717710078312E-003
  0.000000000000000E+000  3.960717710078315E-002  3.564645939070483E-002
  3.168574168062652E-002  2.772502397054821E-002  2.376430626046989E-002
  1.980358855039158E-002  1.584287084031326E-002  1.188215313023495E-002
  7.921435420156629E-003  3.960717710078312E-003  0.000000000000000E+000
  3.960717710078315E-002  3.564645939070483E-002  3.168574168062652E-002
  2.772502397054821E-002  2.376430626046989E-002  1.980358855039158E-002
  1.584287084031326E-002  1.188215313023495E-002  7.921435420156629E-003
  3.960717710078312E-003  0.000000000000000E+000  3.960717710078315E-002
  3.564645939070483E-002  3.168574168062652E-002  2.772502397054821E-002
  2.376430626046989E-002  1.980358855039158E-002  1.584287084031326E-002
  1.188215313023495E-002  7.921435420156629E-003  3.960717710078312E-003
  0.000000000000000E+000  3.960717710078315E-002  3.564645939070483E-002
  3.168574168062652E-002  2.772502397054821E-002  2.376430626046989E-002
  1.980358855039158E-002  1.584287084031326E-002  1.188215313023495E-002
  7.921435420156629E-003  3.960717710078312E-003  0.000000000000000E+000
  3.960717710078315E-002  3.564645939070483E-002  3.168574168062652E-002
  2.772502397054821E-002  2.376430626046989E-002  1.980358855039158E-002
  1.584287084031326E-002  1.188215313023495E-002  7.921435420156629E-003
  3.960717710078312E-003  0.000000000000000E+000  3.960717710078315E-002
  3.564645939070483E-002  3.168574168062652E-002  2.772502397054821E-002
  2.376430626046989E-002  1.980358855039158E-002  1.584287084031326E-002
  1.188215313023495E-002  7.921435420156629E-003  3.960717710078312E-003
  0.000000000000000E+000
  0.286705116504719       0.406652956155013       0.495245152290780     
  0.565930563737605       0.622673371584622       0.668075966584727     
  0.703854701010829       0.731618915854791       0.753023854414842     
  0.768320611981678       0.477903065796965       0.687440912522183     
  0.840548338030101       0.963000623154546        1.06188106340834     
   1.14147163190799        1.20447709331944        1.25357733199564     
   1.29195246960652        1.32192987126565       0.648099906231531     
  0.951573130569738        1.17180513149475        1.34878182731852     
   1.49353924501766        1.61200749311804        1.70691087673129     
   1.78150223553044        1.83983158483092        1.88158060724151     
  0.797314355871259        1.18355980012106        1.46534646832506     
   1.69199844370763        1.87959068076461        2.03563724841941     
   2.16245519049456        2.26339922350202        2.34206968141869     
   2.39460162184164       0.938699225084242        1.39732566060878     
   1.73286547260747        2.00340414238028        2.22882959050371     
   2.41761650035456        2.57330398761638        2.69813028328537     
   2.79356975273992        2.85447020505596        1.07746207434759     
   1.60474411614578        1.98958268175068        2.29833760176590     
   2.55489446479491        2.77013778910082        2.94902385470701     
   3.09340568662224        3.20277369040267        3.27124732364621     
   1.21213098688761        1.80289347899373        2.23278390929366     
   2.57717116380062        2.86287473944772        3.10204236247599     
   3.30044046796642        3.46035212617233        3.58114163565687     
   3.65649727435027        1.34526328180353        1.99707612692788     
   2.46896615967833        2.84553428266441        3.15705291348501     
   3.41719533578845        3.63269697544267        3.80645297109542     
   3.93803599803759        4.02071972828526        1.47932815192001     
   2.19147976829020        2.70361595660837        3.11002640926328     
   3.44483110363943        3.72376591508897        3.95468430830706     
   4.14099156512088        4.28228335501791        4.37142467836990     
   1.61484063640757        2.38771416062064        2.93994766491942     
   3.37539719522640        3.73224656207055        4.02848034265185     
   4.27317348119053        4.47041217967393        4.61994727572563     
   4.71452174709286        1.75064501249382        2.58444130508618     
   3.17693769546756        3.64143291389219        4.01998457881434     
   4.33270238130248        4.59002005075389        4.79684093207978     
   4.95332676147656        5.05223754461538        1.88408229337259     
   2.77770455997421        3.40982388031135        3.90295647169987     
   4.30281032817473        4.63149582879806        4.90071667871214     
   5.11616805620360        5.27854847307827        5.38082733512672     
   2.01117443588097        2.96147772187839        3.63099937853668     
   4.15109334464936        4.57093569414217        4.91448601022120     
   5.19461187914376        5.41777703613284        5.58519446327590     
   5.69011435101092        2.12671806627483        3.12788403589873     
   3.83052443649129        4.37417986920518        4.81125297317070     
   5.16740565250766        5.45656686138285        5.68592931525989     
   5.85721066304190        5.96398589720200        2.22428835458980     
   3.26724777799913        3.99626521524026        4.55803175153220     
   5.00781685776912        5.37280792522426        5.66789297260340     
   5.90095346308088        6.07422499156219        6.18171430655477     
   2.29654398746227        3.36849778999631        4.11433562778561     
   4.68641362790987        5.14235532516262        5.51066417268506     
   5.80708316623336        6.04012829659163        6.21259751961561     
   6.31910770492541        2.33625567268485        3.42059008186164     
   4.17070824067688        4.74275442965998        5.19605841964265     
   5.56016814123744        5.85158768727298        6.07945679028953     
   6.24718884430454        6.35026057025008        2.33870786730396     
   3.41576365213603        4.15487721091017        4.71398393322796     
   5.15347689801976        5.50368315983721        5.78178511611458     
   5.99758383275365        6.15521863803270        6.25133524917021     
   2.30614993039391        3.35536116434266        4.06621646166239     
   4.59711976868794        5.00925306120016        5.33364500710026     
   5.58813817272688        5.78322344983576        5.92384850567360     
   6.00816955665410        2.25352410508685        3.25614433340652     
   3.92022114689307        4.40573931261592        4.77533655841104     
   5.06079347196863        5.28055253955863        5.44571159768106     
   5.56180682460780        5.62856419319552        2.18755932261086     
   3.12340454344973        3.72068494350625        4.14366592698352     
   4.45781641761540        4.69436446540691        4.87197768280515     
   5.00165250638837        5.08890136711860        5.13492121696915     
   2.05293940605567        2.88228179465166        3.38761141810310     
   3.73287890771891        3.98236772962455        4.16837424337809     
   4.30686698192625        4.40609932683510        4.46968659729416     
   4.49900150063394        1.79978345862623        2.46350137269277     
   2.84938170511737        3.10708819450769        3.29140221171263     
   3.42864670560705        3.53135179257523        3.60483434971130     
   3.65139058258235        3.67298010199958        1.39040051334568     
   1.84045224649750        2.09776454730718        2.26959970676436     
   2.39282173090567        2.48495840320167        2.55434898891757     
   2.60430474992337        2.63688501497401        2.65742987621013     
  0.848443253219286        1.10073016959277        1.24626722488815     
   1.34397366604204        1.41429462069333        1.46703365540942     
   1.50685574856741        1.53550179201650        1.55380760592158     
   1.56259303677703     
 Zone I=   41 J=1    K=1  T="NearWake"
 DATAPACKING=BLOCK
 VARLOCATION=([4]=CELLCENTERED)
  0.974773390358489       0.859663931028363       0.711532953943967     
  0.548206950088670       0.368125072449686       0.177493587411650     
 -2.625675098918997E-002 -0.219845008700535      -0.400808323296397     
 -0.565921548557872      -0.711898689320615      -0.836420496314948     
 -0.938167762548050       -1.01674870747937       -1.07258873429310     
  -1.10679897903671       -1.12103228077127       -1.11734515314245     
  -1.09810962095136       -1.06612096643695       -1.02619316936599     
 -0.984148573456054      -0.916425424990082      -0.867359383138098     
 -0.789958414115978      -0.735639474062659      -0.656258337103996     
 -0.585643917750018      -0.519534441533635      -0.451322011311714     
 -0.385359807457155      -0.326670319071033      -0.269365002374665     
 -0.218856763765963      -0.171590599768333      -0.128053105000450     
 -9.335380524251681E-002 -6.714476857197954E-002 -4.876085391670495E-002
 -2.238090292869388E-002 -1.044965353773859E-002
 -0.467740462353243      -0.655338553532443      -0.808372469927401     
 -0.935075720503085       -1.02922929026215       -1.08441047195590     
  -1.10274932350361       -1.08544294465928       -1.03580237272292     
 -0.958782944475629      -0.858937070763078      -0.741034657048036     
 -0.609816101761657      -0.469819716520867      -0.325248992292333     
 -0.179863400999062      -3.690003128313959E-002  0.100961074419467     
  0.231574051485979       0.353203010499313       0.463626739249796     
  0.570542831374941       0.660664126848320       0.753172051000276     
  0.821709762775604       0.896681429491091       0.948331396798019     
  0.984012510879000        1.03668222164081        1.06541197564648     
   1.07998041760130        1.11330025171419        1.13199595721246     
   1.13052523732444        1.12628430095321        1.13439873031696     
   1.12931960122908        1.13996214485861        1.08090155849762     
   1.04338557786581        1.04636321256481     
 -2.945501272318378E-003 -2.945501272318379E-003 -3.002739573117659E-002
 -4.747504648222775E-002 -5.811437179990503E-002 -6.124879634135715E-002
 -5.368124989675703E-002 -5.840550379692257E-002 -6.064181634667556E-002
 -6.226483072721327E-002 -6.337236788080541E-002 -6.405909287072871E-002
 -6.441675311502044E-002 -6.453585181210146E-002 -6.449402329016404E-002
 -6.433982889874347E-002 -6.407627312510704E-002 -6.364434726864655E-002
 -6.289488436407119E-002 -6.150912812683602E-002 -5.859158698323710E-002
 -6.361806367901494E-002 -5.770587622412780E-002 -6.999070275664342E-002
 -6.439676326192856E-002 -6.534244330720859E-002 -6.684172339905375E-002
 -6.079550528851014E-002 -4.351102419872232E-002 -5.981894339362540E-002
 -4.274975472295216E-002 -3.212244363201855E-002 -2.516072383436278E-002