 Title = "Wing and Wake"
 VARIABLES = "X" "Y" "Z" "GAM" "skew"
 Zone I=   11 J=   26 K=1  T="Blade"
 DATAPACKING=BLOCK
 VARLOCATION=([4]=CELLCENTERED,[5]=CELLCENTERED)
  0.143463651110617       0.124946399624070       0.106429148137522     
  8.791189665097444E-002  6.939464516442674E-002  5.087739367787842E-002
  3.236014219133088E-002  1.384289070478312E-002 -4.674360781764555E-003
 -2.319161226831235E-002 -4.170886375486008E-002  0.142641631281915     
  0.124124379795368       0.105607128308821       8.708987682227307E-002
  6.857262533572503E-002  5.005537384917740E-002  3.153812236262950E-002
  1.302087087608182E-002 -5.496380610466156E-003 -2.401363209701367E-002
 -4.253088358356168E-002  0.140188535539561       0.121671284053014     
  0.103154032566466       8.463678107991793E-002  6.611952959337007E-002
  4.760227810682240E-002  2.908502662027436E-002  1.056777513372694E-002
 -7.949476352821068E-003 -2.646672783936866E-002 -4.498397932591632E-002
  0.136143050668818       0.117625799182271       9.910854769572258E-002
  8.059129620917492E-002  6.207404472262715E-002  4.355679323607944E-002
  2.503954174953123E-002  6.522290262983854E-003 -1.199496122356369E-002
 -3.051221271011176E-002 -4.902946419665924E-002  0.130568976382754     
  0.112051724896207       9.353447340965851E-002  7.501722192311039E-002
  5.649997043656301E-002  3.798271895001490E-002  1.946546746346740E-002
  9.482159769195724E-004 -1.756903550962798E-002 -3.608628699617599E-002
 -5.460353848272346E-002  0.123554219162651       0.105036967676103     
  8.651971618955534E-002  6.800246470300765E-002  4.948521321645982E-002
  3.096796172991189E-002  1.245071024336402E-002 -6.066541243183141E-003
 -2.458379272973130E-002 -4.310104421627917E-002 -6.161829570282727E-002
  0.115209405920282       9.669215443373440E-002  7.817490294718704E-002
  5.965765146063903E-002  4.114039997409105E-002  2.262314848754343E-002
  4.105897000995996E-003 -1.441135448555256E-002 -3.292860597210037E-002
 -5.144585745864746E-002 -6.996310894519504E-002  0.105666139345430     
  8.714888785888297E-002  6.863163637233476E-002  5.011438488578689E-002
  3.159713339923929E-002  1.307988191269119E-002 -5.437369573856409E-003
 -2.395462106040404E-002 -4.247187254695196E-002 -6.098912403349954E-002
 -7.950637552004729E-002  9.507492245285079E-002  7.655767096630339E-002
  5.804041947975586E-002  3.952316799320817E-002  2.100591650666034E-002
  2.488665020112562E-003 -1.602858646643535E-002 -3.454583795298271E-002
 -5.306308943953070E-002 -7.158034092607880E-002 -9.009759241262594E-002
  8.360278505982816E-002  6.508553357327980E-002  4.656828208673237E-002
  2.805103060018465E-002  9.533779113636783E-003 -8.983472372910292E-003
 -2.750072385945874E-002 -4.601797534600614E-002 -6.453522683255447E-002
 -8.305247831910173E-002 -0.101569729805649       7.143064962617122E-002
  5.291339813962342E-002  3.439614665307485E-002  1.587889516652715E-002
 -2.638356320020103E-003 -2.115560780656805E-002 -3.967285929311529E-002
 -5.819011077966414E-002 -7.670736226621128E-002 -9.522461375275917E-002
 -0.113741865239307       5.875047799895074E-002  4.023322651240166E-002
  2.171597502585354E-002  3.198723539306416E-003 -1.531852794724162E-002
 -3.383577943378957E-002 -5.235303092033696E-002 -7.087028240688469E-002
 -8.938753389343208E-002 -0.107904785379980      -0.126422036866527     
  4.576224405949296E-002  2.724499257294476E-002  8.727741086397931E-003
 -9.789510400150412E-003 -2.830676188669808E-002 -4.682401337324540E-002
 -6.534126485979332E-002 -8.385851634634130E-002 -0.102375767832889     
 -0.120893019319436      -0.139410270805984       3.267078001582197E-002
  1.415352852927419E-002 -4.363722957274318E-003 -2.288097444382162E-002
 -4.139822593036899E-002 -5.991547741691747E-002 -7.843272890346521E-002
 -9.694998039001324E-002 -0.115467231876560      -0.133984483363109     
 -0.152501734849656       1.968254607636537E-002  1.165294589817255E-003
 -1.735195689673033E-002 -3.586920838327765E-002 -5.438645986982498E-002
 -7.290371135637320E-002 -9.142096284292096E-002 -0.109938214329469     
 -0.128455465816017      -0.146972717302564      -0.165489968789112     
  7.002374449143358E-003 -1.151487703740412E-002 -3.003212852395213E-002
 -4.854938001050024E-002 -6.706663149704740E-002 -8.558388298359466E-002
 -0.104101134470141      -0.122618385956691      -0.141135637443239     
 -0.159652888929787      -0.178170140416333      -5.169760984512945E-003
 -2.368701247106029E-002 -4.220426395760817E-002 -6.072151544415721E-002
 -7.923876693070477E-002 -9.775601841725122E-002 -0.116273269903801     
 -0.134790521390348      -0.153307772876894      -0.171825024363443     
 -0.190342275849990      -1.664189837753680E-002 -3.515914986408364E-002
 -5.367640135063240E-002 -7.219365283718061E-002 -9.071090432372801E-002
 -0.109228155810276      -0.127745407296823      -0.146262658783371     
 -0.164779910269919      -0.183297161756466      -0.201814413243013     
 -2.723311527011435E-002 -4.575036675666305E-002 -6.426761824321089E-002
 -8.278486972975924E-002 -0.101302121216305      -0.119819372702853     
 -0.138336624189402      -0.156853875675949      -0.175371127162498     
 -0.193888378649045      -0.212405630135593      -3.677638184496640E-002
 -5.529363333151453E-002 -7.381088481806261E-002 -9.232813630461009E-002
 -0.110845387791158      -0.129362639277707      -0.147879890764254     
 -0.166397142250802      -0.184914393737349      -0.203431645223897     
 -0.221948896710444      -4.512119508733438E-002 -6.363844657388430E-002
 -8.215569806043146E-002 -0.100672949546978      -0.119190201033526     
 -0.137707452520074      -0.156224704006622      -0.174741955493170     
 -0.193259206979718      -0.211776458466265      -0.230293709952813     
 -5.213595230743806E-002 -7.065320379398669E-002 -8.917045528053534E-002
 -0.107687706767082      -0.126204958253629      -0.144722209740179     
 -0.163239461226725      -0.181756712713275      -0.200273964199820     
 -0.218791215686369      -0.237308467172918      -5.771002659350240E-002
 -7.622727808005114E-002 -9.474452956659851E-002 -0.113261781053147     
 -0.131779032539695      -0.150296284026241      -0.168813535512788     
 -0.187330786999337      -0.205848038485885      -0.224365289972433     
 -0.242882541458981      -6.175551146424534E-002 -8.027276295079404E-002
 -9.879001443734146E-002 -0.117307265923890      -0.135824517410437     
 -0.154341768896988      -0.172859020383531      -0.191376271870079     
 -0.209893523356628      -0.228410774843175      -0.246928026329724     
 -6.420860720660111E-002 -8.272585869314876E-002 -0.101243110179698     
 -0.119760361666245      -0.138277613152793      -0.156794864639338     
 -0.175312116125888      -0.193829367612435      -0.212346619098983     
 -0.230863870585530      -0.249381122072078      -6.503062703530324E-002
 -8.354787852185049E-002 -0.102065130008398      -0.120582381494946     
 -0.139099632981493      -0.157616884468040      -0.176134135954588     
 -0.194651387441138      -0.213168638927685      -0.231685890414231     
 -0.250203141900781     
 -0.227458860326424      -0.223304676269633      -0.219150492212842     
 -0.214996308156051      -0.210842124099260      -0.206687940042469     
 -0.202533755985678      -0.198379571928887      -0.194225387872097     
 -0.190071203815305      -0.185917019758515      -0.231123008974366     
 -0.226968824917575      -0.222814640860784      -0.218660456803994     
 -0.214506272747203      -0.210352088690412      -0.206197904633621     
 -0.202043720576829      -0.197889536520039      -0.193735352463248     
 -0.189581168406457      -0.242057669105158      -0.237903485048368     
 -0.233749300991577      -0.229595116934786      -0.225440932877995     
 -0.221286748821204      -0.217132564764413      -0.212978380707622     
 -0.208824196650831      -0.204670012594041      -0.200515828537249     
 -0.260090394596489      -0.255936210539698      -0.251782026482908     
 -0.247627842426117      -0.243473658369326      -0.239319474312535     
 -0.235165290255744      -0.231011106198953      -0.226856922142163     
 -0.222702738085371      -0.218548554028580      -0.284936798595133     
 -0.280782614538341      -0.276628430481550      -0.272474246424760     
 -0.268320062367969      -0.264165878311177      -0.260011694254387     
 -0.255857510197596      -0.251703326140805      -0.247549142084014     
 -0.243394958027223      -0.316205038467506      -0.312050854410715     
 -0.307896670353924      -0.303742486297133      -0.299588302240343     
 -0.295434118183551      -0.291279934126760      -0.287125750069970     
 -0.282971566013179      -0.278817381956388      -0.274663197899597     
 -0.353401995392082      -0.349247811335291      -0.345093627278501     
 -0.340939443221710      -0.336785259164919      -0.332631075108128     
 -0.328476891051337      -0.324322706994546      -0.320168522937755     
 -0.316014338880964      -0.311860154824173      -0.395941051137776     
 -0.391786867080986      -0.387632683024194      -0.383478498967404     
 -0.379324314910613      -0.375170130853822      -0.371015946797031     
 -0.366861762740241      -0.362707578683449      -0.358553394626658     
 -0.354399210569868      -0.443151339383876      -0.438997155327086     
 -0.434842971270294      -0.430688787213505      -0.426534603156714     
 -0.422380419099922      -0.418226235043131      -0.414072050986340     
 -0.409917866929550      -0.405763682872759      -0.401609498815968     
 -0.494288325682685      -0.490134141625893      -0.485979957569102     
 -0.481825773512312      -0.477671589455521      -0.473517405398730     
 -0.469363221341940      -0.465209037285148      -0.461054853228358     
 -0.456900669171567      -0.452746485114776      -0.548545549212513     
 -0.544391365155722      -0.540237181098931      -0.536082997042141     
 -0.531928812985348      -0.527774628928558      -0.523620444871767     
 -0.519466260814975      -0.515312076758186      -0.511157892701395     
 -0.507003708644603      -0.605067341146600      -0.600913157089811     
 -0.596758973033017      -0.592604788976228      -0.588450604919437     
 -0.584296420862647      -0.580142236805855      -0.575988052749065     
 -0.571833868692273      -0.567679684635482      -0.563525500578692     
 -0.662962319061665      -0.658808135004878      -0.654653950948084     
 -0.650499766891295      -0.646345582834502      -0.642191398777713     
 -0.638037214720923      -0.633883030664131      -0.629728846607340     
 -0.625574662550548      -0.621420478493758      -0.721317444571207     
 -0.717163260514416      -0.713009076457626      -0.708854892400834     
 -0.704700708344043      -0.700546524287252      -0.696392340230460     
 -0.692238156173671      -0.688083972116880      -0.683929788060089     
 -0.679775604003298      -0.779212422486273      -0.775058238429482     
 -0.770904054372690      -0.766749870315901      -0.762595686259109     
 -0.758441502202318      -0.754287318145527      -0.750133134088737     
 -0.745978950031946      -0.741824765975155      -0.737670581918365     
 -0.835734214420361      -0.831580030363570      -0.827425846306780     
 -0.823271662249990      -0.819117478193196      -0.814963294136406     
 -0.810809110079615      -0.806654926022827      -0.802500741966034     
 -0.798346557909242      -0.794192373852453      -0.889991437950189     
 -0.885837253893399      -0.881683069836606      -0.877528885779815     
 -0.873374701723025      -0.869220517666235      -0.865066333609444     
 -0.860912149552652      -0.856757965495862      -0.852603781439071     
 -0.848449597382281      -0.941128424248996      -0.936974240192206     
 -0.932820056135416      -0.928665872078624      -0.924511688021833     
 -0.920357503965043      -0.916203319908252      -0.912049135851460     
 -0.907894951794669      -0.903740767737880      -0.899586583681087     
 -0.988338712495097      -0.984184528438306      -0.980030344381516     
 -0.975876160324726      -0.971721976267933      -0.967567792211143     
 -0.963413608154351      -0.959259424097562      -0.955105240040770     
 -0.950951055983979      -0.946796871927188       -1.03087776824079     
  -1.02672358418400       -1.02256940012721       -1.01841521607042     
  -1.01426103201363       -1.01010684795684       -1.00595266390005     
  -1.00179847984325      -0.997644295786462      -0.993490111729674     
 -0.989335927672882       -1.06807472516536       -1.06392054110858     
  -1.05976635705179       -1.05561217299499       -1.05145798893820     
  -1.04730380488141       -1.04314962082462       -1.03899543676783     
  -1.03484125271104       -1.03068706865425       -1.02653288459746     
  -1.09934296503774       -1.09518878098095       -1.09103459692416     
  -1.08688041286737       -1.08272622881058       -1.07857204475379     
  -1.07441786069699       -1.07026367664020       -1.06610949258342     
  -1.06195530852662       -1.05780112446983       -1.12418936903638     
  -1.12003518497959       -1.11588100092280       -1.11172681686601     
  -1.10757263280922       -1.10341844875243       -1.09926426469564     
  -1.09511008063885       -1.09095589658206       -1.08680171252527     
  -1.08264752846847       -1.14222209452772       -1.13806791047092     
  -1.13391372641413       -1.12975954235734       -1.12560535830055     
  -1.12145117424376       -1.11729699018697       -1.11314280613018     
  -1.10898862207339       -1.10483443801660       -1.10068025395981     
  -1.15315675465851       -1.14900257060172       -1.14484838654493     
  -1.14069420248814       -1.13654001843134       -1.13238583437455     
  -1.12823165031776       -1.12407746626097       -1.11992328220418     
  -1.11576909814739       -1.11161491409060       -1.15682090330645     
  -1.15266671924966       -1.14851253519287       -1.14435835113608     
  -1.14020416707928       -1.13604998302250       -1.13189579896570     
  -1.12774161490891       -1.12358743085212       -1.11943324679533     
  -1.11527906273854     
  1.660316899342888E-002  1.494285209408599E-002  1.328253519474311E-002
  1.162221829540022E-002  9.961901396057328E-003  8.301584496714441E-003
  6.641267597371552E-003  4.980950698028665E-003  3.320633798685776E-003
  1.660316899342887E-003  0.000000000000000E+000  1.660316899342888E-002
  1.494285209408599E-002  1.328253519474311E-002  1.162221829540022E-002
  9.961901396057328E-003  8.301584496714441E-003  6.641267597371552E-003
  4.980950698028665E-003  3.320633798685776E-003  1.660316899342887E-003
  0.000000000000000E+000  1.660316899342888E-002  1.494285209408599E-002
  1.328253519474311E-002  1.162221829540022E-002  9.961901396057328E-003
  8.301584496714441E-003  6.641267597371552E-003  4.980950698028665E-003
  3.320633798685776E-003  1.660316899342887E-003  0.000000000000000E+000
  1.660316899342888E-002  1.494285209408599E-002  1.328253519474311E-002
  1.162221829540022E-002  9.961901396057328E-003  8.301584496714441E-003
  6.641267597371552E-003  4.980950698028665E-003  3.320633798685776E-003
  1.660316899342887E-003  0.000000000000000E+000  1.660316899342888E-002
  1.494285209408599E-002  1.328253519474311E-002  1.162221829540022E-002
  9.961901396057328E-003  8.301584496714441E-003  6.641267597371552E-003
  4.980950698028665E-003  3.320633798685776E-003  1.660316899342887E-003
  0.000000000000000E+000  1.660316899342888E-002  1.494285209408599E-002
  1.328253519474311E-002  1.162221829540022E-002  9.961901396057328E-003
  8.301584496714441E-003  6.641267597371552E-003  4.980950698028665E-003
  3.320633798685776E-003  1.660316899342887E-003  0.000000000000000E+000
  1.660316899342888E-002  1.494285209408599E-002  1.328253519474311E-002
  1.162221829540022E-002  9.961901396057328E-003  8.301584496714441E-003
  6.641267597371552E-003  4.980950698028665E-003  3.320633798685776E-003
  1.660316899342887E-003  0.000000000000000E+000  1.660316899342888E-002
  1.494285209408599E-002  1.328253519474311E-002  1.162221829540022E-002
  9.961901396057328E-003  8.301584496714441E-003  6.641267597371552E-003
  4.980950698028665E-003  3.320633798685776E-003  1.660316899342887E-003
  0.000000000000000E+000  1.660316899342888E-002  1.494285209408599E-002
  1.328253519474311E-002  1.162221829540022E-002  9.961901396057328E-003
  8.301584496714441E-003  6.641267597371552E-003  4.980950698028665E-003
  3.320633798685776E-003  1.660316899342887E-003  0.000000000000000E+000
  1.660316899342888E-002  1.494285209408599E-002  1.328253519474311E-002
  1.162221829540022E-002  9.961901396057328E-003  8.301584496714441E-003
  6.641267597371552E-003  4.980950698028665E-003  3.320633798685776E-003
  1.660316899342887E-003  0.000000000000000E+000  1.660316899342888E-002
  1.494285209408599E-002  1.328253519474311E-002  1.162221829540022E-002
  9.961901396057328E-003  8.301584496714441E-003  6.641267597371552E-003
  4.980950698028665E-003  3.320633798685776E-003  1.660316899342887E-003
  0.000000000000000E+000  1.660316899342888E-002  1.494285209408599E-002
  1.328253519474311E-002  1.162221829540022E-002  9.961901396057328E-003
  8.301584496714441E-003  6.641267597371552E-003  4.980950698028665E-003
  3.320633798685776E-003  1.660316899342887E-003  0.000000000000000E+000
  1.660316899342888E-002  1.494285209408599E-002  1.328253519474311E-002
  1.162221829540022E-002  9.961901396057328E-003  8.301584496714441E-003
  6.641267597371552E-003  4.980950698028665E-003  3.320633798685776E-003
  1.660316899342887E-003  0.000000000000000E+000  1.660316899342888E-002
  1.494285209408599E-002  1.328253519474311E-002  1.162221829540022E-002
  9.961901396057328E-003  8.301584496714441E-003  6.641267597371552E-003
  4.980950698028665E-003  3.320633798685776E-003  1.660316899342887E-003
  0.000000000000000E+000  1.660316899342888E-002  1.494285209408599E-002
  1.328253519474311E-002  1.162221829540022E-002  9.961901396057328E-003
  8.301584496714441E-003  6.641267597371552E-003  4.980950698028665E-003
  3.320633798685776E-003  1.660316899342887E-003  0.000000000000000E+000
  1.660316899342888E-002  1.494285209408599E-002  1.328253519474311E-002
  1.162221829540022E-002  9.961901396057328E-003  8.301584496714441E-003
  6.641267597371552E-003  4.980950698028665E-003  3.320633798685776E-003
  1.660316899342887E-003  0.000000000000000E+000  1.660316899342888E-002
  1.494285209408599E-002  1.328253519474311E-002  1.162221829540022E-002
  9.961901396057328E-003  8.301584496714441E-003  6.641267597371552E-003
  4.980950698028665E-003  3.320633798685776E-003  1.660316899342887E-003
  0.000000000000000E+000  1.660316899342888E-002  1.494285209408599E-002
  1.328253519474311E-002  1.162221829540022E-002  9.961901396057328E-003
  8.301584496714441E-003  6.641267597371552E-003  4.980950698028665E-003
  3.320633798685776E-003  1.660316899342887E-003  0.000000000000000E+000
  1.660316899342888E-002  1.494285209408599E-002  1.328253519474311E-002
  1.162221829540022E-002  9.961901396057328E-003  8.301584496714441E-003
  6.641267597371552E-003  4.980950698028665E-003  3.320633798685776E-003
  1.660316899342887E-003  0.000000000000000E+000  1.660316899342888E-002
  1.494285209408599E-002  1.328253519474311E-002  1.162221829540022E-002
  9.961901396057328E-003  8.301584496714441E-003  6.641267597371552E-003
  4.980950698028665E-003  3.320633798685776E-003  1.660316899342887E-003
  0.000000000000000E+000  1.660316899342888E-002  1.494285209408599E-002
  1.328253519474311E-002  1.162221829540022E-002  9.961901396057328E-003
  8.301584496714441E-003  6.641267597371552E-003  4.980950698028665E-003
  3.320633798685776E-003  1.660316899342887E-003  0.000000000000000E+000
  1.660316899342888E-002  1.494285209408599E-002  1.328253519474311E-002
  1.162221829540022E-002  9.961901396057328E-003  8.301584496714441E-003
  6.641267597371552E-003  4.980950698028665E-003  3.320633798685776E-003
  1.660316899342887E-003  0.000000000000000E+000  1.660316899342888E-002
  1.494285209408599E-002  1.328253519474311E-002  1.162221829540022E-002
  9.961901396057328E-003  8.301584496714441E-003  6.641267597371552E-003
  4.980950698028665E-003  3.320633798685776E-003  1.660316899342887E-003
  0.000000000000000E+000  1.660316899342888E-002  1.494285209408599E-002
  1.328253519474311E-002  1.162221829540022E-002  9.961901396057328E-003
  8.301584496714441E-003  6.641267597371552E-003  4.980950698028665E-003
  3.320633798685776E-003  1.660316899342887E-003  0.000000000000000E+000
  1.660316899342888E-002  1.494285209408599E-002  1.328253519474311E-002
  1.162221829540022E-002  9.961901396057328E-003  8.301584496714441E-003
  6.641267597371552E-003  4.980950698028665E-003  3.320633798685776E-003
  1.660316899342887E-003  0.000000000000000E+000  1.660316899342888E-002
  1.494285209408599E-002  1.328253519474311E-002  1.162221829540022E-002
  9.961901396057328E-003  8.301584496714441E-003  6.641267597371552E-003
  4.980950698028665E-003  3.320633798685776E-003  1.660316899342887E-003
  0.000000000000000E+000
  9.776670777552404E-002  0.133700621730138       0.156069913807337     
  0.173628359706284       0.188447355007083       0.200485598887286     
  0.207329651572063       0.206644571344856       0.198399878068913     
  0.185022841537170       0.159385180283335       0.220640159668855     
  0.258301874721034       0.287470344472270       0.311947740330884     
  0.331657509550189       0.342821600143693       0.341702748194493     
  0.328419242272923       0.307467491243405       0.202185711415249     
  0.285162262949012       0.335725851461535       0.373526970256809     
  0.405386232997830       0.429839747434632       0.443167829725984     
  0.441580368283543       0.425360866871090       0.399391956761822     
  0.221140507311235       0.315279948383650       0.372274128395399     
  0.413173510376221       0.446902295527239       0.472345181574183     
  0.485190400996114       0.482568955703716       0.466007465375408     
  0.439283317250626       0.220390810036812       0.315246640482273     
  0.371965572791379       0.410718991634263       0.440731792826528     
  0.463366904591045       0.474547307343151       0.471270268478672     
  0.456112384906677       0.432210623744804       0.202050746939744     
  0.290532774069732       0.344167927770323       0.379759665069176     
  0.405135625502159       0.423263801772893       0.432620958057760     
  0.431197969823692       0.420076366686547       0.401116867839272     
  0.178357733691922       0.261273532985580       0.314208553321535     
  0.348732394987614       0.371586408432393       0.387193874184473     
  0.396541392492407       0.398586328878267       0.392766095237583     
  0.379681217784311       0.164806706452120       0.245666336282885     
  0.300614025521492       0.339106184615680       0.365953319801220     
  0.384523098171994       0.396593619992873       0.402429825241279     
  0.401627282408958       0.394086467381641       0.166989715286645     
  0.250226465310324       0.309951995650959       0.355547471312116     
  0.390428336435591       0.416488205873656       0.434970568298347     
  0.446510666755157       0.451193347924600       0.448850072165641     
  0.189040925078600       0.282016635850736       0.349092336104602     
  0.401578415611301       0.443506539097768       0.476720612034268     
  0.502131650189446       0.520149278437017       0.530790124798534     
  0.533631600291413       0.224777168095278       0.333681315280531     
  0.411648889361735       0.472647347436350       0.521771202290434     
  0.561407676562664       0.592761205491079       0.616372518879360     
  0.632245677822920       0.639652197316546       0.268240560122977     
  0.396882923289121       0.488396698855791       0.559789381959482     
  0.617332985457216       0.664023689285699       0.701437103277433     
  0.730348221518682       0.750861243069645       0.762083183939280     
  0.316978552289591       0.467863208955967       0.574627473993309     
  0.657643426760569       0.724478761254294       0.778792920375491     
  0.822550925528075       0.856763692751144       0.881647502674065     
  0.896206066654286       0.369334590324741       0.544158125441091     
  0.667298276485291       0.762714509481370       0.839360004710467     
  0.901605385890372       0.951828983023114       0.991288531126664     
   1.02032484212878        1.03787484538498       0.424256531709739     
  0.624163090740921       0.764397040207807       0.872669247172059     
  0.959381586272034        1.02965506116400        1.08631127062477     
   1.13087537760860        1.16383399468058        1.18409245903012     
  0.481432062876271       0.707404269751235       0.865311250995696     
  0.986752352772642        1.08363446154145        1.16186499818775     
   1.22475397592541        1.27414476962617        1.31071098644953     
   1.33338260031981       0.542001324352733       0.795655141902135     
  0.972173787239056        1.10722282914497        1.21432587370550     
   1.30027439236726        1.36895422891477        1.42262551790816     
   1.46225772983351        1.48691387555375       0.615824959968613     
  0.902069863247492        1.09940090056660        1.24879942029875     
   1.36603937571135        1.45915242802516        1.53281601293788     
   1.58985806499579        1.63169057704423        1.65769420500215     
  0.748062955141947        1.07995127747130        1.30149191715556     
   1.46622564214264        1.59386995804160        1.69410294070119     
   1.77264473112647        1.83307625846306        1.87735074838003     
   1.90515786549595       0.948115466444933        1.34186985369869     
   1.59152887954288        1.77083407923334        1.90579926560500     
   2.00958187911214        2.08980143743354        2.15108541887922     
   2.19602462003313        2.22476691808636        1.05107130503939     
   1.47537912165608        1.73477224692415        1.91381167684046     
   2.04467756098751        2.14297975722653        2.21743679766176     
   2.27317820773789        2.31305856252188        2.33781863278702     
   1.02249958657559        1.42080457466301        1.65615499477082     
   1.81381865728638        1.92646211504241        2.00969173405793     
   2.07184957031540        2.11757994318675        2.14926522289855     
   2.16754671800470       0.897640842467188        1.22146103979335     
   1.40575260275802        1.52729199817073        1.61350956105172     
   1.67698296509661        1.72426927487246        1.75897076688504     
   1.78297739702382        1.79692595404177       0.690631874555706     
  0.910655405519499        1.03423646411127        1.11595420127122     
   1.17414050759181        1.21713364114909        1.24931157420711     
   1.27315950450676        1.29030452160950        1.30304882292371     
  0.420640225692411       0.543921187944656       0.613850396373918     
  0.660370398623759       0.693619997359857       0.718251157440792     
  0.736718002880533       0.750390804136317       0.760030559956124     
  0.765910725151398     
  0.000000000000000E+000  0.000000000000000E+000  0.000000000000000E+000
  0.000000000000000E+000  0.000000000000000E+000  0.000000000000000E+000
  0.000000000000000E+000  0.000000000000000E+000  0.000000000000000E+000
  0.000000000000000E+000  0.000000000000000E+000  0.000000000000000E+000
  0.000000000000000E+000  0.000000000000000E+000  0.000000000000000E+000
  0.000000000000000E+000  0.000000000000000E+000  0.000000000000000E+000
  0.000000000000000E+000  0.000000000000000E+000  0.000000000000000E+000
  0.000000000000000E+000  0.000000000000000E+000  0.000000000000000E+000
  0.000000000000000E+000  0.000000000000000E+000  0.000000000000000E+000
  0.000000000000000E+000  0.000000000000000E+000  0.000000000000000E+000
  0.000000000000000E+000  0.000000000000000E+000  0.000000000000000E+000
  0.000000000000000E+000  0.000000000000000E+000  0.000000000000000E+000
  0.000000000000000E+000  0.000000000000000E+000  0.000000000000000E+000
  0.000000000000000E+000  0.000000000000000E+000  0.000000000000000E+000
  0.000000000000000E+000  0.000000000000000E+000  0.000000000000000E+000
  0.000000000000000E+000  0.000000000000000E+000  0.000000000000000E+000
  0.000000000000000E+000  0.000000000000000E+000  0.000000000000000E+000
  0.000000000000000E+000  0.000000000000000E+000  0.000000000000000E+000
  0.000000000000000E+000  0.000000000000000E+000  0.000000000000000E+000
  0.000000000000000E+000  0.000000000000000E+000  0.000000000000000E+000
  0.000000000000000E+000  0.000000000000000E+000  0.000000000000000E+000
  0.000000000000000E+000  0.000000000000000E+000  0.000000000000000E+000
  0.000000000000000E+000  0.000000000000000E+000  0.000000000000000E+000
  0.000000000000000E+000  0.000000000000000E+000  0.000000000000000E+000
  0.000000000000000E+000  0.000000000000000E+000  0.000000000000000E+000
  0.000000000000000E+000  0.000000000000000E+000  0.000000000000000E+000
  0.000000000000000E+000  0.000000000000000E+000  0.000000000000000E+000
  0.000000000000000E+000  0.000000000000000E+000  0.000000000000000E+000
  0.000000000000000E+000  0.000000000000000E+000  0.000000000000000E+000
  0.000000000000000E+000  0.000000000000000E+000  0.000000000000000E+000
  0.000000000000000E+000  0.000000000000000E+000  0.000000000000000E+000
  0.000000000000000E+000  0.000000000000000E+000  0.000000000000000E+000
  0.000000000000000E+000  0.000000000000000E+000  0.000000000000000E+000
  0.000000000000000E+000  0.000000000000000E+000  0.000000000000000E+000
  0.000000000000000E+000  0.000000000000000E+000  0.000000000000000E+000
  0.000000000000000E+000  0.000000000000000E+000  0.000000000000000E+000
  0.000000000000000E+000  0.000000000000000E+000  0.000000000000000E+000
  0.000000000000000E+000  0.000000000000000E+000  0.000000000000000E+000
  0.000000000000000E+000  0.000000000000000E+000  0.000000000000000E+000