 Title = "Wing and Wake"
 VARIABLES = "X" "Y" "Z" "GAM" "skew"
 Zone I=   11 J=   26 K=1  T="Blade"
 DATAPACKING=BLOCK
 VARLOCATION=([4]=CELLCENTERED,[5]=CELLCENTERED)
 -9.313918359594393E-002 -0.101114734330536      -0.109090285065129     
 -0.117065835799722      -0.125041386534314      -0.133016937268906     
 -0.140992488003499      -0.148968038738092      -0.156943589472684     
 -0.164919140207277      -0.172894690941870      -9.654668146178703E-002
 -0.104522232196380      -0.112497782930972      -0.120473333665565     
 -0.128448884400157      -0.136424435134750      -0.144399985869342     
 -0.152375536603935      -0.160351087338528      -0.168326638073120     
 -0.176302188807713      -0.106715436782431      -0.114690987517024     
 -0.122666538251616      -0.130642088986209      -0.138617639720801     
 -0.146593190455394      -0.154568741189987      -0.162544291924579     
 -0.170519842659172      -0.178495393393765      -0.186470944128357     
 -0.123485082211951      -0.131460632946543      -0.139436183681136     
 -0.147411734415728      -0.155387285150321      -0.163362835884913     
 -0.171338386619506      -0.179313937354098      -0.187289488088691     
 -0.195265038823284      -0.203240589557876      -0.146591150424221     
 -0.154566701158813      -0.162542251893405      -0.170517802627998     
 -0.178493353362591      -0.186468904097183      -0.194444454831776     
 -0.202420005566368      -0.210395556300961      -0.218371107035553     
 -0.226346657770146      -0.175669244920638      -0.183644795655230     
 -0.191620346389822      -0.199595897124415      -0.207571447859008     
 -0.215546998593600      -0.223522549328193      -0.231498100062785     
 -0.239473650797378      -0.247449201531971      -0.255424752266563     
 -0.210260786780581      -0.218236337515173      -0.226211888249766     
 -0.234187438984359      -0.242162989718951      -0.250138540453544     
 -0.258114091188136      -0.266089641922730      -0.274065192657322     
 -0.282040743391914      -0.290016294126506      -0.249820246724935     
 -0.257795797459528      -0.265771348194121      -0.273746898928713     
 -0.281722449663306      -0.289698000397898      -0.297673551132491     
 -0.305649101867083      -0.313624652601676      -0.321600203336268     
 -0.329575754070861      -0.293723748438701      -0.301699299173294     
 -0.309674849907886      -0.317650400642479      -0.325625951377071     
 -0.333601502111664      -0.341577052846257      -0.349552603580848     
 -0.357528154315442      -0.365503705050034      -0.373479255784627     
 -0.341278907473172      -0.349254458207764      -0.357230008942356     
 -0.365205559676949      -0.373181110411542      -0.381156661146134     
 -0.389132211880727      -0.397107762615319      -0.405083313349912     
 -0.413058864084505      -0.421034414819097      -0.391735750562298     
 -0.399711301296891      -0.407686852031484      -0.415662402766077     
 -0.423637953500668      -0.431613504235261      -0.439589054969854     
 -0.447564605704446      -0.455540156439039      -0.463515707173632     
 -0.471491257908224      -0.444298543149109      -0.452274093883703     
 -0.460249644618294      -0.468225195352887      -0.476200746087480     
 -0.484176296822073      -0.492151847556665      -0.500127398291257     
 -0.508102949025849      -0.516078499760442      -0.524054050495035     
 -0.498138338595019      -0.506113889329614      -0.514089440064204     
 -0.522064990798798      -0.530040541533389      -0.538016092267983     
 -0.545991643002576      -0.553967193737167      -0.561942744471760     
 -0.569918295206352      -0.577893845940946      -0.552406051163513     
 -0.560381601898106      -0.568357152632699      -0.576332703367291     
 -0.584308254101882      -0.592283804836475      -0.600259355571068     
 -0.608234906305662      -0.616210457040254      -0.624186007774846     
 -0.632161558509439      -0.606245846609423      -0.614221397344016     
 -0.622196948078608      -0.630172498813201      -0.638148049547793     
 -0.646123600282385      -0.654099151016978      -0.662074701751571     
 -0.670050252486164      -0.678025803220756      -0.686001353955349     
 -0.658808639196234      -0.666784189930827      -0.674759740665420     
 -0.682735291400013      -0.690710842134604      -0.698686392869196     
 -0.706661943603789      -0.714637494338384      -0.722613045072975     
 -0.730588595807567      -0.738564146542160      -0.709265482285361     
 -0.717241033019954      -0.725216583754545      -0.733192134489139     
 -0.741167685223732      -0.749143235958323      -0.757118786692917     
 -0.765094337427509      -0.773069888162101      -0.781045438896694     
 -0.789020989631287      -0.756820641319831      -0.764796192054424     
 -0.772771742789017      -0.780747293523610      -0.788722844258201     
 -0.796698394992795      -0.804673945727387      -0.812649496461979     
 -0.820625047196572      -0.828600597931165      -0.836576148665757     
 -0.800724143033596      -0.808699693768189      -0.816675244502783     
 -0.824650795237376      -0.832626345971966      -0.840601896706559     
 -0.848577447441153      -0.856552998175745      -0.864528548910338     
 -0.872504099644929      -0.880479650379522      -0.840283602977951     
 -0.848259153712545      -0.856234704447136      -0.864210255181729     
 -0.872185805916322      -0.880161356650915      -0.888136907385507     
 -0.896112458120099      -0.904088008854691      -0.912063559589284     
 -0.920039110323876      -0.874875144837892      -0.882850695572487     
 -0.890826246307082      -0.898801797041672      -0.906777347776264     
 -0.914752898510857      -0.922728449245451      -0.930703999980044     
 -0.938679550714634      -0.946655101449227      -0.954630652183819     
 -0.903953239334311      -0.911928790068905      -0.919904340803497     
 -0.927879891538089      -0.935855442272680      -0.943830993007276     
 -0.951806543741866      -0.959782094476459      -0.967757645211053     
 -0.975733195945646      -0.983708746680239      -0.927059307546583     
 -0.935034858281175      -0.943010409015767      -0.950985959750359     
 -0.958961510484952      -0.966937061219544      -0.974912611954137     
 -0.982888162688730      -0.990863713423320      -0.998839264157915     
  -1.00681481489251      -0.943828952976102      -0.951804503710695     
 -0.959780054445287      -0.967755605179879      -0.975731155914472     
 -0.983706706649067      -0.991682257383656      -0.999657808118249     
  -1.00763335885284       -1.01560890958743       -1.02358446032203     
 -0.953997708296745      -0.961973259031338      -0.969948809765931     
 -0.977924360500523      -0.985899911235116      -0.993875461969705     
  -1.00185101270430       -1.00982656343889       -1.01780211417348     
  -1.02577766490808       -1.03375321564267      -0.957405206162589     
 -0.965380756897180      -0.973356307631774      -0.981331858366366     
 -0.989307409100958      -0.997282959835551       -1.00525851057014     
  -1.01323406130474       -1.02120961203933       -1.02918516277392     
  -1.03716071350852     
 -0.252278506436965      -0.235058273039195      -0.217838039641424     
 -0.200617806243654      -0.183397572845883      -0.166177339448112     
 -0.148957106050342      -0.131736872652571      -0.114516639254801     
 -9.729640585702994E-002 -8.007617245925971E-002 -0.253856689001585     
 -0.236636455603814      -0.219416222206044      -0.202195988808274     
 -0.184975755410503      -0.167755522012733      -0.150535288614962     
 -0.133315055217191      -0.116094821819421      -9.887458842165014E-002
 -8.165435502387955E-002 -0.258566347813640      -0.241346114415870     
 -0.224125881018100      -0.206905647620329      -0.189685414222558     
 -0.172465180824788      -0.155244947427017      -0.138024714029246     
 -0.120804480631476      -0.103584247233706      -8.636401383593491E-002
 -0.266333208740251      -0.249112975342480      -0.231892741944710     
 -0.214672508546939      -0.197452275149169      -0.180232041751398     
 -0.163011808353627      -0.145791574955857      -0.128571341558087     
 -0.111351108160316      -9.413087476254554E-002 -0.277034783744907     
 -0.259814550347136      -0.242594316949365      -0.225374083551595     
 -0.208153850153824      -0.190933616756053      -0.173713383358283     
 -0.156493149960513      -0.139272916562742      -0.122052683164971     
 -0.104832449767201      -0.290502302596973      -0.273282069199202     
 -0.256061835801431      -0.238841602403661      -0.221621369005890     
 -0.204401135608120      -0.187180902210349      -0.169960668812579     
 -0.152740435414808      -0.135520202017037      -0.118299968619267     
 -0.306523374479046      -0.289303141081275      -0.272082907683505     
 -0.254862674285734      -0.237642440887963      -0.220422207490193     
 -0.203201974092422      -0.185981740694652      -0.168761507296881     
 -0.151541273899111      -0.134321040501340      -0.324845337517022     
 -0.307625104119252      -0.290404870721481      -0.273184637323711     
 -0.255964403925940      -0.238744170528169      -0.221523937130399     
 -0.204303703732629      -0.187083470334857      -0.169863236937087     
 -0.152643003539317      -0.345179243408781      -0.327959010011012     
 -0.310738776613241      -0.293518543215471      -0.276298309817700     
 -0.259078076419929      -0.241857843022159      -0.224637609624388     
 -0.207417376226618      -0.190197142828847      -0.172976909431077     
 -0.367204414311527      -0.349984180913755      -0.332763947515984     
 -0.315543714118215      -0.298323480720444      -0.281103247322674     
 -0.263883013924903      -0.246662780527132      -0.229442547129362     
 -0.212222313731592      -0.195002080333821      -0.390573500122919     
 -0.373353266725149      -0.356133033327378      -0.338912799929607     
 -0.321692566531836      -0.304472333134066      -0.287252099736296     
 -0.270031866338524      -0.252811632940755      -0.235591399542984     
 -0.218371166145213      -0.414917956399699      -0.397697723001929     
 -0.380477489604157      -0.363257256206387      -0.346037022808617     
 -0.328816789410846      -0.311596556013076      -0.294376322615305     
 -0.277156089217534      -0.259935855819764      -0.242715622421994     
 -0.439853856523708      -0.422633623125939      -0.405413389728168     
 -0.388193156330397      -0.370972922932625      -0.353752689534857     
 -0.336532456137086      -0.319312222739315      -0.302091989341544     
 -0.284871755943774      -0.267651522546003      -0.464987946454008     
 -0.447767713056237      -0.430547479658467      -0.413327246260696     
 -0.396107012862925      -0.378886779465154      -0.361666546067383     
 -0.344446312669614      -0.327226079271843      -0.310005845874072     
 -0.292785612476302      -0.489923846578017      -0.472703613180247     
 -0.455483379782475      -0.438263146384706      -0.421042912986935     
 -0.403822679589165      -0.386602446191394      -0.369382212793624     
 -0.352161979395853      -0.334941745998082      -0.317721512600312     
 -0.514268302854796      -0.497048069457026      -0.479827836059256     
 -0.462607602661486      -0.445387369263715      -0.428167135865944     
 -0.410946902468174      -0.393726669070404      -0.376506435672633     
 -0.359286202274861      -0.342065968877092      -0.537637388666190     
 -0.520417155268420      -0.503196921870648      -0.485976688472878     
 -0.468756455075108      -0.451536221677338      -0.434315988279566     
 -0.417095754881796      -0.399875521484027      -0.382655288086255     
 -0.365435054688485      -0.559662559568934      -0.542442326171164     
 -0.525222092773393      -0.508001859375622      -0.490781625977852     
 -0.473561392580082      -0.456341159182310      -0.439120925784540     
 -0.421900692386768      -0.404680458988999      -0.387460225591229     
 -0.579996465460694      -0.562776232062923      -0.545555998665153     
 -0.528335765267383      -0.511115531869612      -0.493895298471841     
 -0.476675065074071      -0.459454831676300      -0.442234598278529     
 -0.425014364880759      -0.407794131482989      -0.598318428498670     
 -0.581098195100902      -0.563877961703128      -0.546657728305360     
 -0.529437494907589      -0.512217261509817      -0.494997028112047     
 -0.477776794714276      -0.460556561316506      -0.443336327918735     
 -0.426116094520965      -0.614339500380743      -0.597119266982972     
 -0.579899033585204      -0.562678800187432      -0.545458566789661     
 -0.528238333391891      -0.511018099994121      -0.493797866596351     
 -0.476577633198579      -0.459357399800808      -0.442137166403038     
 -0.627807019232810      -0.610586785835040      -0.593366552437268     
 -0.576146319039498      -0.558926085641727      -0.541705852243957     
 -0.524485618846186      -0.507265385448414      -0.490045152050647     
 -0.472824918652875      -0.455604685255103      -0.638508594237467     
 -0.621288360839694      -0.604068127441924      -0.586847894044152     
 -0.569627660646382      -0.552407427248614      -0.535187193850842     
 -0.517966960453072      -0.500746727055300      -0.483526493657531     
 -0.466306260259759      -0.646275455164076      -0.629055221766305     
 -0.611834988368536      -0.594614754970764      -0.577394521572994     
 -0.560174288175223      -0.542954054777454      -0.525733821379682     
 -0.508513587981912      -0.491293354584141      -0.474073121186369     
 -0.650985113976130      -0.633764880578361      -0.616544647180589     
 -0.599324413782819      -0.582104180385048      -0.564883946987277     
 -0.547663713589507      -0.530443480191737      -0.513223246793965     
 -0.496003013396196      -0.478782779998425      -0.652563296540750     
 -0.635343063142979      -0.618122829745209      -0.600902596347439     
 -0.583682362949669      -0.566462129551899      -0.549241896154128     
 -0.532021662756357      -0.514801429358587      -0.497581195960815     
 -0.480360962563045     
  1.660316899342888E-002  1.494285209408599E-002  1.328253519474311E-002
  1.162221829540022E-002  9.961901396057328E-003  8.301584496714441E-003
  6.641267597371552E-003  4.980950698028665E-003  3.320633798685776E-003
  1.660316899342887E-003  0.000000000000000E+000  1.660316899342888E-002
  1.494285209408599E-002  1.328253519474311E-002  1.162221829540022E-002
  9.961901396057328E-003  8.301584496714441E-003  6.641267597371552E-003
  4.980950698028665E-003  3.320633798685776E-003  1.660316899342887E-003
  0.000000000000000E+000  1.660316899342888E-002  1.494285209408599E-002
  1.328253519474311E-002  1.162221829540022E-002  9.961901396057328E-003
  8.301584496714441E-003  6.641267597371552E-003  4.980950698028665E-003
  3.320633798685776E-003  1.660316899342887E-003  0.000000000000000E+000
  1.660316899342888E-002  1.494285209408599E-002  1.328253519474311E-002
  1.162221829540022E-002  9.961901396057328E-003  8.301584496714441E-003
  6.641267597371552E-003  4.980950698028665E-003  3.320633798685776E-003
  1.660316899342887E-003  0.000000000000000E+000  1.660316899342888E-002
  1.494285209408599E-002  1.328253519474311E-002  1.162221829540022E-002
  9.961901396057328E-003  8.301584496714441E-003  6.641267597371552E-003
  4.980950698028665E-003  3.320633798685776E-003  1.660316899342887E-003
  0.000000000000000E+000  1.660316899342888E-002  1.494285209408599E-002
  1.328253519474311E-002  1.162221829540022E-002  9.961901396057328E-003
  8.301584496714441E-003  6.641267597371552E-003  4.980950698028665E-003
  3.320633798685776E-003  1.660316899342887E-003  0.000000000000000E+000
  1.660316899342888E-002  1.494285209408599E-002  1.328253519474311E-002
  1.162221829540022E-002  9.961901396057328E-003  8.301584496714441E-003
  6.641267597371552E-003  4.980950698028665E-003  3.320633798685776E-003
  1.660316899342887E-003  0.000000000000000E+000  1.660316899342888E-002
  1.494285209408599E-002  1.328253519474311E-002  1.162221829540022E-002
  9.961901396057328E-003  8.301584496714441E-003  6.641267597371552E-003
  4.980950698028665E-003  3.320633798685776E-003  1.660316899342887E-003
  0.000000000000000E+000  1.660316899342888E-002  1.494285209408599E-002
  1.328253519474311E-002  1.162221829540022E-002  9.961901396057328E-003
  8.301584496714441E-003  6.641267597371552E-003  4.980950698028665E-003
  3.320633798685776E-003  1.660316899342887E-003  0.000000000000000E+000
  1.660316899342888E-002  1.494285209408599E-002  1.328253519474311E-002
  1.162221829540022E-002  9.961901396057328E-003  8.301584496714441E-003
  6.641267597371552E-003  4.980950698028665E-003  3.320633798685776E-003
  1.660316899342887E-003  0.000000000000000E+000  1.660316899342888E-002
  1.494285209408599E-002  1.328253519474311E-002  1.162221829540022E-002
  9.961901396057328E-003  8.301584496714441E-003  6.641267597371552E-003
  4.980950698028665E-003  3.320633798685776E-003  1.660316899342887E-003
  0.000000000000000E+000  1.660316899342888E-002  1.494285209408599E-002
  1.328253519474311E-002  1.162221829540022E-002  9.961901396057328E-003
  8.301584496714441E-003  6.641267597371552E-003  4.980950698028665E-003
  3.320633798685776E-003  1.660316899342887E-003  0.000000000000000E+000
  1.660316899342888E-002  1.494285209408599E-002  1.328253519474311E-002
  1.162221829540022E-002  9.961901396057328E-003  8.301584496714441E-003
  6.641267597371552E-003  4.980950698028665E-003  3.320633798685776E-003
  1.660316899342887E-003  0.000000000000000E+000  1.660316899342888E-002
  1.494285209408599E-002  1.328253519474311E-002  1.162221829540022E-002
  9.961901396057328E-003  8.301584496714441E-003  6.641267597371552E-003
  4.980950698028665E-003  3.320633798685776E-003  1.660316899342887E-003
  0.000000000000000E+000  1.660316899342888E-002  1.494285209408599E-002
  1.328253519474311E-002  1.162221829540022E-002  9.961901396057328E-003
  8.301584496714441E-003  6.641267597371552E-003  4.980950698028665E-003
  3.320633798685776E-003  1.660316899342887E-003  0.000000000000000E+000
  1.660316899342888E-002  1.494285209408599E-002  1.328253519474311E-002
  1.162221829540022E-002  9.961901396057328E-003  8.301584496714441E-003
  6.641267597371552E-003  4.980950698028665E-003  3.320633798685776E-003
  1.660316899342887E-003  0.000000000000000E+000  1.660316899342888E-002
  1.494285209408599E-002  1.328253519474311E-002  1.162221829540022E-002
  9.961901396057328E-003  8.301584496714441E-003  6.641267597371552E-003
  4.980950698028665E-003  3.320633798685776E-003  1.660316899342887E-003
  0.000000000000000E+000  1.660316899342888E-002  1.494285209408599E-002
  1.328253519474311E-002  1.162221829540022E-002  9.961901396057328E-003
  8.301584496714441E-003  6.641267597371552E-003  4.980950698028665E-003
  3.320633798685776E-003  1.660316899342887E-003  0.000000000000000E+000
  1.660316899342888E-002  1.494285209408599E-002  1.328253519474311E-002
  1.162221829540022E-002  9.961901396057328E-003  8.301584496714441E-003
  6.641267597371552E-003  4.980950698028665E-003  3.320633798685776E-003
  1.660316899342887E-003  0.000000000000000E+000  1.660316899342888E-002
  1.494285209408599E-002  1.328253519474311E-002  1.162221829540022E-002
  9.961901396057328E-003  8.301584496714441E-003  6.641267597371552E-003
  4.980950698028665E-003  3.320633798685776E-003  1.660316899342887E-003
  0.000000000000000E+000  1.660316899342888E-002  1.494285209408599E-002
  1.328253519474311E-002  1.162221829540022E-002  9.961901396057328E-003
  8.301584496714441E-003  6.641267597371552E-003  4.980950698028665E-003
  3.320633798685776E-003  1.660316899342887E-003  0.000000000000000E+000
  1.660316899342888E-002  1.494285209408599E-002  1.328253519474311E-002
  1.162221829540022E-002  9.961901396057328E-003  8.301584496714441E-003
  6.641267597371552E-003  4.980950698028665E-003  3.320633798685776E-003
  1.660316899342887E-003  0.000000000000000E+000  1.660316899342888E-002
  1.494285209408599E-002  1.328253519474311E-002  1.162221829540022E-002
  9.961901396057328E-003  8.301584496714441E-003  6.641267597371552E-003
  4.980950698028665E-003  3.320633798685776E-003  1.660316899342887E-003
  0.000000000000000E+000  1.660316899342888E-002  1.494285209408599E-002
  1.328253519474311E-002  1.162221829540022E-002  9.961901396057328E-003
  8.301584496714441E-003  6.641267597371552E-003  4.980950698028665E-003
  3.320633798685776E-003  1.660316899342887E-003  0.000000000000000E+000
  1.660316899342888E-002  1.494285209408599E-002  1.328253519474311E-002
  1.162221829540022E-002  9.961901396057328E-003  8.301584496714441E-003
  6.641267597371552E-003  4.980950698028665E-003  3.320633798685776E-003
  1.660316899342887E-003  0.000000000000000E+000  1.660316899342888E-002
  1.494285209408599E-002  1.328253519474311E-002  1.162221829540022E-002
  9.961901396057328E-003  8.301584496714441E-003  6.641267597371552E-003
  4.980950698028665E-003  3.320633798685776E-003  1.660316899342887E-003
  0.000000000000000E+000
  2.618824289385695E-003  9.977014733872931E-003  1.837335893391741E-002
  2.706039386767943E-002  3.554782419675589E-002  4.337562908849181E-002
  5.003688267178975E-002  5.534981389902582E-002  5.931190442948685E-002
  6.186445615874459E-002  4.309937655155485E-003  1.618990604414013E-002
  2.992935171345496E-002  4.416429777645155E-002  5.807335109163243E-002
  7.089485471460419E-002  8.188602626030289E-002  9.073451943672083E-002
  9.743484837999770E-002  0.102104939846248       6.101841624930774E-003
  2.107262843644965E-002  3.866356757198147E-002  5.694215786814284E-002
  7.480878722203270E-002  9.130260069850873E-002  0.105618189414981     
  0.117336689131061       0.126354845855874       0.132566541238558     
  9.623093041154569E-003  2.673679143168800E-002  4.651866387233366E-002
  6.697782937415411E-002  8.691200789683536E-002  0.105395764524713     
  0.121648008308364       0.135192807014062       0.145771982536149     
  0.152873845429507       1.782655691804454E-002  3.792223699729546E-002
  5.950764698923729E-002  8.128435438940734E-002  0.102271217144891     
  0.121749890821922       0.139107825387017       0.153802297516461     
  0.165373862094233       0.173097369847613       3.333708825368576E-002
  5.918844176897772E-002  8.395972096195306E-002  0.107753761252572     
  0.130137426199434       0.150673952526234       0.168966842725581     
  0.184589089162545       0.197005047333681       0.205294279033238     
  5.718119529864302E-002  9.257737671334951E-002  0.123014759242457     
  0.150556137429649       0.175605873412422       0.198136059034756     
  0.217962917936458       0.234784566179661       0.248124205501159     
  0.257021397774358       8.857460991000271E-002  0.137223916586501     
  0.175979749069736       0.209299828448946       0.238571350409648     
  0.264276149095749       0.286500866413539       0.305110740669271     
  0.319737106952759       0.329409192308432       0.126062879396892     
  0.191089306989770       0.240493014089528       0.281453319362536     
  0.316438766150085       0.346493893143619       0.372040341755524     
  0.393143754114375       0.409537897642809       0.420250182732128     
  0.168475715535599       0.252426107610525       0.314412805796356     
  0.364596050521012       0.406604191709317       0.442082600753347     
  0.471818551901896       0.496109588948141       0.514800258515481     
  0.526887468415293       0.215041803830725       0.320027223626321     
  0.396180787767981       0.456880320217476       0.506994346489525     
  0.548807182048964       0.583489780389080       0.611575373791558     
  0.633025912101883       0.646799422277143       0.265121016965175     
  0.392875089550810       0.484461677278336       0.556691793484509     
  0.615756107895072       0.664614943051527       0.704834626298887     
  0.737188092608202       0.761757755092017       0.777457839255807     
  0.318035636629692       0.469915387086771       0.577896232278864     
  0.662405607317847       0.731028373742782       0.787433837986901     
  0.833598122255539       0.870539452113529       0.898468064809426     
  0.916258032964567       0.373151398832668       0.550167320191763     
  0.675225082613369       0.772514291835486       0.851074162493259     
  0.915317272109001       0.967648933990146        1.00934238969197     
   1.04073923875600        1.06068675448965       0.430150804261522     
  0.633096593315890       0.775712760943764       0.886084910918915     
  0.974759086835067        1.04692711319088        1.10545141510710     
   1.15188262329585        1.18671388009759        1.20878689327490     
  0.489230721789913       0.718953088428833       0.879588380256475     
   1.00325954996093        1.10208018779376        1.18206437237890     
   1.24658302165100        1.29751631756181        1.33555660488576     
   1.35959305663521       0.551914626026520       0.809970328628455     
  0.989437705912203        1.12670784290478        1.23559718076165     
   1.32305179689768        1.39304721741225        1.44789684889011     
   1.48859921475374        1.51420283895952       0.628103527300765     
  0.919131716024393        1.11929231247561        1.27058492041694     
   1.38918671628006        1.48333436480354        1.55781812271593     
   1.61552852188063        1.65791145091106        1.68435710705886     
  0.757692914584823        1.09347889698745        1.31711132945857     
   1.48281936844132        1.61083317700358        1.71113480349761     
   1.78956552950832        1.84974422036288        1.89363466200014     
   1.92095638263320       0.942293578955450        1.33520707820009     
   1.58459873524392        1.76329282122621        1.89761813162456     
   2.00070287690812        2.08013292476595        2.14050082479342     
   2.18435790080445        2.21185970070630        1.03250132588789     
   1.45126326439614        1.70791116195320        1.88504137870305     
   2.01442152003620        2.11151748318250        2.18491400638473     
   2.23962366954409        2.27840129354292        2.30193334869551     
   1.00028270425111        1.39116410428913        1.62269811089614     
   1.77800670325263        1.88902219039412        1.97103269194970     
   2.03219792138828        2.07703696092135        2.10783707357346     
   2.12517817161910       0.877284750776752        1.19442004906498     
   1.37528331783083        1.49474189101521        1.57954874563963     
   1.64198018543061        1.68843275913231        1.72240784540347     
   1.74572320243253        1.75897253880799       0.674895437661478     
  0.890252771623981        1.01143678011837        1.09168619513801     
   1.14887338226890        1.19112830578491        1.22271670677043     
   1.24605304849006        1.26270912806209        1.27491810161955     
  0.411062567743390       0.531717496705470       0.600278040942920     
  0.645952063097779       0.678623017929591       0.702825483153704     
  0.720950030952932       0.734327607746079       0.743691480750742     
  0.749298934738828     
  0.000000000000000E+000  0.000000000000000E+000  0.000000000000000E+000
  0.000000000000000E+000  0.000000000000000E+000  0.000000000000000E+000
  0.000000000000000E+000  0.000000000000000E+000  0.000000000000000E+000
  0.000000000000000E+000  0.000000000000000E+000  0.000000000000000E+000
  0.000000000000000E+000  0.000000000000000E+000  0.000000000000000E+000
  0.000000000000000E+000  0.000000000000000E+000  0.000000000000000E+000
  0.000000000000000E+000  0.000000000000000E+000  0.000000000000000E+000
  0.000000000000000E+000  0.000000000000000E+000  0.000000000000000E+000
  0.000000000000000E+000  0.000000000000000E+000  0.000000000000000E+000
  0.000000000000000E+000  0.000000000000000E+000  0.000000000000000E+000
  0.000000000000000E+000  0.000000000000000E+000  0.000000000000000E+000
  0.000000000000000E+000  0.000000000000000E+000  0.000000000000000E+000
  0.000000000000000E+000  0.000000000000000E+000  0.000000000000000E+000
  0.000000000000000E+000  0.000000000000000E+000  0.000000000000000E+000
  0.000000000000000E+000  0.000000000000000E+000  0.000000000000000E+000
  0.000000000000000E+000  0.000000000000000E+000  0.000000000000000E+000
  0.000000000000000E+000  0.000000000000000E+000  0.000000000000000E+000
  0.000000000000000E+000  0.000000000000000E+000  0.000000000000000E+000
  0.000000000000000E+000  0.000000000000000E+000  0.000000000000000E+000
  0.000000000000000E+000  0.000000000000000E+000  0.000000000000000E+000
  0.000000000000000E+000  0.000000000000000E+000  0.000000000000000E+000
  0.000000000000000E+000  0.000000000000000E+000  0.000000000000000E+000
  0.000000000000000E+000  0.000000000000000E+000  0.000000000000000E+000
  0.000000000000000E+000  0.000000000000000E+000  0.000000000000000E+000
  0.000000000000000E+000  0.000000000000000E+000  0.000000000000000E+000
  0.000000000000000E+000  0.000000000000000E+000  0.000000000000000E+000
  0.000000000000000E+000  0.000000000000000E+000  0.000000000000000E+000
  0.000000000000000E+000  0.000000000000000E+000  0.000000000000000E+000
  0.000000000000000E+000  0.000000000000000E+000  0.000000000000000E+000
  0.000000000000000E+000  0.000000000000000E+000  0.000000000000000E+000
  0.000000000000000E+000  0.000000000000000E+000  0.000000000000000E+000
  0.000000000000000E+000  0.000000000000000E+000  0.000000000000000E+000
  0.000000000000000E+000  0.000000000000000E+000  0.000000000000000E+000
  0.000000000000000E+000  0.000000000000000E+000  0.000000000000000E+000
  0.000000000000000E+000  0.000000000000000E+000  0.000000000000000E+000
  0.000000000000000E+000  0.000000000000000E+000  0.000000000000000E+000
  0.000000000000000E+000  0.000000000000000E+000  0.000000000000000E+000
  0.000000000000000E+000  0.000000000000000E+000  0.000000000000000E+000
  0.000000000000000E+000  0.000000000000000E+000  0.000000000000000E+000