 Title = "Wing and Wake"
 VARIABLES = "X" "Y" "Z" "GAM" "skew"
 Zone I=   11 J=   26 K=1  T="Blade"
 DATAPACKING=BLOCK
 VARLOCATION=([4]=CELLCENTERED,[5]=CELLCENTERED)
 -0.256851562272874      -0.248043769289713      -0.239235976306550     
 -0.230428183323388      -0.221620390340226      -0.212812597357064     
 -0.204004804373902      -0.195197011390740      -0.186389218407578     
 -0.177581425424416      -0.168773632441254      -0.260177840189340     
 -0.251370047206178      -0.242562254223016      -0.233754461239854     
 -0.224946668256692      -0.216138875273530      -0.207331082290368     
 -0.198523289307206      -0.189715496324044      -0.180907703340882     
 -0.172099910357720      -0.270104216548974      -0.261296423565812     
 -0.252488630582650      -0.243680837599487      -0.234873044616325     
 -0.226065251633163      -0.217257458650001      -0.208449665666839     
 -0.199641872683677      -0.190834079700515      -0.182026286717353     
 -0.286474146466853      -0.277666353483691      -0.268858560500530     
 -0.260050767517367      -0.251242974534205      -0.242435181551043     
 -0.233627388567881      -0.224819595584719      -0.216011802601557     
 -0.207204009618395      -0.198396216635233      -0.309029466369252     
 -0.300221673386090      -0.291413880402927      -0.282606087419765     
 -0.273798294436604      -0.264990501453442      -0.256182708470280     
 -0.247374915487118      -0.238567122503955      -0.229759329520793     
 -0.220951536537632      -0.337414465387414      -0.328606672404251     
 -0.319798879421089      -0.310991086437927      -0.302183293454766     
 -0.293375500471603      -0.284567707488441      -0.275759914505279     
 -0.266952121522117      -0.258144328538955      -0.249336535555793     
 -0.371181495130445      -0.362373702147283      -0.353565909164121     
 -0.344758116180960      -0.335950323197797      -0.327142530214635     
 -0.318334737231473      -0.309526944248311      -0.300719151265149     
 -0.291911358281987      -0.283103565298825      -0.409798029367854     
 -0.400990236384692      -0.392182443401531      -0.383374650418368     
 -0.374566857435206      -0.365759064452044      -0.356951271468882     
 -0.348143478485720      -0.339335685502558      -0.330527892519396     
 -0.321720099536234      -0.452655062286316      -0.443847269303155     
 -0.435039476319992      -0.426231683336831      -0.417423890353669     
 -0.408616097370506      -0.399808304387344      -0.391000511404182     
 -0.382192718421020      -0.373384925437858      -0.364577132454696     
 -0.499076712875158      -0.490268919891995      -0.481461126908833     
 -0.472653333925671      -0.463845540942509      -0.455037747959347     
 -0.446229954976186      -0.437422161993023      -0.428614369009861     
 -0.419806576026700      -0.410998783043537      -0.548330883973641     
 -0.539523090990480      -0.530715298007318      -0.521907505024156     
 -0.513099712040993      -0.504291919057831      -0.495484126074669     
 -0.486676333091506      -0.477868540108346      -0.469060747125183     
 -0.460252954142021      -0.599640807880530      -0.590833014897368     
 -0.582025221914205      -0.573217428931043      -0.564409635947882     
 -0.555601842964720      -0.546794049981558      -0.537986256998396     
 -0.529178464015233      -0.520370671032072      -0.511562878048909     
 -0.652197296444747      -0.643389503461587      -0.634581710478424     
 -0.625773917495261      -0.616966124512099      -0.608158331528938     
 -0.599350538545776      -0.590542745562613      -0.581734952579452     
 -0.572927159596289      -0.564119366613128      -0.705171502445914     
 -0.696363709462752      -0.687555916479590      -0.678748123496427     
 -0.669940330513264      -0.661132537530102      -0.652324744546941     
 -0.643516951563780      -0.634709158580617      -0.625901365597455     
 -0.617093572614293      -0.757727991010132      -0.748920198026970     
 -0.740112405043807      -0.731304612060646      -0.722496819077484     
 -0.713689026094321      -0.704881233111159      -0.696073440127998     
 -0.687265647144835      -0.678457854161673      -0.669650061178512     
 -0.809037914917019      -0.800230121933857      -0.791422328950697     
 -0.782614535967534      -0.773806742984371      -0.764998950001209     
 -0.756191157018047      -0.747383364034887      -0.738575571051724     
 -0.729767778068561      -0.720959985085400      -0.858292086015504     
 -0.849484293032342      -0.840676500049179      -0.831868707066018     
 -0.823060914082856      -0.814253121099694      -0.805445328116531     
 -0.796637535133369      -0.787829742150209      -0.779021949167044     
 -0.770214156183884      -0.904713736604345      -0.895905943621183     
 -0.887098150638021      -0.878290357654859      -0.869482564671696     
 -0.860674771688535      -0.851866978705372      -0.843059185722210     
 -0.834251392739048      -0.825443599755887      -0.816635806772724     
 -0.947570769522807      -0.938762976539644      -0.929955183556483     
 -0.921147390573322      -0.912339597590159      -0.903531804606997     
 -0.894724011623835      -0.885916218640673      -0.877108425657511     
 -0.868300632674349      -0.859492839691187      -0.986187303760216     
 -0.977379510777055      -0.968571717793892      -0.959763924810730     
 -0.950956131827569      -0.942148338844405      -0.933340545861245     
 -0.924532752878082      -0.915724959894919      -0.906917166911757     
 -0.898109373928595       -1.01995433350325       -1.01114654052009     
  -1.00233874753693      -0.993530954553761      -0.984723161570599     
 -0.975915368587437      -0.967107575604276      -0.958299782621115     
 -0.949491989637950      -0.940684196654789      -0.931876403671627     
  -1.04833933252141       -1.03953153953825       -1.03072374655509     
  -1.02191595357192       -1.01310816058876       -1.00430036760560     
 -0.995492574622437      -0.986684781639274      -0.977876988656114     
 -0.969069195672951      -0.960261402689789       -1.07089465242381     
  -1.06208685944065       -1.05327906645748       -1.04447127347432     
  -1.03566348049116       -1.02685568750800       -1.01804789452484     
  -1.00924010154167       -1.00043230855851      -0.991624515575351     
 -0.982816722592186       -1.08726458234169       -1.07845678935853     
  -1.06964899637536       -1.06084120339220       -1.05203341040904     
  -1.04322561742588       -1.03441782444272       -1.02561003145955     
  -1.01680223847639       -1.00799444549323      -0.999186652510067     
  -1.09719095870132       -1.08838316571816       -1.07957537273500     
  -1.07076757975183       -1.06195978676867       -1.05315199378551     
  -1.04434420080235       -1.03553640781919       -1.02672861483602     
  -1.01792082185286       -1.00911302886970       -1.10051723661779     
  -1.09170944363462       -1.08290165065146       -1.07409385766830     
  -1.06528606468514       -1.05647827170198       -1.04767047871881     
  -1.03886268573565       -1.03005489275249       -1.02124709976933     
  -1.01243930678617     
 -7.966572217063544E-002 -6.285594434463487E-002 -4.604616651863382E-002
 -2.923638869263266E-002 -1.242661086663162E-002  4.383166959369490E-003
  2.119294478537054E-002  3.800272261137152E-002  5.481250043737248E-002
  7.162227826337353E-002  8.843205608937468E-002 -7.792285753578122E-002
 -6.111307970978005E-002 -4.430330188377927E-002 -2.749352405777832E-002
 -1.068374623177713E-002  6.126031594223807E-003  2.293580942022492E-002
  3.974558724622575E-002  5.655536507222707E-002  7.336514289822785E-002
  9.017492072422913E-002 -7.272174964764667E-002 -5.591197182164561E-002
 -3.910219399564484E-002 -2.229241616964365E-002 -5.482638343642711E-003
  1.132713948235837E-002  2.813691730835951E-002  4.494669513436040E-002
  6.175647296036166E-002  7.856625078636249E-002  9.537602861236344E-002
 -6.414442308461867E-002 -4.733464525861800E-002 -3.052486743261685E-002
 -1.371508960661579E-002  3.094688219385015E-003  1.990446604538609E-002
  3.671424387138741E-002  5.352402169738821E-002  7.033379952338920E-002
  8.714357734939035E-002  0.103953355175391      -5.232614741044341E-002
 -3.551636958444257E-002 -1.870659175844142E-002 -1.896813932440288E-003
  1.491296389356071E-002  3.172274171956175E-002  4.853251954556258E-002
  6.534229737156368E-002  8.215207519756458E-002  9.896185302356571E-002
  0.115771630849567      -3.745330389239788E-002 -2.064352606639692E-002
 -3.833748240395879E-003  1.297602958560501E-002  2.978580741160633E-002
  4.659558523760710E-002  6.340536306360806E-002  8.021514088960910E-002
  9.702491871561020E-002  0.113834696541611       0.130644474367613     
 -1.976044615736780E-002 -2.950668331367034E-003  1.385910949463416E-002
  3.066888732063529E-002  4.747866514663639E-002  6.428844297263724E-002
  8.109822079863802E-002  9.790799862463957E-002  0.114717776450641     
  0.131527554276641       0.148337332102642       4.733988589645636E-004
  1.728317668496561E-002  3.409295451096662E-002  5.090273233696766E-002
  6.771251016296852E-002  8.452228798896989E-002  0.101332065814971     
  0.118141843640972       0.134951621466973       0.151761399292974     
  0.168571177118975       2.292913133357895E-002  3.973890915957993E-002
  5.654868698558059E-002  7.335846481158194E-002  9.016824263758251E-002
  0.106978020463584       0.123787798289585       0.140597576115585     
  0.157407353941587       0.174217131767588       0.191026909593588     
  4.725261095094538E-002  6.406238877694596E-002  8.087216660294706E-002
  9.768194442894786E-002  0.114491722254949       0.131301500080950     
  0.148111277906951       0.164921055732952       0.181730833558953     
  0.198540611384954       0.215350389210955       7.306024190735562E-002
  8.987001973335659E-002  0.106679797559358       0.123489575385359     
  0.140299353211360       0.157109131037361       0.173918908863362     
  0.190728686689363       0.207538464515364       0.224348242341365     
  0.241158020167366       9.994502244589624E-002  0.116754800271898     
  0.133564578097899       0.150374355923899       0.167184133749901     
  0.183993911575902       0.200803689401903       0.217613467227904     
  0.234423245053905       0.251233022879906       0.268042800705907     
  0.127482963517285       0.144292741343287       0.161102519169288     
  0.177912296995288       0.194722074821290       0.211531852647290     
  0.228341630473292       0.245151408299293       0.261961186125294     
  0.278770963951295       0.295580741777296       0.155239775340458     
  0.172049553166460       0.188859330992461       0.205669108818462     
  0.222478886644462       0.239288664470463       0.256098442296465     
  0.272908220122466       0.289717997948466       0.306527775774468     
  0.323337553600468       0.182777716411847       0.199587494237848     
  0.216397272063849       0.233207049889850       0.250016827715850     
  0.266826605541852       0.283636383367853       0.300446161193854     
  0.317255939019855       0.334065716845856       0.350875494671858     
  0.209662496950388       0.226472274776390       0.243282052602391     
  0.260091830428391       0.276901608254392       0.293711386080392     
  0.310521163906393       0.327330941732396       0.344140719558397     
  0.360950497384397       0.377760275210398       0.235470127906799     
  0.252279905732799       0.269089683558800       0.285899461384802     
  0.302709239210803       0.319519017036803       0.336328794862806     
  0.353138572688806       0.369948350514807       0.386758128340808     
  0.403567906166809       0.259793607524165       0.276603385350166     
  0.293413163176167       0.310222941002169       0.327032718828169     
  0.343842496654170       0.360652274480171       0.377462052306172     
  0.394271830132173       0.411081607958175       0.427891385784175     
  0.282249339998778       0.299059117824780       0.315868895650781     
  0.332678673476783       0.349488451302783       0.366298229128784     
  0.383108006954785       0.399917784780786       0.416727562606788     
  0.433537340432788       0.450347118258789       0.302483185015111     
  0.319292962841112       0.336102740667114       0.352912518493114     
  0.369722296319115       0.386532074145117       0.403341851971118     
  0.420151629797119       0.436961407623119       0.453771185449121     
  0.470580963275121       0.320176042750141       0.336985820576143     
  0.353795598402144       0.370605376228144       0.387415154054144     
  0.404224931880146       0.421034709706148       0.437844487532149     
  0.454654265358150       0.471464043184151       0.488273821010151     
  0.335048886268186       0.351858664094188       0.368668441920190     
  0.385478219746190       0.402287997572190       0.419097775398192     
  0.435907553224193       0.452717331050194       0.469527108876195     
  0.486336886702195       0.503146664528198       0.346867161942362     
  0.363676939768364       0.380486717594365       0.397296495420367     
  0.414106273246367       0.430916051072366       0.447725828898368     
  0.464535606724370       0.481345384550370       0.498155162376372     
  0.514964940202373       0.355444488505390       0.372254266331392     
  0.389064044157392       0.405873821983395       0.422683599809394     
  0.439493377635397       0.456303155461395       0.473112933287398     
  0.489922711113399       0.506732488939400       0.523542266765401     
  0.360645596393525       0.377455374219527       0.394265152045527     
  0.411074929871528       0.427884707697529       0.444694485523529     
  0.461504263349530       0.478314041175532       0.495123819001532     
  0.511933596827533       0.528743374653535       0.362388461028380     
  0.379198238854380       0.396008016680381       0.412817794506382     
  0.429627572332382       0.446437350158384       0.463247127984385     
  0.480056905810388       0.496866683636388       0.513676461462388     
  0.530486239288390     
  1.660316899342888E-002  1.494285209408599E-002  1.328253519474311E-002
  1.162221829540022E-002  9.961901396057328E-003  8.301584496714441E-003
  6.641267597371552E-003  4.980950698028665E-003  3.320633798685776E-003
  1.660316899342887E-003  0.000000000000000E+000  1.660316899342888E-002
  1.494285209408599E-002  1.328253519474311E-002  1.162221829540022E-002
  9.961901396057328E-003  8.301584496714441E-003  6.641267597371552E-003
  4.980950698028665E-003  3.320633798685776E-003  1.660316899342887E-003
  0.000000000000000E+000  1.660316899342888E-002  1.494285209408599E-002
  1.328253519474311E-002  1.162221829540022E-002  9.961901396057328E-003
  8.301584496714441E-003  6.641267597371552E-003  4.980950698028665E-003
  3.320633798685776E-003  1.660316899342887E-003  0.000000000000000E+000
  1.660316899342888E-002  1.494285209408599E-002  1.328253519474311E-002
  1.162221829540022E-002  9.961901396057328E-003  8.301584496714441E-003
  6.641267597371552E-003  4.980950698028665E-003  3.320633798685776E-003
  1.660316899342887E-003  0.000000000000000E+000  1.660316899342888E-002
  1.494285209408599E-002  1.328253519474311E-002  1.162221829540022E-002
  9.961901396057328E-003  8.301584496714441E-003  6.641267597371552E-003
  4.980950698028665E-003  3.320633798685776E-003  1.660316899342887E-003
  0.000000000000000E+000  1.660316899342888E-002  1.494285209408599E-002
  1.328253519474311E-002  1.162221829540022E-002  9.961901396057328E-003
  8.301584496714441E-003  6.641267597371552E-003  4.980950698028665E-003
  3.320633798685776E-003  1.660316899342887E-003  0.000000000000000E+000
  1.660316899342888E-002  1.494285209408599E-002  1.328253519474311E-002
  1.162221829540022E-002  9.961901396057328E-003  8.301584496714441E-003
  6.641267597371552E-003  4.980950698028665E-003  3.320633798685776E-003
  1.660316899342887E-003  0.000000000000000E+000  1.660316899342888E-002
  1.494285209408599E-002  1.328253519474311E-002  1.162221829540022E-002
  9.961901396057328E-003  8.301584496714441E-003  6.641267597371552E-003
  4.980950698028665E-003  3.320633798685776E-003  1.660316899342887E-003
  0.000000000000000E+000  1.660316899342888E-002  1.494285209408599E-002
  1.328253519474311E-002  1.162221829540022E-002  9.961901396057328E-003
  8.301584496714441E-003  6.641267597371552E-003  4.980950698028665E-003
  3.320633798685776E-003  1.660316899342887E-003  0.000000000000000E+000
  1.660316899342888E-002  1.494285209408599E-002  1.328253519474311E-002
  1.162221829540022E-002  9.961901396057328E-003  8.301584496714441E-003
  6.641267597371552E-003  4.980950698028665E-003  3.320633798685776E-003
  1.660316899342887E-003  0.000000000000000E+000  1.660316899342888E-002
  1.494285209408599E-002  1.328253519474311E-002  1.162221829540022E-002
  9.961901396057328E-003  8.301584496714441E-003  6.641267597371552E-003
  4.980950698028665E-003  3.320633798685776E-003  1.660316899342887E-003
  0.000000000000000E+000  1.660316899342888E-002  1.494285209408599E-002
  1.328253519474311E-002  1.162221829540022E-002  9.961901396057328E-003
  8.301584496714441E-003  6.641267597371552E-003  4.980950698028665E-003
  3.320633798685776E-003  1.660316899342887E-003  0.000000000000000E+000
  1.660316899342888E-002  1.494285209408599E-002  1.328253519474311E-002
  1.162221829540022E-002  9.961901396057328E-003  8.301584496714441E-003
  6.641267597371552E-003  4.980950698028665E-003  3.320633798685776E-003
  1.660316899342887E-003  0.000000000000000E+000  1.660316899342888E-002
  1.494285209408599E-002  1.328253519474311E-002  1.162221829540022E-002
  9.961901396057328E-003  8.301584496714441E-003  6.641267597371552E-003
  4.980950698028665E-003  3.320633798685776E-003  1.660316899342887E-003
  0.000000000000000E+000  1.660316899342888E-002  1.494285209408599E-002
  1.328253519474311E-002  1.162221829540022E-002  9.961901396057328E-003
  8.301584496714441E-003  6.641267597371552E-003  4.980950698028665E-003
  3.320633798685776E-003  1.660316899342887E-003  0.000000000000000E+000
  1.660316899342888E-002  1.494285209408599E-002  1.328253519474311E-002
  1.162221829540022E-002  9.961901396057328E-003  8.301584496714441E-003
  6.641267597371552E-003  4.980950698028665E-003  3.320633798685776E-003
  1.660316899342887E-003  0.000000000000000E+000  1.660316899342888E-002
  1.494285209408599E-002  1.328253519474311E-002  1.162221829540022E-002
  9.961901396057328E-003  8.301584496714441E-003  6.641267597371552E-003
  4.980950698028665E-003  3.320633798685776E-003  1.660316899342887E-003
  0.000000000000000E+000  1.660316899342888E-002  1.494285209408599E-002
  1.328253519474311E-002  1.162221829540022E-002  9.961901396057328E-003
  8.301584496714441E-003  6.641267597371552E-003  4.980950698028665E-003
  3.320633798685776E-003  1.660316899342887E-003  0.000000000000000E+000
  1.660316899342888E-002  1.494285209408599E-002  1.328253519474311E-002
  1.162221829540022E-002  9.961901396057328E-003  8.301584496714441E-003
  6.641267597371552E-003  4.980950698028665E-003  3.320633798685776E-003
  1.660316899342887E-003  0.000000000000000E+000  1.660316899342888E-002
  1.494285209408599E-002  1.328253519474311E-002  1.162221829540022E-002
  9.961901396057328E-003  8.301584496714441E-003  6.641267597371552E-003
  4.980950698028665E-003  3.320633798685776E-003  1.660316899342887E-003
  0.000000000000000E+000  1.660316899342888E-002  1.494285209408599E-002
  1.328253519474311E-002  1.162221829540022E-002  9.961901396057328E-003
  8.301584496714441E-003  6.641267597371552E-003  4.980950698028665E-003
  3.320633798685776E-003  1.660316899342887E-003  0.000000000000000E+000
  1.660316899342888E-002  1.494285209408599E-002  1.328253519474311E-002
  1.162221829540022E-002  9.961901396057328E-003  8.301584496714441E-003
  6.641267597371552E-003  4.980950698028665E-003  3.320633798685776E-003
  1.660316899342887E-003  0.000000000000000E+000  1.660316899342888E-002
  1.494285209408599E-002  1.328253519474311E-002  1.162221829540022E-002
  9.961901396057328E-003  8.301584496714441E-003  6.641267597371552E-003
  4.980950698028665E-003  3.320633798685776E-003  1.660316899342887E-003
  0.000000000000000E+000  1.660316899342888E-002  1.494285209408599E-002
  1.328253519474311E-002  1.162221829540022E-002  9.961901396057328E-003
  8.301584496714441E-003  6.641267597371552E-003  4.980950698028665E-003
  3.320633798685776E-003  1.660316899342887E-003  0.000000000000000E+000
  1.660316899342888E-002  1.494285209408599E-002  1.328253519474311E-002
  1.162221829540022E-002  9.961901396057328E-003  8.301584496714441E-003
  6.641267597371552E-003  4.980950698028665E-003  3.320633798685776E-003
  1.660316899342887E-003  0.000000000000000E+000  1.660316899342888E-002
  1.494285209408599E-002  1.328253519474311E-002  1.162221829540022E-002
  9.961901396057328E-003  8.301584496714441E-003  6.641267597371552E-003
  4.980950698028665E-003  3.320633798685776E-003  1.660316899342887E-003
  0.000000000000000E+000
  1.829288823472193E-002  2.938300966222912E-002  3.902466306576960E-002
  4.784879725966808E-002  5.604610032153823E-002  6.366445624471039E-002
  7.054625994151351E-002  7.638610331352125E-002  8.115157276911318E-002
  8.452925157302080E-002  3.151491688116091E-002  5.071715505310988E-002
  6.719208109341955E-002  8.211612212076040E-002  9.582647472010797E-002
  0.108414038357436       0.119696980671188       0.129354499254491     
  0.137314884403052       0.143356009600878       4.584416604007819E-002
  7.363883384081818E-002  9.700985468888679E-002  0.117816164847434     
  0.136567539406985       0.153406913287198       0.168264830882795     
  0.181003934706268       0.191483145774820       0.199278734957029     
  6.107205255140673E-002  9.717364842948327E-002  0.126992909585985     
  0.153145813275793       0.176349063085757       0.196824354463690     
  0.214626424633752       0.229749571257609       0.242051790803275     
  0.250853929020397       7.744751742936296E-002  0.121705687106688     
  0.157587095801219       0.188640788295876       0.215905764543705     
  0.239744684779598       0.260308074502022       0.277582371916382     
  0.291360861600407       0.300913609779953       9.547095578649840E-002
  0.148201976403897       0.190097206268307       0.225854091864166     
  0.256938677726235       0.283915715842522       0.307038318936143     
  0.326341969980557       0.341543592602174       0.351764486403650     
  0.116167494856056       0.178293411351836       0.226614014889288     
  0.267250100991766       0.302228774877732       0.332396022460299     
  0.358090348027325       0.379353653976439       0.395942117972012     
  0.406970870477237       0.140830273823176       0.213975464958262     
  0.269696448268819       0.315856461332971       0.355158200817674     
  0.388780115979619       0.417239259327334       0.440675617056214     
  0.458885244234934       0.470902882652571       0.170498717952537     
  0.256847377222401       0.321379105119470       0.374074447651884     
  0.418456999011570       0.456114898254925       0.487798544263116     
  0.513779386638892       0.533886015331120       0.547088248670277     
  0.205558113962949       0.307581464461457       0.382611114155255     
  0.443104325490045       0.493540475428533       0.535985034208820     
  0.571460458634397       0.600402316527102       0.622714144029960     
  0.637308749572465       0.245884049279756       0.366060862238055     
  0.453308979277302       0.522896866193511       0.580381656641380     
  0.628380164539794       0.668240917240005       0.700589835594941     
  0.725419059035653       0.741595085625746       0.290995915059590     
  0.431582294429528       0.532609780794257       0.612465138748999     
  0.677910886165686       0.732177060408706       0.776971432225756     
  0.813136435165734       0.840770599823313       0.858692813313383     
  0.340220554311199       0.503128835084758       0.619246934592518     
  0.710349158592544       0.784509331430294       0.845627585355715     
  0.895802193733030       0.936111255960691       0.966770741583745     
  0.986561789541706       0.392956253450329       0.579770846489541     
  0.712029045440867       0.815131385955279       0.898559711499717     
  0.966938719942206        1.02278785497743        1.06743851477638     
   1.10124020451709        1.12295839353966       0.448979188856004     
  0.661087225769003       0.810332646441162       0.925981206754674     
   1.01901803253632        1.09485206967623        1.15646607763407     
   1.20547647596719        1.24239699873522        1.26600444301495     
  0.508625586429382       0.747457004028437       0.914459099602527     
   1.04303787285709        1.14580258188665        1.22902093148719     
   1.29621020061961        1.34933672249613        1.38913006902944     
   1.41443854039545       0.573776392611866       0.841363376508410     
   1.02702873447011        1.16877626018829        1.28107290054368     
   1.37120258971776        1.44333501390168        1.49989612020654     
   1.54193961733365        1.56849787264241       0.653714988559564     
  0.954418909265959        1.16006766536043        1.31486359471067     
   1.43587088602525        1.53177269111268        1.60759681119714     
   1.66635618556785        1.70955122512944        1.73656942632778     
  0.774201290404353        1.11658035992752        1.34349890250674     
   1.51051189939967        1.63888320703104        1.73918036607488     
   1.81748486511376        1.87749496143564        1.92119978054861     
   1.94836492633318       0.919267571689799        1.30685065748486     
   1.55367003094747        1.72990857290583        1.86219447824661     
   1.96363178816896        2.04170176447147        2.10090678113761     
   2.14374348008249        2.17042211725931       0.981181852242813     
   1.38344977579955        1.63166880098873        1.80327849690672     
   1.92862166679471        2.02270692515759        2.09383775323514     
   2.14681855471345        2.18427058423572        2.20685711104671     
  0.943591941021148        1.31468799311035        1.53569947258191     
   1.68445179125583        1.79098030278764        1.86976951140381     
   1.92856651612601        1.97165534821318        2.00120453028945     
   2.01778347150456       0.827114510832670        1.12710674448994     
   1.29885216313874        1.41263918274515        1.49358682764788     
   1.55325399151008        1.59767605900515        1.63016122668138     
   1.65243884499967        1.66510989248656       0.636817268709891     
  0.840338812239648       0.955204044123724        1.03147542176796     
   1.08593364581284        1.12622127070445        1.15635497944232     
   1.17861445984323        1.19449665896533        1.20614981596893     
  0.388045920899396       0.502045100105254       0.566999971994668     
  0.610382912047466       0.641472978146792       0.664531017102581     
  0.681807120390456       0.694557767462028       0.703481979612759     
  0.708842287387101     
  0.000000000000000E+000  0.000000000000000E+000  0.000000000000000E+000
  0.000000000000000E+000  0.000000000000000E+000  0.000000000000000E+000
  0.000000000000000E+000  0.000000000000000E+000  0.000000000000000E+000
  0.000000000000000E+000  0.000000000000000E+000  0.000000000000000E+000
  0.000000000000000E+000  0.000000000000000E+000  0.000000000000000E+000
  0.000000000000000E+000  0.000000000000000E+000  0.000000000000000E+000
  0.000000000000000E+000  0.000000000000000E+000  0.000000000000000E+000
  0.000000000000000E+000  0.000000000000000E+000  0.000000000000000E+000
  0.000000000000000E+000  0.000000000000000E+000  0.000000000000000E+000
  0.000000000000000E+000  0.000000000000000E+000  0.000000000000000E+000
  0.000000000000000E+000  0.000000000000000E+000  0.000000000000000E+000
  0.000000000000000E+000  0.000000000000000E+000  0.000000000000000E+000
  0.000000000000000E+000  0.000000000000000E+000  0.000000000000000E+000
  0.000000000000000E+000  0.000000000000000E+000  0.000000000000000E+000
  0.000000000000000E+000  0.000000000000000E+000  0.000000000000000E+000
  0.000000000000000E+000  0.000000000000000E+000  0.000000000000000E+000
  0.000000000000000E+000  0.000000000000000E+000  0.000000000000000E+000
  0.000000000000000E+000  0.000000000000000E+000  0.000000000000000E+000
  0.000000000000000E+000  0.000000000000000E+000  0.000000000000000E+000
  0.000000000000000E+000  0.000000000000000E+000  0.000000000000000E+000
  0.000000000000000E+000  0.000000000000000E+000  0.000000000000000E+000
  0.000000000000000E+000  0.000000000000000E+000  0.000000000000000E+000
  0.000000000000000E+000  0.000000000000000E+000  0.000000000000000E+000
  0.000000000000000E+000  0.000000000000000E+000  0.000000000000000E+000
  0.000000000000000E+000  0.000000000000000E+000  0.000000000000000E+000
  0.000000000000000E+000  0.000000000000000E+000  0.000000000000000E+000
  0.000000000000000E+000  0.000000000000000E+000  0.000000000000000E+000
  0.000000000000000E+000  0.000000000000000E+000  0.000000000000000E+000
  0.000000000000000E+000  0.000000000000000E+000  0.000000000000000E+000
  0.000000000000000E+000  0.000000000000000E+000  0.000000000000000E+000
  0.000000000000000E+000  0.000000000000000E+000  0.000000000000000E+000
  0.000000000000000E+000  0.000000000000000E+000  0.000000000000000E+000
  0.000000000000000E+000  0.000000000000000E+000  0.000000000000000E+000
  0.000000000000000E+000  0.000000000000000E+000  0.000000000000000E+000
  0.000000000000000E+000  0.000000000000000E+000  0.000000000000000E+000
  0.000000000000000E+000  0.000000000000000E+000  0.000000000000000E+000
  0.000000000000000E+000  0.000000000000000E+000  0.000000000000000E+000
  0.000000000000000E+000  0.000000000000000E+000  0.000000000000000E+000
  0.000000000000000E+000  0.000000000000000E+000  0.000000000000000E+000