 Title = "Wing and Wake"
 VARIABLES = "X" "Y" "Z" "GAM" "skew"
 Zone I=   11 J=   26 K=1  T="Blade"
 DATAPACKING=BLOCK
 VARLOCATION=([4]=CELLCENTERED,[5]=CELLCENTERED)
  0.262271456311290       0.246238558713708       0.230205661116127     
  0.214172763518546       0.198139865920964       0.182106968323383     
  0.166074070725802       0.150041173128220       0.134008275530639     
  0.117975377933058       0.101942480335477       0.264280591365059     
  0.248247693767477       0.232214796169896       0.216181898572315     
  0.200149000974734       0.184116103377152       0.168083205779571     
  0.152050308181990       0.136017410584408       0.119984512986827     
  0.103951615389246       0.270276311266369       0.254243413668788     
  0.238210516071207       0.222177618473625       0.206144720876044     
  0.190111823278462       0.174078925680881       0.158046028083300     
  0.142013130485719       0.125980232888137       0.109947335290556     
  0.280164059930708       0.264131162333126       0.248098264735545     
  0.232065367137964       0.216032469540383       0.199999571942801     
  0.183966674345219       0.167933776747638       0.151900879150057     
  0.135867981552476       0.119835083954895       0.293787901654983     
  0.277755004057401       0.261722106459820       0.245689208862239     
  0.229656311264658       0.213623413667076       0.197590516069495     
  0.181557618471914       0.165524720874332       0.149491823276751     
  0.133458925679170       0.310932980316714       0.294900082719133     
  0.278867185121551       0.262834287523970       0.246801389926389     
  0.230768492328808       0.214735594731226       0.198702697133645     
  0.182669799536064       0.166636901938483       0.150604004340901     
  0.331328907783433       0.315296010185852       0.299263112588270     
  0.283230214990689       0.267197317393108       0.251164419795527     
  0.235131522197945       0.219098624600364       0.203065727002782     
  0.187032829405201       0.170999931807620       0.354654028095053     
  0.338621130497472       0.322588232899890       0.306555335302309     
  0.290522437704728       0.274489540107146       0.258456642509565     
  0.242423744911984       0.226390847314402       0.210357949716821     
  0.194325052119240       0.380540490170506       0.364507592572926     
  0.348474694975344       0.332441797377763       0.316408899780182     
  0.300376002182601       0.284343104585019       0.268310206987438     
  0.252277309389857       0.236244411792276       0.220211514194694     
  0.408580049039044       0.392547151441462       0.376514253843881     
  0.360481356246300       0.344448458648718       0.328415561051137     
  0.312382663453556       0.296349765855975       0.280316868258393     
  0.264283970660812       0.248251073063231       0.438330504107285     
  0.422297606509704       0.406264708912123       0.390231811314541     
  0.374198913716960       0.358166016119379       0.342133118521797     
  0.326100220924215       0.310067323326635       0.294034425729053     
  0.278001528131472       0.469322672926745       0.453289775329164     
  0.437256877731581       0.421223980134000       0.405191082536420     
  0.389158184938838       0.373125287341257       0.357092389743676     
  0.341059492146094       0.325026594548514       0.308993696950932     
  0.501067790481315       0.485034892883734       0.469001995286153     
  0.452969097688571       0.436936200090990       0.420903302493409     
  0.404870404895828       0.388837507298246       0.372804609700665     
  0.356771712103084       0.340738814505502       0.533065217303548     
  0.517032319705966       0.500999422108385       0.484966524510803     
  0.468933626913222       0.452900729315640       0.436867831718059     
  0.420834934120479       0.404802036522897       0.388769138925315     
  0.372736241327734       0.564810334858119       0.548777437260537     
  0.532744539662955       0.516711642065375       0.500678744467793     
  0.484645846870212       0.468612949272630       0.452580051675050     
  0.436547154077467       0.420514256479886       0.404481358882305     
  0.595802503677577       0.579769606079996       0.563736708482415     
  0.547703810884834       0.531670913287252       0.515638015689670     
  0.499605118092090       0.483572220494509       0.467539322896928     
  0.451506425299345       0.435473527701765       0.625552958745819     
  0.609520061148238       0.593487163550656       0.577454265953075     
  0.561421368355494       0.545388470757913       0.529355573160331     
  0.513322675562749       0.497289777965169       0.481256880367586     
  0.465223982770006       0.653592517614355       0.637559620016774     
  0.621526722419194       0.605493824821611       0.589460927224030     
  0.573428029626449       0.557395132028867       0.541362234431286     
  0.525329336833705       0.509296439236124       0.493263541638542     
  0.679478979689810       0.663446082092228       0.647413184494647     
  0.631380286897067       0.615347389299485       0.599314491701904     
  0.583281594104322       0.567248696506740       0.551215798909159     
  0.535182901311578       0.519150003713997       0.702804100001430     
  0.686771202403849       0.670738304806267       0.654705407208686     
  0.638672509611106       0.622639612013523       0.606606714415942     
  0.590573816818360       0.574540919220779       0.558508021623198     
  0.542475124025616       0.723200027468148       0.707167129870566     
  0.691134232272987       0.675101334675404       0.659068437077823     
  0.643035539480242       0.627002641882661       0.610969744285080     
  0.594936846687497       0.578903949089916       0.562871051492336     
  0.740345106129880       0.724312208532299       0.708279310934717     
  0.692246413337137       0.676213515739554       0.660180618141973     
  0.644147720544392       0.628114822946809       0.612081925349230     
  0.596049027751649       0.580016130154066       0.753968947854156     
  0.737936050256573       0.721903152658993       0.705870255061411     
  0.689837357463829       0.673804459866249       0.657771562268668     
  0.641738664671086       0.625705767073504       0.609672869475924     
  0.593639971878341       0.763856696518495       0.747823798920912     
  0.731790901323332       0.715758003725750       0.699725106128168     
  0.683692208530587       0.667659310933007       0.651626413335424     
  0.635593515737844       0.619560618140262       0.603527720542680     
  0.769852416419803       0.753819518822223       0.737786621224640     
  0.721753723627059       0.705720826029478       0.689687928431896     
  0.673655030834315       0.657622133236734       0.641589235639153     
  0.625556338041573       0.609523440443991       0.771861551473573     
  0.755828653875991       0.739795756278410       0.723762858680829     
  0.707729961083248       0.691697063485668       0.675664165888085     
  0.659631268290504       0.643598370692923       0.627565473095340     
  0.611532575497761     
 -5.943934332864576E-002 -6.959276848566641E-002 -7.974619364268734E-002
 -8.989961879970851E-002 -0.100053043956729      -0.110206469113750     
 -0.120359894270771      -0.130513319427792      -0.140666744584813     
 -0.150820169741834      -0.160973594898855      -6.261189407665764E-002
 -7.276531923367875E-002 -8.291874439069959E-002 -9.307216954772060E-002
 -0.103225594704742      -0.113379019861762      -0.123532445018784     
 -0.133685870175804      -0.143839295332826      -0.153992720489846     
 -0.164146145646867      -7.207951330020769E-002 -8.223293845722893E-002
 -9.238636361424959E-002 -0.102539788771271      -0.112693213928291     
 -0.122846639085312      -0.133000064242334      -0.143153489399354     
 -0.153306914556376      -0.163460339713397      -0.173613764870417     
 -8.769289098845928E-002 -9.784631614547983E-002 -0.107999741302501     
 -0.118153166459522      -0.128306591616543      -0.138460016773564     
 -0.148613441930585      -0.158766867087606      -0.168920292244627     
 -0.179073717401648      -0.189227142558669      -0.109205794848288     
 -0.119359220005309      -0.129512645162330      -0.139666070319351     
 -0.149819495476372      -0.159972920633393      -0.170126345790414     
 -0.180279770947435      -0.190433196104456      -0.200586621261477     
 -0.210740046418498      -0.136278953534639      -0.146432378691660     
 -0.156585803848681      -0.166739229005702      -0.176892654162723     
 -0.187046079319744      -0.197199504476765      -0.207352929633786     
 -0.217506354790807      -0.227659779947828      -0.237813205104849     
 -0.168485407162307      -0.178638832319328      -0.188792257476349     
 -0.198945682633371      -0.209099107790391      -0.219252532947412     
 -0.229405958104433      -0.239559383261455      -0.249712808418475     
 -0.259866233575496      -0.270019658732517      -0.205317240718382     
 -0.215470665875403      -0.225624091032424      -0.235777516189445     
 -0.245930941346466      -0.256084366503487      -0.266237791660508     
 -0.276391216817529      -0.286544641974550      -0.296698067131571     
 -0.306851492288592      -0.246193594185413      -0.256347019342435     
 -0.266500444499455      -0.276653869656476      -0.286807294813497     
 -0.296960719970518      -0.307114145127539      -0.317267570284560     
 -0.327420995441581      -0.337574420598602      -0.347727845755623     
 -0.290469823050875      -0.300623248207896      -0.310776673364917     
 -0.320930098521938      -0.331083523678959      -0.341236948835980     
 -0.351390373993001      -0.361543799150022      -0.371697224307043     
 -0.381850649464064      -0.392004074621085      -0.337447664736223     
 -0.347601089893244      -0.357754515050265      -0.367907940207286     
 -0.378061365364307      -0.388214790521327      -0.398368215678349     
 -0.408521640835369      -0.418675065992391      -0.428828491149412     
 -0.438981916306432      -0.386386250614875      -0.396539675771897     
 -0.406693100928917      -0.416846526085938      -0.426999951242960     
 -0.437153376399981      -0.447306801557002      -0.457460226714023     
 -0.467613651871043      -0.477767077028065      -0.487920502185086     
 -0.436513789953033      -0.446667215110055      -0.456820640267076     
 -0.466974065424096      -0.477127490581117      -0.487280915738138     
 -0.497434340895160      -0.507587766052180      -0.517741191209202     
 -0.527894616366222      -0.538048041523244      -0.487039741510593     
 -0.497193166667615      -0.507346591824636      -0.517500016981657     
 -0.527653442138676      -0.537806867295698      -0.547960292452719     
 -0.558113717609740      -0.568267142766761      -0.578420567923783     
 -0.588573993080803      -0.537167280848751      -0.547320706005772     
 -0.557474131162793      -0.567627556319814      -0.577780981476835     
 -0.587934406633856      -0.598087831790877      -0.608241256947898     
 -0.618394682104919      -0.628548107261940      -0.638701532418962     
 -0.586105866727404      -0.596259291884425      -0.606412717041447     
 -0.616566142198467      -0.626719567355488      -0.636872992512508     
 -0.647026417669529      -0.657179842826552      -0.667333267983573     
 -0.677486693140592      -0.687640118297614      -0.633083708412752     
 -0.643237133569773      -0.653390558726793      -0.663543983883815     
 -0.673697409040836      -0.683850834197857      -0.694004259354878     
 -0.704157684511899      -0.714311109668920      -0.724464534825940     
 -0.734617959982962      -0.677359937278213      -0.687513362435234     
 -0.697666787592256      -0.707820212749277      -0.717973637906297     
 -0.728127063063318      -0.738280488220339      -0.748433913377360     
 -0.758587338534381      -0.768740763691403      -0.778894188848423     
 -0.718236290745244      -0.728389715902265      -0.738543141059287     
 -0.748696566216309      -0.758849991373329      -0.769003416530349     
 -0.779156841687371      -0.789310266844391      -0.799463692001413     
 -0.809617117158433      -0.819770542315454      -0.755068124301319     
 -0.765221549458341      -0.775374974615362      -0.785528399772382     
 -0.795681824929404      -0.805835250086424      -0.815988675243446     
 -0.826142100400467      -0.836295525557486      -0.846448950714509     
 -0.856602375871528      -0.787274577928988      -0.797428003086009     
 -0.807581428243030      -0.817734853400050      -0.827888278557071     
 -0.838041703714092      -0.848195128871114      -0.858348554028135     
 -0.868501979185155      -0.878655404342176      -0.888808829499198     
 -0.814347736615338      -0.824501161772360      -0.834654586929381     
 -0.844808012086402      -0.854961437243422      -0.865114862400443     
 -0.875268287557465      -0.885421712714485      -0.895575137871507     
 -0.905728563028528      -0.915881988185550      -0.835860640475168     
 -0.846014065632189      -0.856167490789210      -0.866320915946231     
 -0.876474341103252      -0.886627766260272      -0.896781191417293     
 -0.906934616574315      -0.917088041731334      -0.927241466888358     
 -0.937394892045378      -0.851474018163419      -0.861627443320441     
 -0.871780868477462      -0.881934293634484      -0.892087718791503     
 -0.902241143948525      -0.912394569105544      -0.922547994262566     
 -0.932701419419587      -0.942854844576609      -0.953008269733629     
 -0.860941637386969      -0.871095062543991      -0.881248487701010     
 -0.891401912858032      -0.901555338015053      -0.911708763172073     
 -0.921862188329094      -0.932015613486115      -0.942169038643136     
 -0.952322463800157      -0.962475888957179      -0.864114188134982     
 -0.874267613292001      -0.884421038449023      -0.894574463606044     
 -0.904727888763064      -0.914881313920086      -0.925034739077106     
 -0.935188164234129      -0.945341589391150      -0.955495014548169     
 -0.965648439705192     
  1.660316899342888E-002  1.494285209408599E-002  1.328253519474311E-002
  1.162221829540022E-002  9.961901396057328E-003  8.301584496714441E-003
  6.641267597371552E-003  4.980950698028665E-003  3.320633798685776E-003
  1.660316899342887E-003  0.000000000000000E+000  1.660316899342888E-002
  1.494285209408599E-002  1.328253519474311E-002  1.162221829540022E-002
  9.961901396057328E-003  8.301584496714441E-003  6.641267597371552E-003
  4.980950698028665E-003  3.320633798685776E-003  1.660316899342887E-003
  0.000000000000000E+000  1.660316899342888E-002  1.494285209408599E-002
  1.328253519474311E-002  1.162221829540022E-002  9.961901396057328E-003
  8.301584496714441E-003  6.641267597371552E-003  4.980950698028665E-003
  3.320633798685776E-003  1.660316899342887E-003  0.000000000000000E+000
  1.660316899342888E-002  1.494285209408599E-002  1.328253519474311E-002
  1.162221829540022E-002  9.961901396057328E-003  8.301584496714441E-003
  6.641267597371552E-003  4.980950698028665E-003  3.320633798685776E-003
  1.660316899342887E-003  0.000000000000000E+000  1.660316899342888E-002
  1.494285209408599E-002  1.328253519474311E-002  1.162221829540022E-002
  9.961901396057328E-003  8.301584496714441E-003  6.641267597371552E-003
  4.980950698028665E-003  3.320633798685776E-003  1.660316899342887E-003
  0.000000000000000E+000  1.660316899342888E-002  1.494285209408599E-002
  1.328253519474311E-002  1.162221829540022E-002  9.961901396057328E-003
  8.301584496714441E-003  6.641267597371552E-003  4.980950698028665E-003
  3.320633798685776E-003  1.660316899342887E-003  0.000000000000000E+000
  1.660316899342888E-002  1.494285209408599E-002  1.328253519474311E-002
  1.162221829540022E-002  9.961901396057328E-003  8.301584496714441E-003
  6.641267597371552E-003  4.980950698028665E-003  3.320633798685776E-003
  1.660316899342887E-003  0.000000000000000E+000  1.660316899342888E-002
  1.494285209408599E-002  1.328253519474311E-002  1.162221829540022E-002
  9.961901396057328E-003  8.301584496714441E-003  6.641267597371552E-003
  4.980950698028665E-003  3.320633798685776E-003  1.660316899342887E-003
  0.000000000000000E+000  1.660316899342888E-002  1.494285209408599E-002
  1.328253519474311E-002  1.162221829540022E-002  9.961901396057328E-003
  8.301584496714441E-003  6.641267597371552E-003  4.980950698028665E-003
  3.320633798685776E-003  1.660316899342887E-003  0.000000000000000E+000
  1.660316899342888E-002  1.494285209408599E-002  1.328253519474311E-002
  1.162221829540022E-002  9.961901396057328E-003  8.301584496714441E-003
  6.641267597371552E-003  4.980950698028665E-003  3.320633798685776E-003
  1.660316899342887E-003  0.000000000000000E+000  1.660316899342888E-002
  1.494285209408599E-002  1.328253519474311E-002  1.162221829540022E-002
  9.961901396057328E-003  8.301584496714441E-003  6.641267597371552E-003
  4.980950698028665E-003  3.320633798685776E-003  1.660316899342887E-003
  0.000000000000000E+000  1.660316899342888E-002  1.494285209408599E-002
  1.328253519474311E-002  1.162221829540022E-002  9.961901396057328E-003
  8.301584496714441E-003  6.641267597371552E-003  4.980950698028665E-003
  3.320633798685776E-003  1.660316899342887E-003  0.000000000000000E+000
  1.660316899342888E-002  1.494285209408599E-002  1.328253519474311E-002
  1.162221829540022E-002  9.961901396057328E-003  8.301584496714441E-003
  6.641267597371552E-003  4.980950698028665E-003  3.320633798685776E-003
  1.660316899342887E-003  0.000000000000000E+000  1.660316899342888E-002
  1.494285209408599E-002  1.328253519474311E-002  1.162221829540022E-002
  9.961901396057328E-003  8.301584496714441E-003  6.641267597371552E-003
  4.980950698028665E-003  3.320633798685776E-003  1.660316899342887E-003
  0.000000000000000E+000  1.660316899342888E-002  1.494285209408599E-002
  1.328253519474311E-002  1.162221829540022E-002  9.961901396057328E-003
  8.301584496714441E-003  6.641267597371552E-003  4.980950698028665E-003
  3.320633798685776E-003  1.660316899342887E-003  0.000000000000000E+000
  1.660316899342888E-002  1.494285209408599E-002  1.328253519474311E-002
  1.162221829540022E-002  9.961901396057328E-003  8.301584496714441E-003
  6.641267597371552E-003  4.980950698028665E-003  3.320633798685776E-003
  1.660316899342887E-003  0.000000000000000E+000  1.660316899342888E-002
  1.494285209408599E-002  1.328253519474311E-002  1.162221829540022E-002
  9.961901396057328E-003  8.301584496714441E-003  6.641267597371552E-003
  4.980950698028665E-003  3.320633798685776E-003  1.660316899342887E-003
  0.000000000000000E+000  1.660316899342888E-002  1.494285209408599E-002
  1.328253519474311E-002  1.162221829540022E-002  9.961901396057328E-003
  8.301584496714441E-003  6.641267597371552E-003  4.980950698028665E-003
  3.320633798685776E-003  1.660316899342887E-003  0.000000000000000E+000
  1.660316899342888E-002  1.494285209408599E-002  1.328253519474311E-002
  1.162221829540022E-002  9.961901396057328E-003  8.301584496714441E-003
  6.641267597371552E-003  4.980950698028665E-003  3.320633798685776E-003
  1.660316899342887E-003  0.000000000000000E+000  1.660316899342888E-002
  1.494285209408599E-002  1.328253519474311E-002  1.162221829540022E-002
  9.961901396057328E-003  8.301584496714441E-003  6.641267597371552E-003
  4.980950698028665E-003  3.320633798685776E-003  1.660316899342887E-003
  0.000000000000000E+000  1.660316899342888E-002  1.494285209408599E-002
  1.328253519474311E-002  1.162221829540022E-002  9.961901396057328E-003
  8.301584496714441E-003  6.641267597371552E-003  4.980950698028665E-003
  3.320633798685776E-003  1.660316899342887E-003  0.000000000000000E+000
  1.660316899342888E-002  1.494285209408599E-002  1.328253519474311E-002
  1.162221829540022E-002  9.961901396057328E-003  8.301584496714441E-003
  6.641267597371552E-003  4.980950698028665E-003  3.320633798685776E-003
  1.660316899342887E-003  0.000000000000000E+000  1.660316899342888E-002
  1.494285209408599E-002  1.328253519474311E-002  1.162221829540022E-002
  9.961901396057328E-003  8.301584496714441E-003  6.641267597371552E-003
  4.980950698028665E-003  3.320633798685776E-003  1.660316899342887E-003
  0.000000000000000E+000  1.660316899342888E-002  1.494285209408599E-002
  1.328253519474311E-002  1.162221829540022E-002  9.961901396057328E-003
  8.301584496714441E-003  6.641267597371552E-003  4.980950698028665E-003
  3.320633798685776E-003  1.660316899342887E-003  0.000000000000000E+000
  1.660316899342888E-002  1.494285209408599E-002  1.328253519474311E-002
  1.162221829540022E-002  9.961901396057328E-003  8.301584496714441E-003
  6.641267597371552E-003  4.980950698028665E-003  3.320633798685776E-003
  1.660316899342887E-003  0.000000000000000E+000  1.660316899342888E-002
  1.494285209408599E-002  1.328253519474311E-002  1.162221829540022E-002
  9.961901396057328E-003  8.301584496714441E-003  6.641267597371552E-003
  4.980950698028665E-003  3.320633798685776E-003  1.660316899342887E-003
  0.000000000000000E+000
  3.210744880983051E-002  4.835577359863845E-002  6.177160482555159E-002
  7.372281518354279E-002  8.466013154592870E-002  9.471743705513036E-002
  0.103810344884562       0.111672911545246       0.118000028267792     
  0.122639031405730       5.354855885832665E-002  8.160951462557950E-002
  0.104531583577698       0.124832995958958       0.143289880607061     
  0.160127571899739       0.175238349944584       0.188294078716529     
  0.198981515851083       0.207280937865445       7.220262827237559E-002
  0.111989719912825       0.144217648126553       0.172497673905029     
  0.197925138399403       0.220816423272465       0.241092097065710     
  0.258522440089782       0.272800125041970       0.283318424270950     
  8.708232506807283E-002  0.136307433317674       0.176252080050477     
  0.211104889755199       0.242117444814567       0.269678379705049     
  0.293769436482214       0.314229200164586       0.330725646852283     
  0.342244043329756       9.945515528265461E-002  0.155810126405764     
  0.201496217152258       0.241174815478656       0.276206180094023     
  0.307068595559130       0.333831562643727       0.356244899143046     
  0.373815395186912       0.385500052271914       0.111510458159660     
  0.173788814839963       0.223795750553790       0.266888140535594     
  0.304657032497779       0.337648260868640       0.365961860659148     
  0.389401468045270       0.407516821734537       0.419241865181115     
  0.125903232880575       0.194412552361147       0.248461344477276     
  0.294437440757263       0.334332827384504       0.368884553808787     
  0.398321249682025       0.422550205601357       0.441172294888939     
  0.453152301800700       0.145153976102589       0.221718560661467     
  0.280791477835524       0.330230588614927       0.372631475008820     
  0.409048739284423       0.439894991853168       0.465216817237202     
  0.484707799993464       0.497319865873629       0.170929747591340     
  0.258449795861120       0.324471622989156       0.378799603839438     
  0.424823025329171       0.464018215503670       0.497038696993945     
  0.524079564767990       0.544914157068145       0.558449046384459     
  0.203572500804623       0.305296090663528       0.380556273206341     
  0.441548364768648       0.492609014065031       0.535706534904561     
  0.571787922238756       0.601221462137521       0.623860752967515     
  0.638578579649140       0.242493529475335       0.361479334687328     
  0.448172397776849       0.517535626671462       0.574990873539241     
  0.623065704613165       0.663039091354696       0.695487984318143     
  0.720365821682264       0.736503620125184       0.286782021277336     
  0.425649318496354       0.525653719149627       0.604851697318736     
  0.669865474145838       0.723843539811678       0.768436530333520     
  0.804444739860078       0.831931135679282       0.849690604129389     
  0.335610760129238       0.496543208726778       0.611403064997753     
  0.701620171762956       0.775130291021996       0.835758145839407     
  0.885548770626219       0.925540448127476       0.955920328159093     
  0.975456503290010       0.388547957899993       0.573435953451604     
  0.704434021692173       0.806619535075851       0.889344558799813     
  0.957165085207766        1.01255418177187        1.05681029532369     
   1.09026127466541        1.11166445875164       0.445791838972692     
  0.656479667344480       0.804766688109905       0.919686373593546     
   1.01213236740633        1.08746697348829        1.14864524075661     
   1.19726365638851        1.23382110723241        1.25709042457580     
  0.508240789012048       0.746790136241494       0.913501847877887     
   1.04177028286460        1.14420833932794        1.22709180951505     
   1.29394576690721        1.34673961366555        1.38620209486556     
   1.41118215743409       0.578406184336500       0.847548475280221     
   1.03388991973869        1.17587132937825        1.28815544720119     
   1.37813515308372        1.45004340921283        1.50634224603906     
   1.54810267312587        1.57436581285800       0.665270391027194     
  0.969573703451318        1.17673107672351        1.33210144547451     
   1.45322395903560        1.54902224145047        1.62464761528775     
   1.68317235428345        1.72612209314332        1.75289707800413     
  0.784740153452194        1.13054664724194        1.35876518966159     
   1.52592369993432        1.65387793769979        1.75356382176860     
   1.83122770152672        1.89062259067989        1.93375194187685     
   1.96041064850685       0.905583933744301        1.28958296042290     
   1.53438798383870        1.70856599984991        1.83876257862255     
   1.93823969375255        2.01449750422005        2.07200094950501     
   2.11320265843495        2.13834235447794       0.949217841191125     
   1.34051859800929        1.58260789738092        1.74985161452328     
   1.87163040525556        1.96264298934861        2.03105030347060     
   2.08155414393095        2.11669123538166        2.13711669821282     
  0.908569810459670        1.26681362315842        1.48044970540926     
   1.62415136962220        1.72679839988195        1.80238055294172     
   1.85840642190807        1.89902663714249        1.92632984867274     
   1.94088719561572       0.796553865321629        1.08551813441931     
   1.25092638526178        1.36037183593920        1.43800494255214     
   1.49495815708086        1.53705790497969        1.56749927207398     
   1.58795003331469        1.59902256824656       0.613954016622894     
  0.809862524311277       0.920316176991403       0.993525634262741     
   1.04562978549973        1.08398417793254        1.11246199955822     
   1.13326377615193        1.14783335809973        1.15825836706350     
  0.374321904967332       0.484027046117047       0.546453859157091     
  0.588065826830109       0.617787514322578       0.639718995198488     
  0.656029603940182       0.667932524893094       0.676103174821910     
  0.680808826046978     
  0.000000000000000E+000  0.000000000000000E+000  0.000000000000000E+000
  0.000000000000000E+000  0.000000000000000E+000  0.000000000000000E+000
  0.000000000000000E+000  0.000000000000000E+000  0.000000000000000E+000
  0.000000000000000E+000  0.000000000000000E+000  0.000000000000000E+000
  0.000000000000000E+000  0.000000000000000E+000  0.000000000000000E+000
  0.000000000000000E+000  0.000000000000000E+000  0.000000000000000E+000
  0.000000000000000E+000  0.000000000000000E+000  0.000000000000000E+000
  0.000000000000000E+000  0.000000000000000E+000  0.000000000000000E+000
  0.000000000000000E+000  0.000000000000000E+000  0.000000000000000E+000
  0.000000000000000E+000  0.000000000000000E+000  0.000000000000000E+000
  0.000000000000000E+000  0.000000000000000E+000  0.000000000000000E+000
  0.000000000000000E+000  0.000000000000000E+000  0.000000000000000E+000
  0.000000000000000E+000  0.000000000000000E+000  0.000000000000000E+000
  0.000000000000000E+000  0.000000000000000E+000  0.000000000000000E+000
  0.000000000000000E+000  0.000000000000000E+000  0.000000000000000E+000
  0.000000000000000E+000  0.000000000000000E+000  0.000000000000000E+000
  0.000000000000000E+000  0.000000000000000E+000  0.000000000000000E+000
  0.000000000000000E+000  0.000000000000000E+000  0.000000000000000E+000
  0.000000000000000E+000  0.000000000000000E+000  0.000000000000000E+000
  0.000000000000000E+000  0.000000000000000E+000  0.000000000000000E+000
  0.000000000000000E+000  0.000000000000000E+000  0.000000000000000E+000
  0.000000000000000E+000  0.000000000000000E+000  0.000000000000000E+000
  0.000000000000000E+000  0.000000000000000E+000  0.000000000000000E+000
  0.000000000000000E+000  0.000000000000000E+000  0.000000000000000E+000
  0.000000000000000E+000  0.000000000000000E+000  0.000000000000000E+000
  0.000000000000000E+000  0.000000000000000E+000  0.000000000000000E+000
  0.000000000000000E+000  0.000000000000000E+000  0.000000000000000E+000
  0.000000000000000E+000  0.000000000000000E+000  0.000000000000000E+000
  0.000000000000000E+000  0.000000000000000E+000  0.000000000000000E+000
  0.000000000000000E+000  0.000000000000000E+000  0.000000000000000E+000
  0.000000000000000E+000  0.000000000000000E+000  0.000000000000000E+000
  0.000000000000000E+000  0.000000000000000E+000  0.000000000000000E+000
  0.000000000000000E+000  0.000000000000000E+000  0.000000000000000E+000
  0.000000000000000E+000  0.000000000000000E+000  0.000000000000000E+000
  0.000000000000000E+000  0.000000000000000E+000  0.000000000000000E+000
  0.000000000000000E+000  0.000000000000000E+000  0.000000000000000E+000
  0.000000000000000E+000  0.000000000000000E+000  0.000000000000000E+000
  0.000000000000000E+000  0.000000000000000E+000  0.000000000000000E+000
  0.000000000000000E+000  0.000000000000000E+000  0.000000000000000E+000