 Title = "Wing and Wake"
 VARIABLES = "X" "Y" "Z" "GAM" "skew"
 Zone I=   11 J=   26 K=1  T="Blade"
 DATAPACKING=BLOCK
 VARLOCATION=([4]=CELLCENTERED,[5]=CELLCENTERED)
  0.171919625264573       0.153018611096182       0.134117596927791     
  0.115216582759399       9.631556859100832E-002  7.741455442261648E-002
  5.851354025422554E-002  3.961252608583426E-002  2.071151191744325E-002
  1.810497749051882E-003 -1.709051641933929E-002  0.171582796540059     
  0.152681782371668       0.133780768203277       0.114879754034886     
  9.597873986649487E-002  7.707772569810380E-002  5.817671152971237E-002
  3.927569736132122E-002  2.037468319292985E-002  1.473669024538839E-003
 -1.742734514385260E-002  0.170577622356717       0.151676608188326     
  0.132775594019935       0.113874579851544       9.497356568315243E-002
  7.607255151476133E-002  5.717153734636983E-002  3.827052317797894E-002
  1.936950900958748E-002  4.684948411964707E-004 -1.843251932719463E-002
  0.168919954911879       0.150018940743488       0.131117926575097     
  0.112216912406706       9.331589823831439E-002  7.441488406992328E-002
  5.551386990153148E-002  3.661285573314065E-002  1.771184156474966E-002
 -1.189172603641720E-003 -2.009018677203268E-002  0.166635936611393     
  0.147734922443002       0.128833908274610       0.109932894106219     
  9.103187993782796E-002  7.213086576943639E-002  5.322985160104556E-002
  3.432883743265416E-002  1.542782326426305E-002 -3.473190904128303E-003
 -2.237420507251922E-002  0.163761587788263       0.144860573619872     
  0.125959559451481       0.107058545283090       8.815753111469837E-002
  6.925651694630720E-002  5.035550277791567E-002  3.145448860952507E-002
  1.255347444113349E-002 -6.347539727257910E-003 -2.524855389564925E-002
  0.160342238640484       0.141441224472093       0.122540210303702     
  0.103639196135310       8.473818196691907E-002  6.583716779852798E-002
  4.693615363013703E-002  2.803513946174511E-002  9.134125293353747E-003
 -9.766888875036619E-003 -2.866790304342791E-002  0.156431814346736     
  0.137530800178345       0.118629786009953       9.972877184156230E-002
  8.082775767317112E-002  6.192674350477956E-002  4.302572933638857E-002
  2.412471516799747E-002  5.223700999605927E-003 -1.367731316878503E-002
 -3.257832733717617E-002  0.152091984634105       0.133190970465714     
  0.114289956297323       9.538894212893165E-002  7.648792796054059E-002
  5.758691379214931E-002  3.868589962375778E-002  1.978488545536694E-002
  8.838712869755276E-004 -1.801714288141584E-002 -3.691815704980662E-002
  0.147391191209649       0.128490177041257       0.109589162872866     
  9.068814870447557E-002  7.178713453608410E-002  5.288612036769339E-002
  3.398510619930175E-002  1.508409203091082E-002 -3.816922137480911E-003
 -2.271793630587178E-002 -4.161895047426274E-002  0.142403568393789     
  0.123502554225398       0.104601540057006       8.570052588861521E-002
  6.679951172022421E-002  4.789849755183299E-002  2.899748338344218E-002
  1.009646921504987E-002 -8.804544953340451E-003 -2.770555912173197E-002
 -4.660657329012281E-002  0.137207773977793       0.118306759809401     
  9.940574564100930E-002  8.050473147261904E-002  6.160371730422741E-002
  4.270270313583616E-002  2.380168896744521E-002  4.900674799053924E-003
 -1.400033936933678E-002 -3.290135353772819E-002 -5.180236770611918E-002
  0.131885748743417       0.112984734575025       9.408372040663465E-002
  7.518270623824318E-002  5.628169206985163E-002  3.738067790146131E-002
  1.847966373306996E-002 -4.213504353217216E-004 -1.932236460371338E-002
 -3.822337877210361E-002 -5.712439294049518E-002  0.126521424207832     
  0.107620410039441       8.871939587104929E-002  6.981838170265833E-002
  5.091736753426749E-002  3.201635336587588E-002  1.311533919748430E-002
 -5.785674970907052E-003 -2.468668913929721E-002 -4.358770330768955E-002
 -6.248871747607988E-002  0.121199398973456       0.102298384805065     
  8.339737063667375E-002  6.449635646828325E-002  4.559534229989216E-002
  2.669432813150089E-002  7.793313963109572E-003 -1.110770020528228E-002
 -3.000871437367380E-002 -4.890972854206420E-002 -6.781074271045559E-002
  0.116003604557459       9.710259038906824E-002  7.820157622067707E-002
  5.930056205228541E-002  4.039954788389468E-002  2.149853371550394E-002
  2.597519547113590E-003 -1.630349462127891E-002 -3.520450878967008E-002
 -5.410552295806190E-002 -7.300653712645196E-002  0.111015981741600     
  9.211496757320933E-002  7.321395340481765E-002  5.431293923642544E-002
  3.541192506803464E-002  1.651091089964454E-002 -2.390103268748611E-003
 -2.129111743713885E-002 -4.019213160552848E-002 -5.909314577392111E-002
 -7.799415994231174E-002  0.106315188317143       8.741417414875324E-002
  6.851315998036103E-002  4.961214581196954E-002  3.071113164357869E-002
  1.181011747518773E-002 -7.090896693203622E-003 -2.599191086159541E-002
 -4.489292502998679E-002 -6.379393919837723E-002 -8.269495336676747E-002
  0.101975358604514       8.307434443612184E-002  6.417333026773080E-002
  4.527231609933928E-002  2.637130193094965E-002  7.470287762557832E-003
 -1.143072640583446E-002 -3.033174057422498E-002 -4.923275474261727E-002
 -6.813376891100761E-002 -8.703478307939835E-002  9.806493431076591E-002
  7.916392014237474E-002  6.026290597398190E-002  4.136189180559218E-002
  2.246087763720075E-002  3.559863468808345E-003 -1.534115069958203E-002
 -3.424216486797382E-002 -5.314317903636417E-002 -7.204419320475600E-002
 -9.094520737314596E-002  9.464558516298655E-002  7.574457099459372E-002
  5.684355682620383E-002  3.794254265781299E-002  1.904152848942131E-002
  1.405143210302096E-004 -1.876049984736101E-002 -3.766151401575239E-002
 -5.656252818414370E-002 -7.546354235253430E-002 -9.436455652092593E-002
  9.177123633985731E-002  7.287022217146541E-002  5.396920800307318E-002
  3.506819383468307E-002  1.616717966629195E-002 -2.733834502100438E-003
 -2.163484867049075E-002 -4.053586283888362E-002 -5.943687700727213E-002
 -7.833789117566456E-002 -9.723890534405710E-002  8.948721803937096E-002
  7.058620387097855E-002  5.168518970258787E-002  3.278417553419558E-002
  1.388316136580451E-002 -5.017852802584930E-003 -2.391886697097591E-002
 -4.281988113936796E-002 -6.172089530775928E-002 -8.062190947615056E-002
 -9.952292364454281E-002  8.782955059453258E-002  6.892853642613987E-002
  5.002752225774994E-002  3.112650808935762E-002  1.222549392096694E-002
 -6.675520247426390E-003 -2.557653441581377E-002 -4.447754858420613E-002
 -6.337856275259769E-002 -8.227957692098850E-002 -0.101180591089381     
  8.682437641118919E-002  6.792336224279852E-002  4.902234807440606E-002
  3.012133390601569E-002  1.122031973762387E-002 -7.680694430765279E-003
 -2.658170859915767E-002 -4.548272276754910E-002 -6.438373693593981E-002
 -8.328475110433102E-002 -0.102185765272722       8.648754768667558E-002
  6.758653351828453E-002  4.868551934989354E-002  2.978450518150264E-002
  1.088349101311176E-002 -8.017523155278905E-003 -2.691853732367016E-002
 -4.581955149206354E-002 -6.472056566045392E-002 -8.362157982884430E-002
 -0.102522593997237     
 -0.206792153574244      -0.205089945831332      -0.203387738088421     
 -0.201685530345511      -0.199983322602600      -0.198281114859688     
 -0.196578907116778      -0.194876699373867      -0.193174491630956     
 -0.191472283888044      -0.189770076145134      -0.210532240247482     
 -0.208830032504571      -0.207127824761660      -0.205425617018749     
 -0.203723409275839      -0.202021201532927      -0.200318993790016     
 -0.198616786047105      -0.196914578304195      -0.195212370561283     
 -0.193510162818373      -0.221693516866142      -0.219991309123231     
 -0.218289101380321      -0.216586893637409      -0.214884685894498     
 -0.213182478151587      -0.211480270408676      -0.209778062665765     
 -0.208075854922854      -0.206373647179944      -0.204671439437032     
 -0.240099963430524      -0.238397755687612      -0.236695547944702     
 -0.234993340201791      -0.233291132458880      -0.231588924715969     
 -0.229886716973057      -0.228184509230147      -0.226482301487236     
 -0.224780093744325      -0.223077886001414      -0.265461299282829     
 -0.263759091539917      -0.262056883797006      -0.260354676054095     
 -0.258652468311184      -0.256950260568273      -0.255248052825363     
 -0.253545845082451      -0.251843637339540      -0.250141429596629     
 -0.248439221853718      -0.297377561006537      -0.295675353263626     
 -0.293973145520714      -0.292270937777804      -0.290568730034893     
 -0.288866522291982      -0.287164314549070      -0.285462106806160     
 -0.283759899063249      -0.282057691320338      -0.280355483577427     
 -0.335345410088416      -0.333643202345505      -0.331940994602594     
 -0.330238786859684      -0.328536579116772      -0.326834371373862     
 -0.325132163630950      -0.323429955888040      -0.321727748145128     
 -0.320025540402217      -0.318323332659306      -0.378766070867552     
 -0.377063863124641      -0.375361655381730      -0.373659447638819     
 -0.371957239895909      -0.370255032152997      -0.368552824410087     
 -0.366850616667176      -0.365148408924264      -0.363446201181353     
 -0.361743993438443      -0.426954773585211      -0.425252565842301     
 -0.423550358099389      -0.421848150356479      -0.420145942613568     
 -0.418443734870657      -0.416741527127745      -0.415039319384834     
 -0.413337111641924      -0.411634903899013      -0.409932696156102     
 -0.479151553613001      -0.477449345870089      -0.475747138127178     
 -0.474044930384268      -0.472342722641357      -0.470640514898446     
 -0.468938307155536      -0.467236099412624      -0.465533891669714     
 -0.463831683926803      -0.462129476183891      -0.534533236549038     
 -0.532831028806127      -0.531128821063216      -0.529426613320306     
 -0.527724405577393      -0.526022197834482      -0.524319990091572     
 -0.522617782348660      -0.520915574605751      -0.519213366862840     
 -0.517511159119928      -0.592226420170006      -0.590524212427097     
 -0.588822004684183      -0.587119796941274      -0.585417589198363     
 -0.583715381455452      -0.582013173712541      -0.580310965969630     
 -0.578608758226718      -0.576906550483808      -0.575204342740897     
 -0.651321248505966      -0.649619040763058      -0.647916833020145     
 -0.646214625277235      -0.644512417534322      -0.642810209791414     
 -0.641108002048503      -0.639405794305591      -0.637703586562680     
 -0.636001378819769      -0.634299171076858      -0.710885760812524     
 -0.709183553069613      -0.707481345326703      -0.705779137583791     
 -0.704076929840879      -0.702374722097969      -0.700672514355057     
 -0.698970306612148      -0.697268098869236      -0.695565891126325     
 -0.693863683383414      -0.769980589148485      -0.768278381405574     
 -0.766576173662662      -0.764873965919753      -0.763171758176840     
 -0.761469550433930      -0.759767342691018      -0.758065134948109     
 -0.756362927205198      -0.754660719462286      -0.752958511719376     
 -0.827673772769454      -0.825971565026543      -0.824269357283633     
 -0.822567149540723      -0.820864941797810      -0.819162734054898     
 -0.817460526311988      -0.815758318569079      -0.814056110826167     
 -0.812353903083254      -0.810651695340345      -0.883055455705491     
 -0.881353247962581      -0.879651040219668      -0.877948832476757     
 -0.876246624733847      -0.874544416990936      -0.872842209248025     
 -0.871140001505113      -0.869437793762203      -0.867735586019292     
 -0.866033378276382      -0.935252235733280      -0.933550027990370     
 -0.931847820247459      -0.930145612504548      -0.928443404761637     
 -0.926741197018726      -0.925038989275815      -0.923336781532904     
 -0.921634573789992      -0.919932366047083      -0.918230158304170     
 -0.983440938450939      -0.981738730708028      -0.980036522965118     
 -0.978334315222208      -0.976632107479295      -0.974929899736385     
 -0.973227691993474      -0.971525484250563      -0.969823276507652     
 -0.968121068764740      -0.966418861021829       -1.02686159923007     
  -1.02515939148717       -1.02345718374425       -1.02175497600134     
  -1.02005276825843       -1.01835056051552       -1.01664835277261     
  -1.01494614502970       -1.01324393728679       -1.01154172954388     
  -1.00983952180096       -1.06482944831195       -1.06312724056904     
  -1.06142503282613       -1.05972282508322       -1.05802061734031     
  -1.05631840959740       -1.05461620185449       -1.05291399411158     
  -1.05121178636867       -1.04950957862575       -1.04780737088284     
  -1.09674571003566       -1.09504350229275       -1.09334129454984     
  -1.09163908680693       -1.08993687906402       -1.08823467132111     
  -1.08653246357820       -1.08483025583529       -1.08312804809238     
  -1.08142584034947       -1.07972363260656       -1.12210704588797     
  -1.12040483814506       -1.11870263040215       -1.11700042265923     
  -1.11529821491632       -1.11359600717341       -1.11189379943050     
  -1.11019159168759       -1.10848938394468       -1.10678717620177     
  -1.10508496845886       -1.14051349245235       -1.13881128470944     
  -1.13710907696653       -1.13540686922362       -1.13370466148071     
  -1.13200245373780       -1.13030024599488       -1.12859803825197     
  -1.12689583050906       -1.12519362276615       -1.12349141502324     
  -1.15167476907101       -1.14997256132810       -1.14827035358519     
  -1.14656814584228       -1.14486593809937       -1.14316373035645     
  -1.14146152261354       -1.13975931487063       -1.13805710712772     
  -1.13635489938481       -1.13465269164190       -1.15541485574425     
  -1.15371264800134       -1.15201044025843       -1.15030823251551     
  -1.14860602477260       -1.14690381702969       -1.14520160928678     
  -1.14349940154387       -1.14179719380096       -1.14009498605805     
  -1.13839277831514     
  1.660316899342888E-002  1.494285209408599E-002  1.328253519474311E-002
  1.162221829540022E-002  9.961901396057328E-003  8.301584496714441E-003
  6.641267597371552E-003  4.980950698028665E-003  3.320633798685776E-003
  1.660316899342887E-003  0.000000000000000E+000  1.660316899342888E-002
  1.494285209408599E-002  1.328253519474311E-002  1.162221829540022E-002
  9.961901396057328E-003  8.301584496714441E-003  6.641267597371552E-003
  4.980950698028665E-003  3.320633798685776E-003  1.660316899342887E-003
  0.000000000000000E+000  1.660316899342888E-002  1.494285209408599E-002
  1.328253519474311E-002  1.162221829540022E-002  9.961901396057328E-003
  8.301584496714441E-003  6.641267597371552E-003  4.980950698028665E-003
  3.320633798685776E-003  1.660316899342887E-003  0.000000000000000E+000
  1.660316899342888E-002  1.494285209408599E-002  1.328253519474311E-002
  1.162221829540022E-002  9.961901396057328E-003  8.301584496714441E-003
  6.641267597371552E-003  4.980950698028665E-003  3.320633798685776E-003
  1.660316899342887E-003  0.000000000000000E+000  1.660316899342888E-002
  1.494285209408599E-002  1.328253519474311E-002  1.162221829540022E-002
  9.961901396057328E-003  8.301584496714441E-003  6.641267597371552E-003
  4.980950698028665E-003  3.320633798685776E-003  1.660316899342887E-003
  0.000000000000000E+000  1.660316899342888E-002  1.494285209408599E-002
  1.328253519474311E-002  1.162221829540022E-002  9.961901396057328E-003
  8.301584496714441E-003  6.641267597371552E-003  4.980950698028665E-003
  3.320633798685776E-003  1.660316899342887E-003  0.000000000000000E+000
  1.660316899342888E-002  1.494285209408599E-002  1.328253519474311E-002
  1.162221829540022E-002  9.961901396057328E-003  8.301584496714441E-003
  6.641267597371552E-003  4.980950698028665E-003  3.320633798685776E-003
  1.660316899342887E-003  0.000000000000000E+000  1.660316899342888E-002
  1.494285209408599E-002  1.328253519474311E-002  1.162221829540022E-002
  9.961901396057328E-003  8.301584496714441E-003  6.641267597371552E-003
  4.980950698028665E-003  3.320633798685776E-003  1.660316899342887E-003
  0.000000000000000E+000  1.660316899342888E-002  1.494285209408599E-002
  1.328253519474311E-002  1.162221829540022E-002  9.961901396057328E-003
  8.301584496714441E-003  6.641267597371552E-003  4.980950698028665E-003
  3.320633798685776E-003  1.660316899342887E-003  0.000000000000000E+000
  1.660316899342888E-002  1.494285209408599E-002  1.328253519474311E-002
  1.162221829540022E-002  9.961901396057328E-003  8.301584496714441E-003
  6.641267597371552E-003  4.980950698028665E-003  3.320633798685776E-003
  1.660316899342887E-003  0.000000000000000E+000  1.660316899342888E-002
  1.494285209408599E-002  1.328253519474311E-002  1.162221829540022E-002
  9.961901396057328E-003  8.301584496714441E-003  6.641267597371552E-003
  4.980950698028665E-003  3.320633798685776E-003  1.660316899342887E-003
  0.000000000000000E+000  1.660316899342888E-002  1.494285209408599E-002
  1.328253519474311E-002  1.162221829540022E-002  9.961901396057328E-003
  8.301584496714441E-003  6.641267597371552E-003  4.980950698028665E-003
  3.320633798685776E-003  1.660316899342887E-003  0.000000000000000E+000
  1.660316899342888E-002  1.494285209408599E-002  1.328253519474311E-002
  1.162221829540022E-002  9.961901396057328E-003  8.301584496714441E-003
  6.641267597371552E-003  4.980950698028665E-003  3.320633798685776E-003
  1.660316899342887E-003  0.000000000000000E+000  1.660316899342888E-002
  1.494285209408599E-002  1.328253519474311E-002  1.162221829540022E-002
  9.961901396057328E-003  8.301584496714441E-003  6.641267597371552E-003
  4.980950698028665E-003  3.320633798685776E-003  1.660316899342887E-003
  0.000000000000000E+000  1.660316899342888E-002  1.494285209408599E-002
  1.328253519474311E-002  1.162221829540022E-002  9.961901396057328E-003
  8.301584496714441E-003  6.641267597371552E-003  4.980950698028665E-003
  3.320633798685776E-003  1.660316899342887E-003  0.000000000000000E+000
  1.660316899342888E-002  1.494285209408599E-002  1.328253519474311E-002
  1.162221829540022E-002  9.961901396057328E-003  8.301584496714441E-003
  6.641267597371552E-003  4.980950698028665E-003  3.320633798685776E-003
  1.660316899342887E-003  0.000000000000000E+000  1.660316899342888E-002
  1.494285209408599E-002  1.328253519474311E-002  1.162221829540022E-002
  9.961901396057328E-003  8.301584496714441E-003  6.641267597371552E-003
  4.980950698028665E-003  3.320633798685776E-003  1.660316899342887E-003
  0.000000000000000E+000  1.660316899342888E-002  1.494285209408599E-002
  1.328253519474311E-002  1.162221829540022E-002  9.961901396057328E-003
  8.301584496714441E-003  6.641267597371552E-003  4.980950698028665E-003
  3.320633798685776E-003  1.660316899342887E-003  0.000000000000000E+000
  1.660316899342888E-002  1.494285209408599E-002  1.328253519474311E-002
  1.162221829540022E-002  9.961901396057328E-003  8.301584496714441E-003
  6.641267597371552E-003  4.980950698028665E-003  3.320633798685776E-003
  1.660316899342887E-003  0.000000000000000E+000  1.660316899342888E-002
  1.494285209408599E-002  1.328253519474311E-002  1.162221829540022E-002
  9.961901396057328E-003  8.301584496714441E-003  6.641267597371552E-003
  4.980950698028665E-003  3.320633798685776E-003  1.660316899342887E-003
  0.000000000000000E+000  1.660316899342888E-002  1.494285209408599E-002
  1.328253519474311E-002  1.162221829540022E-002  9.961901396057328E-003
  8.301584496714441E-003  6.641267597371552E-003  4.980950698028665E-003
  3.320633798685776E-003  1.660316899342887E-003  0.000000000000000E+000
  1.660316899342888E-002  1.494285209408599E-002  1.328253519474311E-002
  1.162221829540022E-002  9.961901396057328E-003  8.301584496714441E-003
  6.641267597371552E-003  4.980950698028665E-003  3.320633798685776E-003
  1.660316899342887E-003  0.000000000000000E+000  1.660316899342888E-002
  1.494285209408599E-002  1.328253519474311E-002  1.162221829540022E-002
  9.961901396057328E-003  8.301584496714441E-003  6.641267597371552E-003
  4.980950698028665E-003  3.320633798685776E-003  1.660316899342887E-003
  0.000000000000000E+000  1.660316899342888E-002  1.494285209408599E-002
  1.328253519474311E-002  1.162221829540022E-002  9.961901396057328E-003
  8.301584496714441E-003  6.641267597371552E-003  4.980950698028665E-003
  3.320633798685776E-003  1.660316899342887E-003  0.000000000000000E+000
  1.660316899342888E-002  1.494285209408599E-002  1.328253519474311E-002
  1.162221829540022E-002  9.961901396057328E-003  8.301584496714441E-003
  6.641267597371552E-003  4.980950698028665E-003  3.320633798685776E-003
  1.660316899342887E-003  0.000000000000000E+000  1.660316899342888E-002
  1.494285209408599E-002  1.328253519474311E-002  1.162221829540022E-002
  9.961901396057328E-003  8.301584496714441E-003  6.641267597371552E-003
  4.980950698028665E-003  3.320633798685776E-003  1.660316899342887E-003
  0.000000000000000E+000
  4.803251634871748E-002  8.802925366659028E-002  0.131298616688888     
  0.174815262469231       0.212595966375306       0.239873144695233     
  0.254326109332389       0.258055354101139       0.254060281946388     
  0.243978356994612       8.130364224577638E-002  0.148774621736198     
  0.220579293079218       0.292339117289092       0.354293110178104     
  0.399071739598069       0.423426895873657       0.430106105316386     
  0.423797972039292       0.407975294720951       0.112329736270025     
  0.204177559311575       0.299046726195044       0.391455879854250     
  0.469618330424285       0.525829467589277       0.558001655608325     
  0.567578967337228       0.559157882168917       0.537075056649873     
  0.137843473298295       0.246922313182192       0.355737666426891     
  0.456829249391549       0.538577888819895       0.596195561397831     
  0.629515374922510       0.638825202321329       0.626784954710328     
  0.598892863671054       0.158136658409509       0.275833244834506     
  0.387805692217183       0.487411750207111       0.564196891249016     
  0.614273057934114       0.640233668417949       0.644428011609497     
  0.628613200429008       0.597142815938844       0.172826647399783     
  0.290007629199369       0.395835893243947       0.485901471420540     
  0.552130145351924       0.591435471374250       0.606417203027359     
  0.601795687676952       0.581257434627583       0.549511082318024     
  0.171585348825361       0.279998026772762       0.371421225968226     
  0.444592742760901       0.495887347844116       0.524730357098907     
  0.534616211305807       0.529719134994227       0.512976295332360     
  0.488626287202453       0.156864147617620       0.247580681289577     
  0.319965235942969       0.377547816019874       0.419470612362574     
  0.447131633387118       0.462642735143883       0.467864026601785     
  0.464344550980496       0.453849769665325       0.157455756752465     
  0.240788921834780       0.304169485027584       0.355090373301814     
  0.395706447172141       0.427102689857338       0.450121716361402     
  0.465395667762622       0.473296363275823       0.473905989527795     
  0.180691781797421       0.271475341628809       0.338455260046208     
  0.392097792791608       0.436023545213333       0.471838003944033     
  0.500326115868428       0.521842157071932       0.536377175586838     
  0.543329238255065       0.217874769988196       0.324639012258148     
  0.402100145724247       0.463604921823412       0.513952883267159     
  0.555366397506885       0.588980716010542       0.615328968008026     
  0.634419168445104       0.645394330653902       0.263372314340963     
  0.390544158488624       0.481774190737930       0.553641069134843     
  0.612215561008908       0.660381813404383       0.699657501537940     
  0.730797276593307       0.753902103357775       0.767989185390475     
  0.314107985308356       0.464277657198094       0.571103031376371     
  0.654693102589451       0.722492547172218       0.778085882676319     
  0.823393350346773       0.859406762172712       0.886340133574881     
  0.903131766867110       0.368099297103064       0.542821319208895     
  0.666309044397989       0.762386841086042       0.839941679158983     
  0.903299429453853       0.954809099502942       0.995715881080344     
   1.02635991865353        1.04562939358670       0.424294509197745     
  0.624561901140418       0.765347773313152       0.874327183161183     
  0.961878448199170        1.03310356360517        1.09081171913973     
   1.13652461437760        1.17072993030395        1.19229716340933     
  0.482497206749989       0.709181415396018       0.867775717035372     
  0.989927655838583        1.08755776794088        1.16657814734870     
   1.23030230554665        1.28057864302234        1.31808630206639     
   1.34173238542623       0.543995948114054       0.798632315079773     
  0.975903791179241        1.11161316998673        1.21933789126430     
   1.30589781367649        1.37519687631273        1.42950851465792     
   1.46981252328461        1.49516062998374       0.618710286328057     
  0.906080539198472        1.10410643216346        1.25401600879995     
   1.37168059776317        1.46518104342465        1.53922301779681     
   1.59665269235407        1.63889514257323        1.66532920027751     
  0.750107604730055        1.08285521674142        1.30486110906023     
   1.46980480313738        1.59753810327881        1.69782052147229     
   1.77640702580940        1.83689269799083        1.88123844070177     
   1.90914172196588       0.945387064710251        1.33856233445073     
   1.58800690590034        1.76707126978010        1.90183565718300     
   2.00543731011244        2.08549031885098        2.14661716074652     
   2.19140307739106        2.22000091553820        1.04459623350781     
   1.46696786751426        1.72543930781441        1.90387740254242     
   2.03431055052941        2.13230108554067        2.20652790334642     
   2.26208810084401        2.30181155031407        2.32642505226065     
   1.01508860451538        1.41094809721018        1.64508205985740     
   1.80203135616127        1.91421627545127        1.99714149624378     
   2.05909316325288        2.10467938817067        2.13625784384864     
   2.15445246230385       0.890949298035817        1.21260176854570     
   1.39581642085075        1.51673425111907        1.60256089481064     
   1.66577701388249        1.71289002638983        1.74747291579982     
   1.77139684655671        1.78528609162833       0.685488111043292     
  0.904009586425594        1.02684443626764        1.10812838414911     
   1.16604145388190        1.20885477933630        1.24091151872525     
   1.26467624590959        1.28176139305987        1.29444923460793     
  0.417514499285570       0.539952705812697       0.609457617178342     
  0.655728972387848       0.688821270146178       0.713348682791544     
  0.731745615323564       0.745370852038871       0.754978093924977     
  0.760836304491953     
  0.000000000000000E+000  0.000000000000000E+000  0.000000000000000E+000
  0.000000000000000E+000  0.000000000000000E+000  0.000000000000000E+000
  0.000000000000000E+000  0.000000000000000E+000  0.000000000000000E+000
  0.000000000000000E+000  0.000000000000000E+000  0.000000000000000E+000
  0.000000000000000E+000  0.000000000000000E+000  0.000000000000000E+000
  0.000000000000000E+000  0.000000000000000E+000  0.000000000000000E+000
  0.000000000000000E+000  0.000000000000000E+000  0.000000000000000E+000
  0.000000000000000E+000  0.000000000000000E+000  0.000000000000000E+000
  0.000000000000000E+000  0.000000000000000E+000  0.000000000000000E+000
  0.000000000000000E+000  0.000000000000000E+000  0.000000000000000E+000
  0.000000000000000E+000  0.000000000000000E+000  0.000000000000000E+000
  0.000000000000000E+000  0.000000000000000E+000  0.000000000000000E+000
  0.000000000000000E+000  0.000000000000000E+000  0.000000000000000E+000
  0.000000000000000E+000  0.000000000000000E+000  0.000000000000000E+000
  0.000000000000000E+000  0.000000000000000E+000  0.000000000000000E+000
  0.000000000000000E+000  0.000000000000000E+000  0.000000000000000E+000
  0.000000000000000E+000  0.000000000000000E+000  0.000000000000000E+000
  0.000000000000000E+000  0.000000000000000E+000  0.000000000000000E+000
  0.000000000000000E+000  0.000000000000000E+000  0.000000000000000E+000
  0.000000000000000E+000  0.000000000000000E+000  0.000000000000000E+000
  0.000000000000000E+000  0.000000000000000E+000  0.000000000000000E+000
  0.000000000000000E+000  0.000000000000000E+000  0.000000000000000E+000
  0.000000000000000E+000  0.000000000000000E+000  0.000000000000000E+000
  0.000000000000000E+000  0.000000000000000E+000  0.000000000000000E+000
  0.000000000000000E+000  0.000000000000000E+000  0.000000000000000E+000
  0.000000000000000E+000  0.000000000000000E+000  0.000000000000000E+000
  0.000000000000000E+000  0.000000000000000E+000  0.000000000000000E+000
  0.000000000000000E+000  0.000000000000000E+000  0.000000000000000E+000
  0.000000000000000E+000  0.000000000000000E+000  0.000000000000000E+000
  0.000000000000000E+000  0.000000000000000E+000  0.000000000000000E+000
  0.000000000000000E+000  0.000000000000000E+000  0.000000000000000E+000
  0.000000000000000E+000  0.000000000000000E+000  0.000000000000000E+000
  0.000000000000000E+000  0.000000000000000E+000  0.000000000000000E+000
  0.000000000000000E+000  0.000000000000000E+000  0.000000000000000E+000
  0.000000000000000E+000  0.000000000000000E+000  0.000000000000000E+000
  0.000000000000000E+000  0.000000000000000E+000  0.000000000000000E+000
  0.000000000000000E+000  0.000000000000000E+000  0.000000000000000E+000
  0.000000000000000E+000  0.000000000000000E+000  0.000000000000000E+000
  0.000000000000000E+000  0.000000000000000E+000  0.000000000000000E+000