 Title = "Wing and Wake"
 VARIABLES = "X" "Y" "Z" "GAM" "skew"
 Zone I=   11 J=   26 K=1  T="Blade"
 DATAPACKING=BLOCK
 VARLOCATION=([4]=CELLCENTERED,[5]=CELLCENTERED)
 -0.237940536432728      -0.219825586152978      -0.201710635873228     
 -0.183595685593478      -0.165480735313728      -0.147365785033978     
 -0.129250834754228      -0.111135884474478      -9.302093419472807E-002
 -7.490598391497806E-002 -5.679103363522807E-002 -0.239059803455081     
 -0.220944853175330      -0.202829902895581      -0.184714952615831     
 -0.166600002336081      -0.148485052056331      -0.130370101776581     
 -0.112255151496831      -9.414020121708057E-002 -7.602525093733052E-002
 -5.791030065758059E-002 -0.242399953012578      -0.224285002732828     
 -0.206170052453078      -0.188055102173328      -0.169940151893578     
 -0.151825201613828      -0.133710251334078      -0.115595301054328     
 -9.748035077457791E-002 -7.936540049482793E-002 -6.125045021507791E-002
 -0.247908308951390      -0.229793358671640      -0.211678408391890     
 -0.193563458112140      -0.175448507832390      -0.157333557552640     
 -0.139218607272890      -0.121103656993140      -0.102988706713390     
 -8.487375643363973E-002 -6.675880615388977E-002 -0.255498001207829     
 -0.237383050928079      -0.219268100648329      -0.201153150368579     
 -0.183038200088829      -0.164923249809079      -0.146808299529329     
 -0.128693349249579      -0.110578398969829      -9.246344869007860E-002
 -7.434849841032859E-002 -0.265049335801148      -0.246934385521398     
 -0.228819435241648      -0.210704484961898      -0.192589534682148     
 -0.174474584402398      -0.156359634122648      -0.138244683842898     
 -0.120129733563148      -0.102014783283398      -8.389983300364796E-002
 -0.276411682479121      -0.258296732199371      -0.240181781919621     
 -0.222066831639871      -0.203951881360121      -0.185836931080371     
 -0.167721980800621      -0.149607030520871      -0.131492080241121     
 -0.113377129961371      -9.526217968162078E-002 -0.289405850247098     
 -0.271290899967348      -0.253175949687598      -0.235060999407848     
 -0.216946049128098      -0.198831098848348      -0.180716148568598     
 -0.162601198288848      -0.144486248009098      -0.126371297729348     
 -0.108256347449598      -0.303826913317039      -0.285711963037290     
 -0.267597012757540      -0.249482062477790      -0.231367112198040     
 -0.213252161918290      -0.195137211638540      -0.177022261358790     
 -0.158907311079040      -0.140792360799290      -0.122677410519540     
 -0.319447442909607      -0.301332492629857      -0.283217542350107     
 -0.265102592070357      -0.246987641790607      -0.228872691510857     
 -0.210757741231107      -0.192642790951357      -0.174527840671607     
 -0.156412890391857      -0.138297940112107      -0.336021093941873     
 -0.317906143662123      -0.299791193382373      -0.281676243102623     
 -0.263561292822873      -0.245446342543123      -0.227331392263373     
 -0.209216441983623      -0.191101491703873      -0.172986541424123     
 -0.154871591144373      -0.353286490036440      -0.335171539756690     
 -0.317056589476940      -0.298941639197190      -0.280826688917440     
 -0.262711738637690      -0.244596788357940      -0.226481838078190     
 -0.208366887798440      -0.190251937518690      -0.172136987238940     
 -0.370971345583049      -0.352856395303299      -0.334741445023549     
 -0.316626494743798      -0.298511544464048      -0.280396594184299     
 -0.262281643904549      -0.244166693624799      -0.226051743345049     
 -0.207936793065299      -0.189821842785549      -0.388796759845308     
 -0.370681809565559      -0.352566859285808      -0.334451909006058     
 -0.316336958726308      -0.298222008446558      -0.280107058166808     
 -0.261992107887058      -0.243877157607308      -0.225762207327558     
 -0.207647257047808      -0.406481615391917      -0.388366665112167     
 -0.370251714832417      -0.352136764552667      -0.334021814272917     
 -0.315906863993167      -0.297791913713417      -0.279676963433667     
 -0.261562013153917      -0.243447062874167      -0.225332112594417     
 -0.423747011486484      -0.405632061206733      -0.387517110926984     
 -0.369402160647234      -0.351287210367484      -0.333172260087734     
 -0.315057309807984      -0.296942359528234      -0.278827409248484     
 -0.260712458968734      -0.242597508688984      -0.440320662518750     
 -0.422205712239000      -0.404090761959250      -0.385975811679500     
 -0.367860861399750      -0.349745911119999      -0.331630960840250     
 -0.313516010560500      -0.295401060280750      -0.277286110001000     
 -0.259171159721250      -0.455941192111317      -0.437826241831567     
 -0.419711291551818      -0.401596341272067      -0.383481390992317     
 -0.365366440712567      -0.347251490432817      -0.329136540153067     
 -0.311021589873317      -0.292906639593567      -0.274791689313817     
 -0.470362255181259      -0.452247304901509      -0.434132354621758     
 -0.416017404342009      -0.397902454062258      -0.379787503782508     
 -0.361672553502759      -0.343557603223008      -0.325442652943258     
 -0.307327702663509      -0.289212752383759      -0.483356422949236     
 -0.465241472669486      -0.447126522389736      -0.429011572109986     
 -0.410896621830236      -0.392781671550486      -0.374666721270736     
 -0.356551770990986      -0.338436820711236      -0.320321870431486     
 -0.302206920151736      -0.494718769627209      -0.476603819347459     
 -0.458488869067709      -0.440373918787959      -0.422258968508209     
 -0.404144018228459      -0.386029067948709      -0.367914117668959     
 -0.349799167389209      -0.331684217109458      -0.313569266829709     
 -0.504270104220528      -0.486155153940778      -0.468040203661028     
 -0.449925253381278      -0.431810303101528      -0.413695352821778     
 -0.395580402542028      -0.377465452262278      -0.359350501982528     
 -0.341235551702779      -0.323120601423029      -0.511859796476968     
 -0.493744846197217      -0.475629895917467      -0.457514945637717     
 -0.439399995357967      -0.421285045078218      -0.403170094798467     
 -0.385055144518717      -0.366940194238967      -0.348825243959217     
 -0.330710293679467      -0.517368152415779      -0.499253202136029     
 -0.481138251856279      -0.463023301576529      -0.444908351296779     
 -0.426793401017029      -0.408678450737279      -0.390563500457529     
 -0.372448550177779      -0.354333599898029      -0.336218649618279     
 -0.520708301973276      -0.502593351693526      -0.484478401413776     
 -0.466363451134026      -0.448248500854276      -0.430133550574526     
 -0.412018600294776      -0.393903650015026      -0.375788699735276     
 -0.357673749455527      -0.339558799175776      -0.521827568995629     
 -0.503712618715878      -0.485597668436129      -0.467482718156379     
 -0.449367767876629      -0.431252817596879      -0.413137867317129     
 -0.395022917037378      -0.376907966757629      -0.358793016477879     
 -0.340678066198129     
  0.125314218878351       0.130970580266730       0.136626941655108     
  0.142283303043487       0.147939664431866       0.153596025820245     
  0.159252387208623       0.164908748597002       0.170565109985381     
  0.176221471373760       0.181877832762138       0.128898761142807     
  0.134555122531186       0.140211483919564       0.145867845307943     
  0.151524206696322       0.157180568084701       0.162836929473079     
  0.168493290861458       0.174149652249837       0.179806013638216     
  0.185462375026594       0.139595857563362       0.145252218951741     
  0.150908580340120       0.156564941728498       0.162221303116877     
  0.167877664505256       0.173534025893634       0.179190387282013     
  0.184846748670392       0.190503110058771       0.196159471447150     
  0.157236808539329       0.162893169927708       0.168549531316087     
  0.174205892704465       0.179862254092844       0.185518615481223     
  0.191174976869601       0.196831338257980       0.202487699646359     
  0.208144061034738       0.213800422423116       0.181543405735623     
  0.187199767124002       0.192856128512381       0.198512489900759     
  0.204168851289138       0.209825212677517       0.215481574065896     
  0.221137935454274       0.226794296842653       0.232450658231032     
  0.238107019619411       0.212132319594402       0.217788680982780     
  0.223445042371159       0.229101403759538       0.234757765147917     
  0.240414126536295       0.246070487924674       0.251726849313053     
  0.257383210701432       0.263039572089810       0.268695933478189     
  0.248521144671180       0.254177506059559       0.259833867447938     
  0.265490228836317       0.271146590224695       0.276802951613074     
  0.282459313001452       0.288115674389831       0.293772035778210     
  0.299428397166589       0.305084758554967       0.290136007456868     
  0.295792368845246       0.301448730233625       0.307105091622004     
  0.312761453010382       0.318417814398761       0.324074175787140     
  0.329730537175519       0.335386898563898       0.341043259952277     
  0.346699621340655       0.336320616705820       0.341976978094198     
  0.347633339482577       0.353289700870956       0.358946062259335     
  0.364602423647713       0.370258785036092       0.375915146424471     
  0.381571507812849       0.387227869201228       0.392884230589607     
  0.386346613540832       0.392002974929210       0.397659336317589     
  0.403315697705968       0.408972059094347       0.414628420482725     
  0.420284781871104       0.425941143259483       0.431597504647862     
  0.437253866036240       0.442910227424619       0.439425058107734     
  0.445081419496113       0.450737780884491       0.456394142272870     
  0.462050503661249       0.467706865049628       0.473363226438006     
  0.479019587826385       0.484675949214764       0.490332310603143     
  0.495988671991521       0.494718871628181       0.500375233016559     
  0.506031594404938       0.511687955793316       0.517344317181696     
  0.523000678570074       0.528657039958453       0.534313401346832     
  0.539969762735211       0.545626124123589       0.551282485511968     
  0.551356037632030       0.557012399020409       0.562668760408788     
  0.568325121797167       0.573981483185546       0.579637844573924     
  0.585294205962303       0.590950567350682       0.596606928739061     
  0.602263290127439       0.607919651515818       0.608443354178000     
  0.614099715566379       0.619756076954758       0.625412438343137     
  0.631068799731516       0.636725161119895       0.642381522508273     
  0.648037883896652       0.653694245285031       0.659350606673410     
  0.665006968061788       0.665080520181850       0.670736881570229     
  0.676393242958608       0.682049604346987       0.687705965735365     
  0.693362327123744       0.699018688512123       0.704675049900502     
  0.710331411288880       0.715987772677259       0.721644134065638     
  0.720374333702297       0.726030695090676       0.731687056479055     
  0.737343417867433       0.742999779255812       0.748656140644191     
  0.754312502032570       0.759968863420949       0.765625224809327     
  0.771281586197706       0.776937947586085       0.773452778269200     
  0.779109139657578       0.784765501045957       0.790421862434335     
  0.796078223822715       0.801734585211093       0.807390946599472     
  0.813047307987851       0.818703669376229       0.824360030764608     
  0.830016392152987       0.823478775104212       0.829135136492590     
  0.834791497880969       0.840447859269348       0.846104220657726     
  0.851760582046105       0.857416943434484       0.863073304822862     
  0.868729666211241       0.874386027599620       0.880042388987998     
  0.869663384353163       0.875319745741542       0.880976107129920     
  0.886632468518300       0.892288829906678       0.897945191295057     
  0.903601552683436       0.909257914071815       0.914914275460193     
  0.920570636848572       0.926226998236951       0.911278247138851     
  0.916934608527229       0.922590969915608       0.928247331303987     
  0.933903692692366       0.939560054080744       0.945216415469124     
  0.950872776857502       0.956529138245881       0.962185499634259     
  0.967841861022638       0.947667072215629       0.953323433604008     
  0.958979794992387       0.964636156380765       0.970292517769144     
  0.975948879157523       0.981605240545902       0.987261601934281     
  0.992917963322659       0.998574324711037        1.00423068609942     
  0.978255986074407       0.983912347462787       0.989568708851166     
  0.995225070239544        1.00088143162792        1.00653779301630     
   1.01219415440468        1.01785051579306        1.02350687718144     
   1.02916323856982        1.03481959995820        1.00256258327070     
   1.00821894465908        1.01387530604746        1.01953166743584     
   1.02518802882422        1.03084439021260        1.03650075160097     
   1.04215711298935        1.04781347437773        1.05346983576611     
   1.05912619715449        1.02020353424667        1.02585989563505     
   1.03151625702343        1.03717261841181        1.04282897980018     
   1.04848534118856        1.05414170257694        1.05979806396532     
   1.06545442535370        1.07111078674208        1.07676714813046     
   1.03090063066722        1.03655699205560        1.04221335344398     
   1.04786971483236        1.05352607622074        1.05918243760912     
   1.06483879899750        1.07049516038587        1.07615152177425     
   1.08180788316263        1.08746424455101        1.03448517293168     
   1.04014153432006        1.04579789570844        1.05145425709682     
   1.05711061848520        1.06276697987357        1.06842334126195     
   1.07407970265033        1.07973606403871        1.08539242542709     
   1.09104878681547     
  1.660316899342888E-002  1.494285209408599E-002  1.328253519474311E-002
  1.162221829540022E-002  9.961901396057328E-003  8.301584496714441E-003
  6.641267597371552E-003  4.980950698028665E-003  3.320633798685776E-003
  1.660316899342887E-003  0.000000000000000E+000  1.660316899342888E-002
  1.494285209408599E-002  1.328253519474311E-002  1.162221829540022E-002
  9.961901396057328E-003  8.301584496714441E-003  6.641267597371552E-003
  4.980950698028665E-003  3.320633798685776E-003  1.660316899342887E-003
  0.000000000000000E+000  1.660316899342888E-002  1.494285209408599E-002
  1.328253519474311E-002  1.162221829540022E-002  9.961901396057328E-003
  8.301584496714441E-003  6.641267597371552E-003  4.980950698028665E-003
  3.320633798685776E-003  1.660316899342887E-003  0.000000000000000E+000
  1.660316899342888E-002  1.494285209408599E-002  1.328253519474311E-002
  1.162221829540022E-002  9.961901396057328E-003  8.301584496714441E-003
  6.641267597371552E-003  4.980950698028665E-003  3.320633798685776E-003
  1.660316899342887E-003  0.000000000000000E+000  1.660316899342888E-002
  1.494285209408599E-002  1.328253519474311E-002  1.162221829540022E-002
  9.961901396057328E-003  8.301584496714441E-003  6.641267597371552E-003
  4.980950698028665E-003  3.320633798685776E-003  1.660316899342887E-003
  0.000000000000000E+000  1.660316899342888E-002  1.494285209408599E-002
  1.328253519474311E-002  1.162221829540022E-002  9.961901396057328E-003
  8.301584496714441E-003  6.641267597371552E-003  4.980950698028665E-003
  3.320633798685776E-003  1.660316899342887E-003  0.000000000000000E+000
  1.660316899342888E-002  1.494285209408599E-002  1.328253519474311E-002
  1.162221829540022E-002  9.961901396057328E-003  8.301584496714441E-003
  6.641267597371552E-003  4.980950698028665E-003  3.320633798685776E-003
  1.660316899342887E-003  0.000000000000000E+000  1.660316899342888E-002
  1.494285209408599E-002  1.328253519474311E-002  1.162221829540022E-002
  9.961901396057328E-003  8.301584496714441E-003  6.641267597371552E-003
  4.980950698028665E-003  3.320633798685776E-003  1.660316899342887E-003
  0.000000000000000E+000  1.660316899342888E-002  1.494285209408599E-002
  1.328253519474311E-002  1.162221829540022E-002  9.961901396057328E-003
  8.301584496714441E-003  6.641267597371552E-003  4.980950698028665E-003
  3.320633798685776E-003  1.660316899342887E-003  0.000000000000000E+000
  1.660316899342888E-002  1.494285209408599E-002  1.328253519474311E-002
  1.162221829540022E-002  9.961901396057328E-003  8.301584496714441E-003
  6.641267597371552E-003  4.980950698028665E-003  3.320633798685776E-003
  1.660316899342887E-003  0.000000000000000E+000  1.660316899342888E-002
  1.494285209408599E-002  1.328253519474311E-002  1.162221829540022E-002
  9.961901396057328E-003  8.301584496714441E-003  6.641267597371552E-003
  4.980950698028665E-003  3.320633798685776E-003  1.660316899342887E-003
  0.000000000000000E+000  1.660316899342888E-002  1.494285209408599E-002
  1.328253519474311E-002  1.162221829540022E-002  9.961901396057328E-003
  8.301584496714441E-003  6.641267597371552E-003  4.980950698028665E-003
  3.320633798685776E-003  1.660316899342887E-003  0.000000000000000E+000
  1.660316899342888E-002  1.494285209408599E-002  1.328253519474311E-002
  1.162221829540022E-002  9.961901396057328E-003  8.301584496714441E-003
  6.641267597371552E-003  4.980950698028665E-003  3.320633798685776E-003
  1.660316899342887E-003  0.000000000000000E+000  1.660316899342888E-002
  1.494285209408599E-002  1.328253519474311E-002  1.162221829540022E-002
  9.961901396057328E-003  8.301584496714441E-003  6.641267597371552E-003
  4.980950698028665E-003  3.320633798685776E-003  1.660316899342887E-003
  0.000000000000000E+000  1.660316899342888E-002  1.494285209408599E-002
  1.328253519474311E-002  1.162221829540022E-002  9.961901396057328E-003
  8.301584496714441E-003  6.641267597371552E-003  4.980950698028665E-003
  3.320633798685776E-003  1.660316899342887E-003  0.000000000000000E+000
  1.660316899342888E-002  1.494285209408599E-002  1.328253519474311E-002
  1.162221829540022E-002  9.961901396057328E-003  8.301584496714441E-003
  6.641267597371552E-003  4.980950698028665E-003  3.320633798685776E-003
  1.660316899342887E-003  0.000000000000000E+000  1.660316899342888E-002
  1.494285209408599E-002  1.328253519474311E-002  1.162221829540022E-002
  9.961901396057328E-003  8.301584496714441E-003  6.641267597371552E-003
  4.980950698028665E-003  3.320633798685776E-003  1.660316899342887E-003
  0.000000000000000E+000  1.660316899342888E-002  1.494285209408599E-002
  1.328253519474311E-002  1.162221829540022E-002  9.961901396057328E-003
  8.301584496714441E-003  6.641267597371552E-003  4.980950698028665E-003
  3.320633798685776E-003  1.660316899342887E-003  0.000000000000000E+000
  1.660316899342888E-002  1.494285209408599E-002  1.328253519474311E-002
  1.162221829540022E-002  9.961901396057328E-003  8.301584496714441E-003
  6.641267597371552E-003  4.980950698028665E-003  3.320633798685776E-003
  1.660316899342887E-003  0.000000000000000E+000  1.660316899342888E-002
  1.494285209408599E-002  1.328253519474311E-002  1.162221829540022E-002
  9.961901396057328E-003  8.301584496714441E-003  6.641267597371552E-003
  4.980950698028665E-003  3.320633798685776E-003  1.660316899342887E-003
  0.000000000000000E+000  1.660316899342888E-002  1.494285209408599E-002
  1.328253519474311E-002  1.162221829540022E-002  9.961901396057328E-003
  8.301584496714441E-003  6.641267597371552E-003  4.980950698028665E-003
  3.320633798685776E-003  1.660316899342887E-003  0.000000000000000E+000
  1.660316899342888E-002  1.494285209408599E-002  1.328253519474311E-002
  1.162221829540022E-002  9.961901396057328E-003  8.301584496714441E-003
  6.641267597371552E-003  4.980950698028665E-003  3.320633798685776E-003
  1.660316899342887E-003  0.000000000000000E+000  1.660316899342888E-002
  1.494285209408599E-002  1.328253519474311E-002  1.162221829540022E-002
  9.961901396057328E-003  8.301584496714441E-003  6.641267597371552E-003
  4.980950698028665E-003  3.320633798685776E-003  1.660316899342887E-003
  0.000000000000000E+000  1.660316899342888E-002  1.494285209408599E-002
  1.328253519474311E-002  1.162221829540022E-002  9.961901396057328E-003
  8.301584496714441E-003  6.641267597371552E-003  4.980950698028665E-003
  3.320633798685776E-003  1.660316899342887E-003  0.000000000000000E+000
  1.660316899342888E-002  1.494285209408599E-002  1.328253519474311E-002
  1.162221829540022E-002  9.961901396057328E-003  8.301584496714441E-003
  6.641267597371552E-003  4.980950698028665E-003  3.320633798685776E-003
  1.660316899342887E-003  0.000000000000000E+000  1.660316899342888E-002
  1.494285209408599E-002  1.328253519474311E-002  1.162221829540022E-002
  9.961901396057328E-003  8.301584496714441E-003  6.641267597371552E-003
  4.980950698028665E-003  3.320633798685776E-003  1.660316899342887E-003
  0.000000000000000E+000
  0.158925279754428       0.224916487608803       0.275007238011908     
  0.316588058145307       0.351878382059827       0.381483937181378     
  0.405618263308378       0.424846752168087       0.439666636213446     
  0.450186652550432       0.263483150101088       0.378234366453995     
  0.464097291884702       0.535191858363276       0.595568581072003     
  0.646556466877008       0.688553335944038       0.722334585630094     
  0.748733405965245       0.768961372356514       0.352341896954015     
  0.516578328777178       0.637186869168981       0.737151074986910     
  0.822210317075377       0.894738947405361       0.955645730176382     
   1.00540384386436        1.04403782800522        1.07098864869081     
  0.423692951064780       0.629359909614542       0.779484719972074     
  0.902234701344966        1.00682905099467        1.09683675137135     
   1.17311744183087        1.23551490749965        1.28250570627989     
   1.31263488290717       0.483596722810805       0.720918807483218     
  0.895544595972752        1.03715551874450        1.15665403905843     
   1.25909936086148        1.34575545161761        1.41567169840868     
   1.46676992507034        1.49807695275349       0.538939932045688     
  0.804198649218239       0.997721678745973        1.15336637129721     
   1.28441901102169        1.39625010701650        1.49056720853012     
   1.56580005740536        1.61947354197413        1.65219861424706     
  0.594303461182355       0.884944405942958        1.09654528548563     
   1.26670176053697        1.40875830839281        1.52821351485231     
   1.62839116457491        1.70905009380936        1.76812306507891     
   1.80499470572972       0.648804076961727       0.964561732218263     
   1.19394155337688        1.37758721331774        1.52958461032395     
   1.65711104760479        1.76364157424807        1.84963423499834     
   1.91438560908721        1.95618274335942       0.701008363626005     
   1.04097675344386        1.28709094753352        1.48328363291665     
   1.64549546054776        1.78169140787107        1.89549898735912     
   1.98762693051210        2.05786355570125        2.10387710454944     
  0.752072865157401        1.11552547821476        1.37753241835435     
   1.58563913542326        1.75740168237094        1.90128797121495     
   2.02134841423932        2.11868226309685        2.19322049690391     
   2.24231303173221       0.802703929396759        1.18874621306815     
   1.46559436684938        1.68461174760766        1.86489994576312     
   2.01556863014320        2.14100799859438        2.24285347532843     
   2.32105103168232        2.37252361132756       0.850456853045098     
   1.25759833308827        1.54848560361703        1.77798683748777     
   1.96648142574576        2.12355851169463        2.25390965323564     
   2.35965180754810        2.44096671724553        2.49450344869357     
  0.894544626436313        1.32100035124236        1.62454216300771     
   1.86317957073234        2.05848018351007        2.22067073605201     
   2.35491951085228        2.46363598070926        2.54706601893157     
   2.60184612752241       0.933567919018267        1.37661046826751     
   1.69041702208953        1.93583784733914        2.13564358108730     
   2.30082256412071        2.43712958400832        2.54739543768716     
   2.63213373385084        2.68799873055200       0.965011867032424     
   1.42090133077151        1.74225317368486        1.99227462268747     
   2.19471964149181        2.36121715781790        2.49806663789881     
   2.60851265011294        2.69330994204928        2.74924932535935     
  0.984964550939698        1.44811730334855        1.77302829740544     
   2.02458163557526        2.22726517069554        2.39316192766060     
   2.52888652639012        2.63793463617902        2.72135275937114     
   2.77624813574251       0.988168780163520        1.45071327746462     
   1.77369857862058        2.02257684298523        2.22211975672139     
   2.38461892961883        2.51688062983653        2.62259157082444     
   2.70306308434997        2.75583209806491       0.969231516387754     
   1.42127467421975        1.73564392615074        1.97677214677461     
   2.16909448229291        2.32482477474279        2.45088760269543     
   2.55120533213579        2.62725807689515        2.67692106623144     
  0.928373964182642        1.36030486087548        1.65930058299095     
   1.88734165323158        2.06808615925886        2.21337923058256     
   2.33004152657402        2.42212244514827        2.49135257084955     
   2.53609337130995       0.890249824886855        1.29711127796346     
   1.57339065927114        1.78097620105095        1.94387873986973     
   2.07352792691372        2.17639989374642        2.25662319825881     
   2.31591633341204        2.35298544654382       0.915566255464158     
   1.30267686377498        1.54897354070122        1.72610213326606     
   1.86343663824065        1.97096957108659        2.05424533030372     
   2.11711435404609        2.16156148330180        2.18699545169214     
  0.950375995915420        1.31227382015660        1.52355776623646     
   1.66703231220961        1.77657321498638        1.86141137457994     
   1.92581249398477        1.97290483069480        2.00444348356504     
   2.02057175667789       0.897112048317267        1.20104505317505     
   1.36608657795387        1.47434528526849        1.55557866642902     
   1.61808944346830        1.66497982209448        1.69851957458506     
   1.72032882246371        1.73128796361369       0.717972257839683     
  0.928534439038913        1.04034596343218        1.11343069217390     
   1.16816590948368        1.21009865338041        1.24163034951163     
   1.26434501357060        1.27970364586754        1.29025378387355     
  0.443030204739200       0.561364506890250       0.624769107477299     
  0.666453466047181       0.697873810991626       0.721939848682372     
  0.740055567866799       0.753101876896037       0.761756697349602     
  0.766460333873944     
  0.000000000000000E+000  0.000000000000000E+000  0.000000000000000E+000
  0.000000000000000E+000  0.000000000000000E+000  0.000000000000000E+000
  0.000000000000000E+000  0.000000000000000E+000  0.000000000000000E+000
  0.000000000000000E+000  0.000000000000000E+000  0.000000000000000E+000
  0.000000000000000E+000  0.000000000000000E+000  0.000000000000000E+000
  0.000000000000000E+000  0.000000000000000E+000  0.000000000000000E+000
  0.000000000000000E+000  0.000000000000000E+000  0.000000000000000E+000
  0.000000000000000E+000  0.000000000000000E+000  0.000000000000000E+000
  0.000000000000000E+000  0.000000000000000E+000  0.000000000000000E+000
  0.000000000000000E+000  0.000000000000000E+000  0.000000000000000E+000
  0.000000000000000E+000  0.000000000000000E+000  0.000000000000000E+000
  0.000000000000000E+000  0.000000000000000E+000  0.000000000000000E+000
  0.000000000000000E+000  0.000000000000000E+000  0.000000000000000E+000
  0.000000000000000E+000  0.000000000000000E+000  0.000000000000000E+000
  0.000000000000000E+000  0.000000000000000E+000  0.000000000000000E+000
  0.000000000000000E+000  0.000000000000000E+000  0.000000000000000E+000
  0.000000000000000E+000  0.000000000000000E+000  0.000000000000000E+000
  0.000000000000000E+000  0.000000000000000E+000  0.000000000000000E+000
  0.000000000000000E+000  0.000000000000000E+000  0.000000000000000E+000
  0.000000000000000E+000  0.000000000000000E+000  0.000000000000000E+000
  0.000000000000000E+000  0.000000000000000E+000  0.000000000000000E+000
  0.000000000000000E+000  0.000000000000000E+000  0.000000000000000E+000
  0.000000000000000E+000  0.000000000000000E+000  0.000000000000000E+000
  0.000000000000000E+000  0.000000000000000E+000  0.000000000000000E+000
  0.000000000000000E+000  0.000000000000000E+000  0.000000000000000E+000
  0.000000000000000E+000  0.000000000000000E+000  0.000000000000000E+000
  0.000000000000000E+000  0.000000000000000E+000  0.000000000000000E+000
  0.000000000000000E+000  0.000000000000000E+000  0.000000000000000E+000
  0.000000000000000E+000  0.000000000000000E+000  0.000000000000000E+000
  0.000000000000000E+000  0.000000000000000E+000  0.000000000000000E+000
  0.000000000000000E+000  0.000000000000000E+000  0.000000000000000E+000
  0.000000000000000E+000  0.000000000000000E+000  0.000000000000000E+000
  0.000000000000000E+000  0.000000000000000E+000  0.000000000000000E+000
  0.000000000000000E+000  0.000000000000000E+000  0.000000000000000E+000
  0.000000000000000E+000  0.000000000000000E+000  0.000000000000000E+000
  0.000000000000000E+000  0.000000000000000E+000  0.000000000000000E+000
  0.000000000000000E+000  0.000000000000000E+000  0.000000000000000E+000
  0.000000000000000E+000  0.000000000000000E+000  0.000000000000000E+000
  0.000000000000000E+000  0.000000000000000E+000  0.000000000000000E+000