 Title = "Wing and Wake"
 VARIABLES = "X" "Y" "Z" "GAM" "skew"
 Zone I=   11 J=   26 K=1  T="Blade"
 DATAPACKING=BLOCK
 VARLOCATION=([4]=CELLCENTERED,[5]=CELLCENTERED)
  5.945764734405827E-002  6.960995352604815E-002  7.976225970803835E-002
  8.991456589002837E-002  0.100066872072018       0.110219178254009     
  0.120371484435999       0.130523790617989       0.140676096799979     
  0.150828402981969       0.160980709163959       6.263033830368135E-002
  7.278264448567155E-002  8.293495066766156E-002  9.308725684965169E-002
  0.103239563031642       0.113391869213632       0.123544175395622     
  0.133696481577612       0.143848787759602       0.154001093941592     
  0.164153400123582       7.209837595084360E-002  8.225068213283369E-002
  9.240298831482385E-002  0.102555294496814       0.112707600678804     
  0.122859906860794       0.133012213042784       0.143164519224774     
  0.153316825406764       0.163469131588754       0.173621437770745     
  8.771244367591827E-002  9.786474985790829E-002  0.108017056039899     
  0.118169362221889       0.128321668403878       0.138473974585869     
  0.148626280767859       0.158778586949849       0.168930893131839     
  0.179083199313829       0.189235505495819       0.109226298303488     
  0.119378604485478       0.129530910667468       0.139683216849458     
  0.149835523031449       0.159987829213439       0.170140135395429     
  0.180292441577419       0.190444747759409       0.200597053941399     
  0.210749360123389       0.136300653494323       0.146452959676313     
  0.156605265858303       0.166757572040293       0.176909878222284     
  0.187062184404274       0.197214490586264       0.207366796768254     
  0.217519102950244       0.227671409132234       0.237823715314224     
  0.168508530493628       0.178660836675618       0.188813142857608     
  0.198965449039598       0.209117755221588       0.219270061403578     
  0.229422367585568       0.239574673767559       0.249726979949549     
  0.259879286131539       0.270031592313528       0.205341991841070     
  0.215494298023060       0.225646604205050       0.235798910387041     
  0.245951216569030       0.256103522751021       0.266255828933011     
  0.276408135115001       0.286560441296991       0.296712747478981     
  0.306865053660971       0.246220151847958       0.256372458029948     
  0.266524764211938       0.276677070393928       0.286829376575918     
  0.296981682757908       0.307133988939898       0.317286295121888     
  0.327438601303878       0.337590907485868       0.347743213667858     
  0.290498337511553       0.300650643693543       0.310802949875533     
  0.320955256057523       0.331107562239513       0.341259868421503     
  0.351412174603493       0.361564480785483       0.371716786967473     
  0.381869093149463       0.392021399331453       0.337478255393434     
  0.347630561575424       0.357782867757414       0.367935173939404     
  0.378087480121394       0.388239786303384       0.398392092485375     
  0.408544398667364       0.418696704849355       0.428849011031345     
  0.439001317213335       0.386419004124162       0.396571310306152     
  0.406723616488142       0.416875922670132       0.427028228852123     
  0.437180535034113       0.447332841216102       0.457485147398093     
  0.467637453580083       0.477789759762073       0.487942065944063     
  0.436548758860466       0.446701065042457       0.456853371224447     
  0.467005677406437       0.477157983588427       0.487310289770417     
  0.497462595952407       0.507614902134398       0.517767208316387     
  0.527919514498377       0.538071820680368       0.487076943424093     
  0.497229249606083       0.507381555788074       0.517533861970063     
  0.527686168152053       0.537838474334044       0.547990780516034     
  0.558143086698024       0.568295392880014       0.578447699062004     
  0.588600005243994       0.537206698160397       0.547359004342388     
  0.557511310524378       0.567663616706368       0.577815922888358     
  0.587968229070348       0.598120535252338       0.608272841434328     
  0.618425147616319       0.628577453798309       0.638729759980298     
  0.586147446891126       0.596299753073116       0.606452059255106     
  0.616604365437096       0.626756671619086       0.636908977801076     
  0.647061283983066       0.657213590165057       0.667365896347046     
  0.677518202529036       0.687670508711027       0.633127364773008     
  0.643279670954997       0.653431977136987       0.663584283318977     
  0.673736589500967       0.683888895682958       0.694041201864948     
  0.704193508046938       0.714345814228928       0.724498120410918     
  0.734650426592908       0.677405550436602       0.687557856618592     
  0.697710162800582       0.707862468982572       0.718014775164562     
  0.728167081346552       0.738319387528542       0.748471693710532     
  0.758623999892522       0.768776306074513       0.778928612256502     
  0.718283710443489       0.728436016625479       0.738588322807469     
  0.748740628989460       0.758892935171449       0.769045241353440     
  0.779197547535430       0.789349853717420       0.799502159899410     
  0.809654466081400       0.819806772263390       0.755117171790932     
  0.765269477972922       0.775421784154912       0.785574090336902     
  0.795726396518892       0.805878702700882       0.816031008882872     
  0.826183315064863       0.836335621246852       0.846487927428842     
  0.856640233610832       0.787325048790236       0.797477354972226     
  0.807629661154216       0.817781967336206       0.827934273518196     
  0.838086579700186       0.848238885882177       0.858391192064167     
  0.868543498246157       0.878695804428147       0.888848110610137     
  0.814399403981071       0.824551710163062       0.834704016345052     
  0.844856322527042       0.855008628709031       0.865160934891021     
  0.875313241073011       0.885465547255002       0.895617853436992     
  0.905770159618982       0.915922465800972       0.835913258608642     
  0.846065564790632       0.856217870972621       0.866370177154612     
  0.876522483336602       0.886674789518592       0.896827095700582     
  0.906979401882572       0.917131708064562       0.927284014246553     
  0.937436320428542       0.851527326333716       0.861679632515707     
  0.871831938697696       0.881984244879687       0.892136551061676     
  0.902288857243666       0.912441163425656       0.922593469607646     
  0.932745775789637       0.942898081971628       0.953050388153616     
  0.860995363980878       0.871147670162868       0.881299976344859     
  0.891452282526848       0.901604588708838       0.911756894890828     
  0.921909201072818       0.932061507254808       0.942213813436798     
  0.952366119618789       0.962518425800779       0.864168054940501     
  0.874320361122491       0.884472667304482       0.894624973486471     
  0.904777279668462       0.914929585850452       0.925081892032442     
  0.935234198214432       0.945386504396422       0.955538810578412     
  0.965691116760403     
  0.262267307347475       0.246233701172292       0.230200094997109     
  0.214166488821925       0.198132882646742       0.182099276471558     
  0.166065670296375       0.150032064121191       0.133998457946008     
  0.117964851770824       0.101931245595641       0.264276220981190     
  0.248242614806006       0.232209008630823       0.216175402455639     
  0.200141796280455       0.184108190105272       0.168074583930089     
  0.152040977754905       0.136007371579722       0.119973765404538     
  0.103940159229355       0.270271280114260       0.254237673939077     
  0.238204067763894       0.222170461588710       0.206136855413527     
  0.190103249238343       0.174069643063160       0.158036036887976     
  0.142002430712793       0.125968824537609       0.109935218362426     
  0.280157939082886       0.264124332907703       0.248090726732519     
  0.232057120557336       0.216023514382152       0.199989908206969     
  0.183956302031785       0.167922695856602       0.151889089681418     
  0.135855483506235       0.119821877331051       0.293780279369127     
  0.277746673193943       0.261713067018759       0.245679460843576     
  0.229645854668393       0.213612248493209       0.197578642318026     
  0.181545036142842       0.165511429967658       0.149477823792475     
  0.133444217617292       0.310923468529076       0.294889862353892     
  0.278856256178709       0.262822650003526       0.246789043828342     
  0.230755437653159       0.214721831477975       0.198688225302792     
  0.182654619127608       0.166621012952425       0.150587406777241     
  0.331317148228838       0.315283542053655       0.299249935878471     
  0.283216329703288       0.267182723528104       0.251149117352921     
  0.235115511177737       0.219081905002554       0.203048298827370     
  0.187014692652187       0.170981086477003       0.354639697956953     
  0.338606091781770       0.322572485606587       0.306538879431403     
  0.290505273256219       0.274471667081036       0.258438060905853     
  0.242404454730669       0.226370848555485       0.210337242380302     
  0.194303636205119       0.380523307171993       0.364489700996810     
  0.348456094821626       0.332422488646443       0.316388882471260     
  0.300355276296076       0.284321670120893       0.268288063945709     
  0.252254457770526       0.236220851595342       0.220187245420159     
  0.408559775894519       0.392526169719335       0.376492563544152     
  0.360458957368968       0.344425351193785       0.328391745018601     
  0.312358138843418       0.296324532668234       0.280290926493051     
  0.264257320317867       0.248223714142684       0.438306952264600     
  0.422273346089417       0.406239739914233       0.390206133739049     
  0.374172527563866       0.358138921388683       0.342105315213499     
  0.326071709038315       0.310038102863132       0.294004496687949     
  0.277970890512765       0.469295705540780       0.453262099365597     
  0.437228493190413       0.421194887015229       0.405161280840046     
  0.389127674664862       0.373094068489679       0.357060462314496     
  0.341026856139312       0.324993249964129       0.308959643788945     
  0.501037324572108       0.485003718396925       0.468970112221741     
  0.452936506046558       0.436902899871375       0.420869293696191     
  0.404835687521008       0.388802081345824       0.372768475170641     
  0.356734868995457       0.340701262820274       0.533031225064938     
  0.516997618889755       0.500964012714571       0.484930406539388     
  0.468896800364204       0.452863194189021       0.436829588013837     
  0.420795981838654       0.404762375663470       0.388728769488286     
  0.372695163313103       0.564772844096267       0.548739237921083     
  0.532705631745900       0.516672025570716       0.500638419395533     
  0.484604813220349       0.468571207045166       0.452537600869983     
  0.436503994694799       0.420470388519616       0.404436782344432     
  0.595761597372446       0.579727991197263       0.563694385022080     
  0.547660778846896       0.531627172671713       0.515593566496529     
  0.499559960321346       0.483526354146162       0.467492747970979     
  0.451459141795795       0.435425535620612       0.625508773742528     
  0.609475167567345       0.593441561392161       0.577407955216977     
  0.561374349041794       0.545340742866611       0.529307136691427     
  0.513273530516244       0.497239924341060       0.481206318165876     
  0.465172711990693       0.653545242465053       0.637511636289870     
  0.621478030114687       0.605444423939503       0.589410817764319     
  0.573377211589135       0.557343605413952       0.541309999238769     
  0.525276393063585       0.509242786888402       0.493209180713218     
  0.679428851680093       0.663395245504910       0.647361639329726     
  0.631328033154543       0.615294426979359       0.599260820804176     
  0.583227214628992       0.567193608453809       0.551160002278625     
  0.535126396103442       0.519092789928258       0.702751401408208     
  0.686717795233025       0.670684189057841       0.654650582882658     
  0.638616976707475       0.622583370532291       0.606549764357108     
  0.590516158181924       0.574482552006740       0.558448945831557     
  0.542415339656374       0.723145081107970       0.707111474932786     
  0.691077868757603       0.675044262582420       0.659010656407236     
  0.642977050232053       0.626943444056869       0.610909837881686     
  0.594876231706502       0.578842625531318       0.562809019356135     
  0.740288270267920       0.724254664092737       0.708221057917553     
  0.692187451742370       0.676153845567186       0.660120239392003     
  0.644086633216819       0.628053027041635       0.612019420866453     
  0.595985814691269       0.579952208516086       0.753910610554161     
  0.737877004378977       0.721843398203793       0.705809792028610     
  0.689776185853427       0.673742579678243       0.657708973503060     
  0.641675367327876       0.625641761152692       0.609608154977509     
  0.593574548802325       0.763797269522786       0.747763663347602     
  0.731730057172419       0.715696450997236       0.699662844822052     
  0.683629238646868       0.667595632471685       0.651562026296501     
  0.635528420121318       0.619494813946135       0.603461207770951     
  0.769792328655857       0.753758722480674       0.737725116305490     
  0.721691510130306       0.705657903955123       0.689624297779939     
  0.673590691604756       0.657557085429572       0.641523479254389     
  0.625489873079207       0.609456266904022       0.771801242289570     
  0.755767636114387       0.739734029939204       0.723700423764020     
  0.707666817588838       0.691633211413655       0.675599605238470     
  0.659565999063287       0.643532392888103       0.627498786712919     
  0.611465180537736     
  1.660316899342888E-002  1.494285209408599E-002  1.328253519474311E-002
  1.162221829540022E-002  9.961901396057328E-003  8.301584496714441E-003
  6.641267597371552E-003  4.980950698028665E-003  3.320633798685776E-003
  1.660316899342887E-003  0.000000000000000E+000  1.660316899342888E-002
  1.494285209408599E-002  1.328253519474311E-002  1.162221829540022E-002
  9.961901396057328E-003  8.301584496714441E-003  6.641267597371552E-003
  4.980950698028665E-003  3.320633798685776E-003  1.660316899342887E-003
  0.000000000000000E+000  1.660316899342888E-002  1.494285209408599E-002
  1.328253519474311E-002  1.162221829540022E-002  9.961901396057328E-003
  8.301584496714441E-003  6.641267597371552E-003  4.980950698028665E-003
  3.320633798685776E-003  1.660316899342887E-003  0.000000000000000E+000
  1.660316899342888E-002  1.494285209408599E-002  1.328253519474311E-002
  1.162221829540022E-002  9.961901396057328E-003  8.301584496714441E-003
  6.641267597371552E-003  4.980950698028665E-003  3.320633798685776E-003
  1.660316899342887E-003  0.000000000000000E+000  1.660316899342888E-002
  1.494285209408599E-002  1.328253519474311E-002  1.162221829540022E-002
  9.961901396057328E-003  8.301584496714441E-003  6.641267597371552E-003
  4.980950698028665E-003  3.320633798685776E-003  1.660316899342887E-003
  0.000000000000000E+000  1.660316899342888E-002  1.494285209408599E-002
  1.328253519474311E-002  1.162221829540022E-002  9.961901396057328E-003
  8.301584496714441E-003  6.641267597371552E-003  4.980950698028665E-003
  3.320633798685776E-003  1.660316899342887E-003  0.000000000000000E+000
  1.660316899342888E-002  1.494285209408599E-002  1.328253519474311E-002
  1.162221829540022E-002  9.961901396057328E-003  8.301584496714441E-003
  6.641267597371552E-003  4.980950698028665E-003  3.320633798685776E-003
  1.660316899342887E-003  0.000000000000000E+000  1.660316899342888E-002
  1.494285209408599E-002  1.328253519474311E-002  1.162221829540022E-002
  9.961901396057328E-003  8.301584496714441E-003  6.641267597371552E-003
  4.980950698028665E-003  3.320633798685776E-003  1.660316899342887E-003
  0.000000000000000E+000  1.660316899342888E-002  1.494285209408599E-002
  1.328253519474311E-002  1.162221829540022E-002  9.961901396057328E-003
  8.301584496714441E-003  6.641267597371552E-003  4.980950698028665E-003
  3.320633798685776E-003  1.660316899342887E-003  0.000000000000000E+000
  1.660316899342888E-002  1.494285209408599E-002  1.328253519474311E-002
  1.162221829540022E-002  9.961901396057328E-003  8.301584496714441E-003
  6.641267597371552E-003  4.980950698028665E-003  3.320633798685776E-003
  1.660316899342887E-003  0.000000000000000E+000  1.660316899342888E-002
  1.494285209408599E-002  1.328253519474311E-002  1.162221829540022E-002
  9.961901396057328E-003  8.301584496714441E-003  6.641267597371552E-003
  4.980950698028665E-003  3.320633798685776E-003  1.660316899342887E-003
  0.000000000000000E+000  1.660316899342888E-002  1.494285209408599E-002
  1.328253519474311E-002  1.162221829540022E-002  9.961901396057328E-003
  8.301584496714441E-003  6.641267597371552E-003  4.980950698028665E-003
  3.320633798685776E-003  1.660316899342887E-003  0.000000000000000E+000
  1.660316899342888E-002  1.494285209408599E-002  1.328253519474311E-002
  1.162221829540022E-002  9.961901396057328E-003  8.301584496714441E-003
  6.641267597371552E-003  4.980950698028665E-003  3.320633798685776E-003
  1.660316899342887E-003  0.000000000000000E+000  1.660316899342888E-002
  1.494285209408599E-002  1.328253519474311E-002  1.162221829540022E-002
  9.961901396057328E-003  8.301584496714441E-003  6.641267597371552E-003
  4.980950698028665E-003  3.320633798685776E-003  1.660316899342887E-003
  0.000000000000000E+000  1.660316899342888E-002  1.494285209408599E-002
  1.328253519474311E-002  1.162221829540022E-002  9.961901396057328E-003
  8.301584496714441E-003  6.641267597371552E-003  4.980950698028665E-003
  3.320633798685776E-003  1.660316899342887E-003  0.000000000000000E+000
  1.660316899342888E-002  1.494285209408599E-002  1.328253519474311E-002
  1.162221829540022E-002  9.961901396057328E-003  8.301584496714441E-003
  6.641267597371552E-003  4.980950698028665E-003  3.320633798685776E-003
  1.660316899342887E-003  0.000000000000000E+000  1.660316899342888E-002
  1.494285209408599E-002  1.328253519474311E-002  1.162221829540022E-002
  9.961901396057328E-003  8.301584496714441E-003  6.641267597371552E-003
  4.980950698028665E-003  3.320633798685776E-003  1.660316899342887E-003
  0.000000000000000E+000  1.660316899342888E-002  1.494285209408599E-002
  1.328253519474311E-002  1.162221829540022E-002  9.961901396057328E-003
  8.301584496714441E-003  6.641267597371552E-003  4.980950698028665E-003
  3.320633798685776E-003  1.660316899342887E-003  0.000000000000000E+000
  1.660316899342888E-002  1.494285209408599E-002  1.328253519474311E-002
  1.162221829540022E-002  9.961901396057328E-003  8.301584496714441E-003
  6.641267597371552E-003  4.980950698028665E-003  3.320633798685776E-003
  1.660316899342887E-003  0.000000000000000E+000  1.660316899342888E-002
  1.494285209408599E-002  1.328253519474311E-002  1.162221829540022E-002
  9.961901396057328E-003  8.301584496714441E-003  6.641267597371552E-003
  4.980950698028665E-003  3.320633798685776E-003  1.660316899342887E-003
  0.000000000000000E+000  1.660316899342888E-002  1.494285209408599E-002
  1.328253519474311E-002  1.162221829540022E-002  9.961901396057328E-003
  8.301584496714441E-003  6.641267597371552E-003  4.980950698028665E-003
  3.320633798685776E-003  1.660316899342887E-003  0.000000000000000E+000
  1.660316899342888E-002  1.494285209408599E-002  1.328253519474311E-002
  1.162221829540022E-002  9.961901396057328E-003  8.301584496714441E-003
  6.641267597371552E-003  4.980950698028665E-003  3.320633798685776E-003
  1.660316899342887E-003  0.000000000000000E+000  1.660316899342888E-002
  1.494285209408599E-002  1.328253519474311E-002  1.162221829540022E-002
  9.961901396057328E-003  8.301584496714441E-003  6.641267597371552E-003
  4.980950698028665E-003  3.320633798685776E-003  1.660316899342887E-003
  0.000000000000000E+000  1.660316899342888E-002  1.494285209408599E-002
  1.328253519474311E-002  1.162221829540022E-002  9.961901396057328E-003
  8.301584496714441E-003  6.641267597371552E-003  4.980950698028665E-003
  3.320633798685776E-003  1.660316899342887E-003  0.000000000000000E+000
  1.660316899342888E-002  1.494285209408599E-002  1.328253519474311E-002
  1.162221829540022E-002  9.961901396057328E-003  8.301584496714441E-003
  6.641267597371552E-003  4.980950698028665E-003  3.320633798685776E-003
  1.660316899342887E-003  0.000000000000000E+000  1.660316899342888E-002
  1.494285209408599E-002  1.328253519474311E-002  1.162221829540022E-002
  9.961901396057328E-003  8.301584496714441E-003  6.641267597371552E-003
  4.980950698028665E-003  3.320633798685776E-003  1.660316899342887E-003
  0.000000000000000E+000
  0.157647854663691       0.223970518726556       0.274404104316801     
  0.316409895508226       0.352052590001920       0.382270732231472     
  0.407582651592458       0.428283192782037       0.444785238942453     
  0.457457002432335       0.256224046057865       0.370896176131916     
  0.457324177960783       0.529111202542414       0.590200137618287     
  0.642164446595971       0.685931877631790       0.721991289130161     
  0.751120358394867       0.775025096410059       0.322591926784372     
  0.482333070346081       0.603620610601162       0.704457688226744     
  0.790779884642750       0.864734010397097       0.927626532277227     
  0.980036088167881        1.02208166222716        1.05374712312527     
  0.348441484745228       0.533896574527914       0.679150151052120     
  0.802423853336424       0.909200453678751        1.00103848841036     
   1.07900680016589        1.14416723420408        1.19548603792744     
   1.23145756857656       0.344209200313282       0.533204584869694     
  0.685232289598501       0.816968918552468       0.932758260957745     
   1.03377272458235        1.12062138888506        1.19310468215844     
   1.24919286166794        1.28663801009874       0.331666897775640     
  0.513232389270206       0.658533221626318       0.784276579363841     
  0.895473405956568       0.993674102041546        1.07862600132959     
   1.14952055745506        1.20496289612436        1.24228990633563     
  0.330796100714528       0.505539373552499       0.641814568981313     
  0.758047875307412       0.860278648931570       0.950312962996911     
   1.02812031129433        1.09330375695902        1.14511834880726     
   1.18083241050705       0.348172775099126       0.525405846388106     
  0.659533619712746       0.771236485921216       0.867481207028734     
  0.950842610137068        1.02226043548653        1.08215304786328     
   1.13026184404728        1.16407366624544       0.376428400962197     
  0.563534317357584       0.702188823342915       0.815352829577820     
  0.910997903263156       0.992554243498108        1.06176466386909     
   1.11962288425361        1.16617019522428        1.19914165188101     
  0.409691133993082       0.610413843510611       0.756988131305896     
  0.874824908883107       0.973031072978919        1.05586757862726     
   1.12569312686870        1.18381432076855        1.23038119928152     
   1.26328338546814       0.444829126594349       0.660536433039569     
  0.816361950769937       0.940300086721432        1.04260774215137     
   1.12826073067435        1.20004698238208        1.25946089445248     
   1.30674520557710        1.33992757978833       0.479581009272382     
  0.710261313654342       0.875538294139659        1.00596779063303     
   1.11289564553142        1.20189951973226        1.27608751523770     
   1.33710901382462        1.38532132680605        1.41888198853604     
  0.511868219567918       0.756416572786289       0.930482344932651     
   1.06701571190296        1.17833654003126        1.27052143057114     
   1.34694470229313        1.40941434906811        1.45841739357112     
   1.49224013110357       0.539322703434679       0.795490756984147     
  0.976823879751248        1.11833851186865        1.23317888179636     
   1.32782855147829        1.40588090760311        1.46928672201246     
   1.51866191538752        1.55243982268637       0.559142707386139     
  0.823402335613857        1.00957588639458        1.15422374751451     
   1.27110992428993        1.36702666065114        1.44573295450546     
   1.50928747025206        1.55840792692001        1.59168109003206     
  0.568661059929298       0.836360375109141        1.02420429156902     
   1.16956084269165        1.28653633392931        1.38211419070939     
   1.46016988740620        1.52283776123592        1.57090932096841     
   1.60311958012183       0.567514937790934       0.833867256119619     
   1.02009425786585        1.16358984430269        1.27851018382860     
   1.37190715295893        1.44773946221484        1.50822793954180     
   1.55425309197057        1.58472434977363       0.562887108255693     
  0.825698300704854        1.00821731741759        1.14779085867071     
   1.25867720526726        1.34802063567546        1.41985476876165     
   1.47649394189580        1.51897065712407        1.54652631577574     
  0.578264301654692       0.842600705094414        1.02208149693961     
   1.15650591867123        1.26136361048781        1.34430471311678     
   1.40953439579470        1.45949011432354        1.49542849306687     
   1.51720607530634       0.641189675501212       0.918646912636786     
   1.09718019749513        1.22489304275921        1.32093098023066     
   1.39411626184738        1.44931868428516        1.48946008793536     
   1.51613846529421        1.52976461189610       0.716836224245978     
   1.00644573392419        1.18074247912862        1.29884815167646     
   1.38442709388586        1.44752575418929        1.49384804989597     
   1.52652895752454        1.54731503729739        1.55709856581080     
  0.758340574891330        1.03828979848338        1.19439853375371     
   1.29487347556154        1.36666661209871        1.42044406072423     
   1.46048696364478        1.48898830253103        1.50736037514668     
   1.51668277434021       0.728587528358562       0.965607479995594     
   1.08800956813330        1.16432775391486        1.21928916014336     
   1.26130538723656        1.29308899962759        1.31600624459157     
   1.33118328710889        1.33985151502336       0.595796185504337     
  0.759631297582405       0.841218980275897       0.891993926996253     
  0.929239408276155       0.958240799682290       0.980486744135431     
  0.996834567308557        1.00831578805985        1.01732781975371     
  0.371291363881789       0.462992829263666       0.508861992100493     
  0.537599898982888       0.558935854622320       0.575702029375398     
  0.588633406629489       0.598154858320491       0.604722053199753     
  0.608921314849186     
  0.000000000000000E+000  0.000000000000000E+000  0.000000000000000E+000
  0.000000000000000E+000  0.000000000000000E+000  0.000000000000000E+000
  0.000000000000000E+000  0.000000000000000E+000  0.000000000000000E+000
  0.000000000000000E+000  0.000000000000000E+000  0.000000000000000E+000
  0.000000000000000E+000  0.000000000000000E+000  0.000000000000000E+000
  0.000000000000000E+000  0.000000000000000E+000  0.000000000000000E+000
  0.000000000000000E+000  0.000000000000000E+000  0.000000000000000E+000
  0.000000000000000E+000  0.000000000000000E+000  0.000000000000000E+000
  0.000000000000000E+000  0.000000000000000E+000  0.000000000000000E+000
  0.000000000000000E+000  0.000000000000000E+000  0.000000000000000E+000
  0.000000000000000E+000  0.000000000000000E+000  0.000000000000000E+000
  0.000000000000000E+000  0.000000000000000E+000  0.000000000000000E+000
  0.000000000000000E+000  0.000000000000000E+000  0.000000000000000E+000
  0.000000000000000E+000  0.000000000000000E+000  0.000000000000000E+000
  0.000000000000000E+000  0.000000000000000E+000  0.000000000000000E+000
  0.000000000000000E+000  0.000000000000000E+000  0.000000000000000E+000
  0.000000000000000E+000  0.000000000000000E+000  0.000000000000000E+000
  0.000000000000000E+000  0.000000000000000E+000  0.000000000000000E+000
  0.000000000000000E+000  0.000000000000000E+000  0.000000000000000E+000
  0.000000000000000E+000  0.000000000000000E+000  0.000000000000000E+000
  0.000000000000000E+000  0.000000000000000E+000  0.000000000000000E+000
  0.000000000000000E+000  0.000000000000000E+000  0.000000000000000E+000
  0.000000000000000E+000  0.000000000000000E+000  0.000000000000000E+000
  0.000000000000000E+000  0.000000000000000E+000  0.000000000000000E+000
  0.000000000000000E+000  0.000000000000000E+000  0.000000000000000E+000
  0.000000000000000E+000  0.000000000000000E+000  0.000000000000000E+000
  0.000000000000000E+000  0.000000000000000E+000  0.000000000000000E+000
  0.000000000000000E+000  0.000000000000000E+000  0.000000000000000E+000
  0.000000000000000E+000  0.000000000000000E+000  0.000000000000000E+000
  0.000000000000000E+000  0.000000000000000E+000  0.000000000000000E+000
  0.000000000000000E+000  0.000000000000000E+000  0.000000000000000E+000
  0.000000000000000E+000  0.000000000000000E+000  0.000000000000000E+000
  0.000000000000000E+000  0.000000000000000E+000  0.000000000000000E+000
  0.000000000000000E+000  0.000000000000000E+000  0.000000000000000E+000
  0.000000000000000E+000  0.000000000000000E+000  0.000000000000000E+000
  0.000000000000000E+000  0.000000000000000E+000  0.000000000000000E+000
  0.000000000000000E+000  0.000000000000000E+000  0.000000000000000E+000
  0.000000000000000E+000  0.000000000000000E+000  0.000000000000000E+000
  0.000000000000000E+000  0.000000000000000E+000  0.000000000000000E+000