 Title = "Wing and Wake"
 VARIABLES = "X" "Y" "Z" "GAM" "skew"
 Zone I=   11 J=   26 K=1  T="Blade"
 DATAPACKING=BLOCK
 VARLOCATION=([4]=CELLCENTERED,[5]=CELLCENTERED)
 -0.125264397881631      -0.130924551921889      -0.136584705962147     
 -0.142244860002405      -0.147905014042663      -0.153565168082921     
 -0.159225322123179      -0.164885476163437      -0.170545630203695     
 -0.176205784243952      -0.181865938284211      -0.128848705723573     
 -0.134508859763831      -0.140169013804088      -0.145829167844347     
 -0.151489321884605      -0.157149475924862      -0.162809629965120     
 -0.168469784005378      -0.174129938045636      -0.179790092085894     
 -0.185450246126152      -0.139545102573568      -0.145205256613826     
 -0.150865410654084      -0.156525564694342      -0.162185718734600     
 -0.167845872774858      -0.173506026815116      -0.179166180855374     
 -0.184826334895632      -0.190486488935890      -0.196146642976147     
 -0.157184899863576      -0.162845053903833      -0.168505207944092     
 -0.174165361984350      -0.179825516024607      -0.185485670064865     
 -0.191145824105123      -0.196805978145381      -0.202466132185639     
 -0.208126286225897      -0.213786440266155      -0.181489907452828     
 -0.187150061493085      -0.192810215533343      -0.198470369573601     
 -0.204130523613859      -0.209790677654117      -0.215450831694375     
 -0.221110985734633      -0.226771139774890      -0.232431293815148     
 -0.238091447855406      -0.212076820852533      -0.217736974892790     
 -0.223397128933048      -0.229057282973306      -0.234717437013564     
 -0.240377591053822      -0.246037745094080      -0.251697899134338     
 -0.257358053174596      -0.263018207214854      -0.268678361255112     
 -0.248463266166642      -0.254123420206900      -0.259783574247158     
 -0.265443728287416      -0.271103882327674      -0.276764036367932     
 -0.282424190408190      -0.288084344448448      -0.293744498488705     
 -0.299404652528963      -0.305064806569221      -0.290075407416344     
 -0.295735561456602      -0.301395715496860      -0.307055869537118     
 -0.312716023577376      -0.318376177617634      -0.324036331657892     
 -0.329696485698150      -0.335356639738407      -0.341016793778665     
 -0.346676947818924      -0.336256996276241      -0.341917150316499     
 -0.347577304356757      -0.353237458397016      -0.358897612437273     
 -0.364557766477531      -0.370217920517789      -0.375878074558046     
 -0.381538228598305      -0.387198382638563      -0.392858536678821     
 -0.386279721502470      -0.391939875542728      -0.397600029582985     
 -0.403260183623243      -0.408920337663501      -0.414580491703759     
 -0.420240645744018      -0.425900799784275      -0.431560953824534     
 -0.437221107864792      -0.442881261905049      -0.439354694836084     
 -0.445014848876342      -0.450675002916601      -0.456335156956860     
 -0.461995310997116      -0.467655465037374      -0.473315619077632     
 -0.478975773117889      -0.484635927158149      -0.490296081198407     
 -0.495956235238664      -0.494644892242161      -0.500305046282421     
 -0.505965200322677      -0.511625354362936      -0.517285508403194     
 -0.522945662443452      -0.528605816483709      -0.534265970523968     
 -0.539926124564224      -0.545586278604483      -0.551246432644741     
 -0.551278354278844      -0.556938508319105      -0.562598662359361     
 -0.568258816399619      -0.573918970439876      -0.579579124480135     
 -0.585239278520394      -0.590899432560651      -0.596559586600909     
 -0.602219740641166      -0.607879894681424      -0.608361937418625     
 -0.614022091458884      -0.619682245499143      -0.625342399539400     
 -0.631002553579656      -0.636662707619915      -0.642322861660173     
 -0.647983015700432      -0.653643169740689      -0.659303323780947     
 -0.664963477821205      -0.664995399455309      -0.670655553495567     
 -0.676315707535824      -0.681975861576083      -0.687636015616340     
 -0.693296169656598      -0.698956323696855      -0.704616477737115     
 -0.710276631777373      -0.715936785817629      -0.721596939857889     
 -0.720285596861387      -0.725945750901644      -0.731605904941903     
 -0.737266058982162      -0.742926213022418      -0.748586367062675     
 -0.754246521102933      -0.759906675143194      -0.765566829183451     
 -0.771226983223707      -0.776887137263966      -0.773360570195001     
 -0.779020724235259      -0.784680878275516      -0.790341032315775     
 -0.796001186356033      -0.801661340396290      -0.807321494436549     
 -0.812981648476806      -0.818641802517064      -0.824301956557322     
 -0.829962110597581      -0.823383295421229      -0.829043449461487     
 -0.834703603501746      -0.840363757542004      -0.846023911582261     
 -0.851684065622519      -0.857344219662777      -0.863004373703035     
 -0.868664527743292      -0.874324681783552      -0.879984835823808     
 -0.869564884281126      -0.875225038321384      -0.880885192361643     
 -0.886545346401902      -0.892205500442158      -0.897865654482416     
 -0.903525808522675      -0.909185962562932      -0.914846116603190     
 -0.920506270643447      -0.926166424683705      -0.911177025530827     
 -0.916837179571087      -0.922497333611343      -0.928157487651603     
 -0.933817641691861      -0.939477795732119      -0.945137949772376     
 -0.950798103812634      -0.956458257852891      -0.962118411893150     
 -0.967778565933406      -0.947563470844935      -0.953223624885196     
 -0.958883778925455      -0.964543932965710      -0.970204087005968     
 -0.975864241046227      -0.981524395086486      -0.987184549126745     
 -0.992844703167000      -0.998504857207258       -1.00416501124752     
 -0.978150384244643      -0.983810538284901      -0.989470692325158     
 -0.995130846365417       -1.00079100040567       -1.00645115444593     
  -1.01211130848619       -1.01777146252645       -1.02343161656671     
  -1.02909177060697       -1.03475192464722       -1.00245539183390     
  -1.00811554587415       -1.01377569991441       -1.01943585395467     
  -1.02509600799493       -1.03075616203518       -1.03641631607544     
  -1.04207647011570       -1.04773662415596       -1.05339677819622     
  -1.05905693223647       -1.02009518912390       -1.02575534316416     
  -1.03141549720442       -1.03707565124468       -1.04273580528493     
  -1.04839595932520       -1.05405611336545       -1.05971626740571     
  -1.06537642144597       -1.07103657548622       -1.07669672952648     
  -1.03079158597390       -1.03645174001416       -1.04211189405441     
  -1.04777204809467       -1.05343220213493       -1.05909235617518     
  -1.06475251021544       -1.07041266425570       -1.07607281829596     
  -1.08173297233622       -1.08739312637648       -1.03437589381584     
  -1.04003604785610       -1.04569620189636       -1.05135635593661     
  -1.05701650997687       -1.06267666401713       -1.06833681805739     
  -1.07399697209765       -1.07965712613790       -1.08531728017816     
  -1.09097743421842     
 -0.237966768592459      -0.219853002997358      -0.201739237402255     
 -0.183625471807153      -0.165511706212051      -0.147397940616949     
 -0.129284175021847      -0.111170409426745      -9.305664383164290E-002
 -7.494287823654044E-002 -5.682911264143862E-002 -0.239086786095533     
 -0.220973020500431      -0.202859254905329      -0.184745489310227     
 -0.166631723715125      -0.148517958120023      -0.130404192524921     
 -0.112290426929819      -9.417666133471668E-002 -7.606289573961456E-002
 -5.794913014451254E-002 -0.242429175259666      -0.224315409664564     
 -0.206201644069462      -0.188087878474360      -0.169974112879257     
 -0.151860347284155      -0.133746581689053      -0.115632816093951     
 -9.751905049884904E-002 -7.940528490374721E-002 -6.129151930864511E-002
 -0.247941224611092      -0.229827459015990      -0.211713693420888     
 -0.193599927825786      -0.175486162230684      -0.157372396635582     
 -0.139258631040479      -0.121144865445377      -0.103031099850276     
 -8.491733425517320E-002 -6.680356866007124E-002 -0.255536005838801     
 -0.237422240243699      -0.219308474648596      -0.201194709053494     
 -0.183080943458393      -0.164967177863290      -0.146853412268189     
 -0.128739646673086      -0.110625881077984      -9.251211548288189E-002
 -7.439834988778010E-002 -0.265093744705930      -0.246979979110827     
 -0.228866213515725      -0.210752447920623      -0.192638682325521     
 -0.174524916730419      -0.156411151135316      -0.138297385540215     
 -0.120183619945113      -0.102069854350010      -8.395608875490819E-002
 -0.276463709961026      -0.258349944365924      -0.240236178770822     
 -0.222122413175720      -0.204008647580618      -0.185894881985516     
 -0.167781116390414      -0.149667350795311      -0.131553585200209     
 -0.113439819605108      -9.532605401000539E-002 -0.289466590459931     
 -0.271352824864829      -0.253239059269727      -0.235125293674625     
 -0.217011528079523      -0.198897762484420      -0.180783996889319     
 -0.162670231294217      -0.144556465699114      -0.126442700104012     
 -0.108328934508910      -0.303897323009630      -0.285783557414529     
 -0.267669791819427      -0.249556026224325      -0.231442260629223     
 -0.213328495034121      -0.195214729439019      -0.177100963843917     
 -0.158987198248815      -0.140873432653712      -0.122759667058611     
 -0.319528326337317      -0.301414560742213      -0.283300795147111     
 -0.265187029552010      -0.247073263956908      -0.228959498361806     
 -0.210845732766704      -0.192731967171602      -0.174618201576499     
 -0.156504435981398      -0.138390670386296      -0.336113090183001     
 -0.317999324587899      -0.299885558992796      -0.281771793397694     
 -0.263658027802592      -0.245544262207490      -0.227430496612388     
 -0.209316731017284      -0.191202965422184      -0.173089199827082     
 -0.154975434231979      -0.353390062913579      -0.335276297318477     
 -0.317162531723373      -0.299048766128272      -0.280935000533170     
 -0.262821234938068      -0.244707469342966      -0.226593703747864     
 -0.208479938152762      -0.190366172557660      -0.172252406962558     
 -0.371086776348326      -0.352973010753225      -0.334859245158123     
 -0.316745479563021      -0.298631713967917      -0.280517948372817     
 -0.262404182777715      -0.244290417182612      -0.226176651587510     
 -0.208062885992408      -0.189949120397306      -0.388924142744875     
 -0.370810377149773      -0.352696611554671      -0.334582845959568     
 -0.316469080364467      -0.298355314769364      -0.280241549174262     
 -0.262127783579160      -0.244014017984059      -0.225900252388956     
 -0.207786486793855      -0.406620856179624      -0.388507090584521     
 -0.370393324989419      -0.352279559394318      -0.334165793799216     
 -0.316052028204113      -0.297938262609011      -0.279824497013909     
 -0.261710731418807      -0.243596965823705      -0.225483200228603     
 -0.423897828910201      -0.405784063315099      -0.387670297719997     
 -0.369556532124895      -0.351442766529793      -0.333329000934691     
 -0.315215235339590      -0.297101469744488      -0.278987704149385     
 -0.260873938554282      -0.242760172959182      -0.440482592755885     
 -0.422368827160784      -0.404255061565681      -0.386141295970579     
 -0.368027530375477      -0.349913764780376      -0.331799999185272     
 -0.313686233590171      -0.295572467995070      -0.277458702399967     
 -0.259344936804866      -0.456113596083570      -0.437999830488469     
 -0.419886064893366      -0.401772299298264      -0.383658533703162     
 -0.365544768108061      -0.347431002512958      -0.329317236917856     
 -0.311203471322753      -0.293089705727653      -0.274975940132551     
 -0.470544328633271      -0.452430563038169      -0.434316797443067     
 -0.416203031847965      -0.398089266252864      -0.379975500657761     
 -0.361861735062658      -0.343747969467557      -0.325634203872453     
 -0.307520438277352      -0.289406672682250      -0.483547209132176     
 -0.465433443537075      -0.447319677941970      -0.429205912346870     
 -0.411092146751768      -0.392978381156665      -0.374864615561563     
 -0.356750849966461      -0.338637084371359      -0.320523318776257     
 -0.302409553181155      -0.494917174387272      -0.476803408792169     
 -0.458689643197070      -0.440575877601967      -0.422462112006864     
 -0.404348346411762      -0.386234580816661      -0.368120815221559     
 -0.350007049626456      -0.331893284031354      -0.313779518436252     
 -0.504474913254402      -0.486361147659299      -0.468247382064196     
 -0.450133616469095      -0.432019850873993      -0.413906085278891     
 -0.395792319683788      -0.377678554088685      -0.359564788493586     
 -0.341451022898483      -0.323337257303380      -0.512069694482111     
 -0.493955928887008      -0.475842163291906      -0.457728397696803     
 -0.439614632101701      -0.421500866506601      -0.403387100911498     
 -0.385273335316396      -0.367159569721294      -0.349045804126192     
 -0.330932038531088      -0.517581743833537      -0.499467978238434     
 -0.481354212643333      -0.463240447048229      -0.445126681453128     
 -0.427012915858025      -0.408899150262925      -0.390785384667822     
 -0.372671619072720      -0.354557853477617      -0.336444087882514     
 -0.520924132997668      -0.502810367402567      -0.484696601807464     
 -0.466582836212362      -0.448469070617260      -0.430355305022158     
 -0.412241539427056      -0.394127773831954      -0.376014008236852     
 -0.357900242641750      -0.339786477046648      -0.522044150500742     
 -0.503930384905639      -0.485816619310538      -0.467702853715436     
 -0.449589088120334      -0.431475322525233      -0.413361556930130     
 -0.395247791335027      -0.377134025739926      -0.359020260144823     
 -0.340906494549721     
  1.660316899342888E-002  1.494285209408599E-002  1.328253519474311E-002
  1.162221829540022E-002  9.961901396057328E-003  8.301584496714441E-003
  6.641267597371552E-003  4.980950698028665E-003  3.320633798685776E-003
  1.660316899342887E-003  0.000000000000000E+000  1.660316899342888E-002
  1.494285209408599E-002  1.328253519474311E-002  1.162221829540022E-002
  9.961901396057328E-003  8.301584496714441E-003  6.641267597371552E-003
  4.980950698028665E-003  3.320633798685776E-003  1.660316899342887E-003
  0.000000000000000E+000  1.660316899342888E-002  1.494285209408599E-002
  1.328253519474311E-002  1.162221829540022E-002  9.961901396057328E-003
  8.301584496714441E-003  6.641267597371552E-003  4.980950698028665E-003
  3.320633798685776E-003  1.660316899342887E-003  0.000000000000000E+000
  1.660316899342888E-002  1.494285209408599E-002  1.328253519474311E-002
  1.162221829540022E-002  9.961901396057328E-003  8.301584496714441E-003
  6.641267597371552E-003  4.980950698028665E-003  3.320633798685776E-003
  1.660316899342887E-003  0.000000000000000E+000  1.660316899342888E-002
  1.494285209408599E-002  1.328253519474311E-002  1.162221829540022E-002
  9.961901396057328E-003  8.301584496714441E-003  6.641267597371552E-003
  4.980950698028665E-003  3.320633798685776E-003  1.660316899342887E-003
  0.000000000000000E+000  1.660316899342888E-002  1.494285209408599E-002
  1.328253519474311E-002  1.162221829540022E-002  9.961901396057328E-003
  8.301584496714441E-003  6.641267597371552E-003  4.980950698028665E-003
  3.320633798685776E-003  1.660316899342887E-003  0.000000000000000E+000
  1.660316899342888E-002  1.494285209408599E-002  1.328253519474311E-002
  1.162221829540022E-002  9.961901396057328E-003  8.301584496714441E-003
  6.641267597371552E-003  4.980950698028665E-003  3.320633798685776E-003
  1.660316899342887E-003  0.000000000000000E+000  1.660316899342888E-002
  1.494285209408599E-002  1.328253519474311E-002  1.162221829540022E-002
  9.961901396057328E-003  8.301584496714441E-003  6.641267597371552E-003
  4.980950698028665E-003  3.320633798685776E-003  1.660316899342887E-003
  0.000000000000000E+000  1.660316899342888E-002  1.494285209408599E-002
  1.328253519474311E-002  1.162221829540022E-002  9.961901396057328E-003
  8.301584496714441E-003  6.641267597371552E-003  4.980950698028665E-003
  3.320633798685776E-003  1.660316899342887E-003  0.000000000000000E+000
  1.660316899342888E-002  1.494285209408599E-002  1.328253519474311E-002
  1.162221829540022E-002  9.961901396057328E-003  8.301584496714441E-003
  6.641267597371552E-003  4.980950698028665E-003  3.320633798685776E-003
  1.660316899342887E-003  0.000000000000000E+000  1.660316899342888E-002
  1.494285209408599E-002  1.328253519474311E-002  1.162221829540022E-002
  9.961901396057328E-003  8.301584496714441E-003  6.641267597371552E-003
  4.980950698028665E-003  3.320633798685776E-003  1.660316899342887E-003
  0.000000000000000E+000  1.660316899342888E-002  1.494285209408599E-002
  1.328253519474311E-002  1.162221829540022E-002  9.961901396057328E-003
  8.301584496714441E-003  6.641267597371552E-003  4.980950698028665E-003
  3.320633798685776E-003  1.660316899342887E-003  0.000000000000000E+000
  1.660316899342888E-002  1.494285209408599E-002  1.328253519474311E-002
  1.162221829540022E-002  9.961901396057328E-003  8.301584496714441E-003
  6.641267597371552E-003  4.980950698028665E-003  3.320633798685776E-003
  1.660316899342887E-003  0.000000000000000E+000  1.660316899342888E-002
  1.494285209408599E-002  1.328253519474311E-002  1.162221829540022E-002
  9.961901396057328E-003  8.301584496714441E-003  6.641267597371552E-003
  4.980950698028665E-003  3.320633798685776E-003  1.660316899342887E-003
  0.000000000000000E+000  1.660316899342888E-002  1.494285209408599E-002
  1.328253519474311E-002  1.162221829540022E-002  9.961901396057328E-003
  8.301584496714441E-003  6.641267597371552E-003  4.980950698028665E-003
  3.320633798685776E-003  1.660316899342887E-003  0.000000000000000E+000
  1.660316899342888E-002  1.494285209408599E-002  1.328253519474311E-002
  1.162221829540022E-002  9.961901396057328E-003  8.301584496714441E-003
  6.641267597371552E-003  4.980950698028665E-003  3.320633798685776E-003
  1.660316899342887E-003  0.000000000000000E+000  1.660316899342888E-002
  1.494285209408599E-002  1.328253519474311E-002  1.162221829540022E-002
  9.961901396057328E-003  8.301584496714441E-003  6.641267597371552E-003
  4.980950698028665E-003  3.320633798685776E-003  1.660316899342887E-003
  0.000000000000000E+000  1.660316899342888E-002  1.494285209408599E-002
  1.328253519474311E-002  1.162221829540022E-002  9.961901396057328E-003
  8.301584496714441E-003  6.641267597371552E-003  4.980950698028665E-003
  3.320633798685776E-003  1.660316899342887E-003  0.000000000000000E+000
  1.660316899342888E-002  1.494285209408599E-002  1.328253519474311E-002
  1.162221829540022E-002  9.961901396057328E-003  8.301584496714441E-003
  6.641267597371552E-003  4.980950698028665E-003  3.320633798685776E-003
  1.660316899342887E-003  0.000000000000000E+000  1.660316899342888E-002
  1.494285209408599E-002  1.328253519474311E-002  1.162221829540022E-002
  9.961901396057328E-003  8.301584496714441E-003  6.641267597371552E-003
  4.980950698028665E-003  3.320633798685776E-003  1.660316899342887E-003
  0.000000000000000E+000  1.660316899342888E-002  1.494285209408599E-002
  1.328253519474311E-002  1.162221829540022E-002  9.961901396057328E-003
  8.301584496714441E-003  6.641267597371552E-003  4.980950698028665E-003
  3.320633798685776E-003  1.660316899342887E-003  0.000000000000000E+000
  1.660316899342888E-002  1.494285209408599E-002  1.328253519474311E-002
  1.162221829540022E-002  9.961901396057328E-003  8.301584496714441E-003
  6.641267597371552E-003  4.980950698028665E-003  3.320633798685776E-003
  1.660316899342887E-003  0.000000000000000E+000  1.660316899342888E-002
  1.494285209408599E-002  1.328253519474311E-002  1.162221829540022E-002
  9.961901396057328E-003  8.301584496714441E-003  6.641267597371552E-003
  4.980950698028665E-003  3.320633798685776E-003  1.660316899342887E-003
  0.000000000000000E+000  1.660316899342888E-002  1.494285209408599E-002
  1.328253519474311E-002  1.162221829540022E-002  9.961901396057328E-003
  8.301584496714441E-003  6.641267597371552E-003  4.980950698028665E-003
  3.320633798685776E-003  1.660316899342887E-003  0.000000000000000E+000
  1.660316899342888E-002  1.494285209408599E-002  1.328253519474311E-002
  1.162221829540022E-002  9.961901396057328E-003  8.301584496714441E-003
  6.641267597371552E-003  4.980950698028665E-003  3.320633798685776E-003
  1.660316899342887E-003  0.000000000000000E+000  1.660316899342888E-002
  1.494285209408599E-002  1.328253519474311E-002  1.162221829540022E-002
  9.961901396057328E-003  8.301584496714441E-003  6.641267597371552E-003
  4.980950698028665E-003  3.320633798685776E-003  1.660316899342887E-003
  0.000000000000000E+000
  1.233920617939158E-002  2.226055759300095E-002  3.201786119456156E-002
  4.115874630322246E-002  4.929221417822689E-002  5.629508737724081E-002
  6.195287222426556E-002  6.617423142563418E-002  6.906169432933787E-002
  7.069399993932719E-002  1.973485856758408E-002  3.619855868725681E-002
  5.233829184745958E-002  6.749061740518876E-002  8.105542096147443E-002
  9.275167780380052E-002  0.102233810953179       0.109373508963647     
  0.114344674042389       0.117484139826293       2.425168511384550E-002
  4.571667075524372E-002  6.677585984552666E-002  8.668114323789966E-002
  0.104736409088710       0.120406020823991       0.133215356283442     
  0.142991924549618       0.149843647594339       0.153963567975693     
  2.684288084611906E-002  5.105817978248529E-002  7.489224596371317E-002
  9.760776074878982E-002  0.118464255701245       0.136715921537472     
  0.151773983495737       0.163385497506570       0.171534641481116     
  0.176168817187460       3.121816216970253E-002  5.743366297354629E-002
  8.280621757571686E-002  0.106945708285351       0.129187449036546     
  0.148778733303423       0.165098973597485       0.177804270615553     
  0.186777864780279       0.191766616343383       4.159514034837591E-002
  7.151967221046238E-002  9.896563730604130E-002  0.124436998777564     
  0.147600912395854       0.167943455314835       0.185012826323098     
  0.198527328266752       0.208257844216882       0.213752824232343     
  6.055923585751109E-002  9.773101887887327E-002  0.129291459574865     
  0.157329233499653       0.182194059123021       0.203824002076619     
  0.222042772666377       0.236650295717958       0.247385720568269     
  0.253673400355100       8.830314238858537E-002  0.136836556266199     
  0.175309260513599       0.208018645378475       0.236249595857974     
  0.260462761138908       0.280795129090651       0.297195253418170     
  0.309426307303575       0.316798977420955       0.123488582255889     
  0.187148037576758       0.235321775165476       0.274953596637256     
  0.308413456253329       0.336720771989409       0.360325447235453     
  0.379354417533098       0.393631218980124       0.402374681266723     
  0.164539338223636       0.246394814930937       0.306632600618514     
  0.355141450988558       0.395448488712226       0.429162326949914     
  0.457069400965734       0.479494912988826       0.496343066810785     
  0.506750446443580       0.210311074569038       0.312806763622908     
  0.386957249823999       0.445843230024560       0.494225101290445     
  0.534340035395898       0.567341433778556       0.593768003205165     
  0.613613184382308       0.625936001090375       0.259923541294294     
  0.384974986784434       0.474437097755637       0.544803935620193     
  0.602152188503074       0.649388899421138       0.688054441074173     
  0.718914958141404       0.742067236143964       0.756498545357758     
  0.312536691196566       0.461591105349882       0.567389349222278     
  0.650024050109572       0.716959786699792       0.771809863163874     
  0.816520811333205       0.852097122576032       0.878751988656997     
  0.895415504268973       0.367403985864417       0.541507363846209     
  0.664351440695967       0.759772670894671       0.836681112116831     
  0.899428512057617       0.950387241982388       0.990813470595374     
   1.02104884293386        1.03998698555381       0.424127690608934     
  0.624077999326277       0.764460186181586       0.872981912665261     
  0.960047770785199        1.03078099738930        1.08800818672578     
   1.13326164151688        1.16703070898685        1.18819576177893     
  0.482852345345527       0.709490526133584       0.867886775651167     
  0.989748517621013        1.08703048661814        1.16566762891607     
   1.22898728413815        1.27884638527290        1.31593005762907     
   1.33915850735617       0.545035168127344       0.799939191623854     
  0.977227808953772        1.11280782168584        1.22030535926994     
   1.30656965119070        1.37552158234733        1.42944403525230     
   1.46932388458884        1.49423329297633       0.620749267273021     
  0.908757786607465        1.10701151601991        1.25692530361601     
   1.37444523928347        1.46769092204668        1.54138958486416     
   1.59839840831054        1.64014859773270        1.66604371578867     
  0.753175772859540        1.08688533021183        1.30927376025099     
   1.47426662768925        1.60182356557820        1.70177485971556     
   1.77990250562819        1.83980399918309        1.88343154967238     
   1.91049120471747       0.946473063547937        1.34011661057575     
   1.58974293870321        1.76868859219185        1.90316412999950     
   2.00633621237897        2.08581790276571        2.14621876249057     
   2.19009703693793        2.21759250602631        1.04267567503628     
   1.46452709967276        1.72266452425563        1.90072339188929     
   2.03071569585524        2.12820074896221        2.20183774577650     
   2.25669499984006        2.29556417536348        2.31914934462291     
   1.01176633228280        1.40651331768460        1.64000828948423     
   1.79646757791123        1.90820294157332        1.99066814567458     
   2.05211618870783        2.09712490562353        2.12801827553838     
   2.14539947516214       0.887552699533030        1.20808553240105     
   1.39067386515053        1.51113948902563        1.59657586101970     
   1.65941144839521        1.70612302823437        1.74025892662922     
   1.76366490306975        1.77695162302653       0.682742701324372     
  0.900450261297270        1.02282964483768        1.10378446156783     
   1.16141641141288        1.20395976121629        1.23573585264739     
   1.25919187688653        1.27592161617014        1.28818729583900     
  0.415820562139265       0.537795280049363       0.607036480922526     
  0.653115771986847       0.686043812525214       0.710413872736038     
  0.728647966706056       0.742095272688911       0.751500002788489     
  0.757125573462543     
  0.000000000000000E+000  0.000000000000000E+000  0.000000000000000E+000
  0.000000000000000E+000  0.000000000000000E+000  0.000000000000000E+000
  0.000000000000000E+000  0.000000000000000E+000  0.000000000000000E+000
  0.000000000000000E+000  0.000000000000000E+000  0.000000000000000E+000
  0.000000000000000E+000  0.000000000000000E+000  0.000000000000000E+000
  0.000000000000000E+000  0.000000000000000E+000  0.000000000000000E+000
  0.000000000000000E+000  0.000000000000000E+000  0.000000000000000E+000
  0.000000000000000E+000  0.000000000000000E+000  0.000000000000000E+000
  0.000000000000000E+000  0.000000000000000E+000  0.000000000000000E+000
  0.000000000000000E+000  0.000000000000000E+000  0.000000000000000E+000
  0.000000000000000E+000  0.000000000000000E+000  0.000000000000000E+000
  0.000000000000000E+000  0.000000000000000E+000  0.000000000000000E+000
  0.000000000000000E+000  0.000000000000000E+000  0.000000000000000E+000
  0.000000000000000E+000  0.000000000000000E+000  0.000000000000000E+000
  0.000000000000000E+000  0.000000000000000E+000  0.000000000000000E+000
  0.000000000000000E+000  0.000000000000000E+000  0.000000000000000E+000
  0.000000000000000E+000  0.000000000000000E+000  0.000000000000000E+000
  0.000000000000000E+000  0.000000000000000E+000  0.000000000000000E+000
  0.000000000000000E+000  0.000000000000000E+000  0.000000000000000E+000
  0.000000000000000E+000  0.000000000000000E+000  0.000000000000000E+000
  0.000000000000000E+000  0.000000000000000E+000  0.000000000000000E+000
  0.000000000000000E+000  0.000000000000000E+000  0.000000000000000E+000
  0.000000000000000E+000  0.000000000000000E+000  0.000000000000000E+000
  0.000000000000000E+000  0.000000000000000E+000  0.000000000000000E+000
  0.000000000000000E+000  0.000000000000000E+000  0.000000000000000E+000
  0.000000000000000E+000  0.000000000000000E+000  0.000000000000000E+000
  0.000000000000000E+000  0.000000000000000E+000  0.000000000000000E+000
  0.000000000000000E+000  0.000000000000000E+000  0.000000000000000E+000
  0.000000000000000E+000  0.000000000000000E+000  0.000000000000000E+000
  0.000000000000000E+000  0.000000000000000E+000  0.000000000000000E+000
  0.000000000000000E+000  0.000000000000000E+000  0.000000000000000E+000
  0.000000000000000E+000  0.000000000000000E+000  0.000000000000000E+000
  0.000000000000000E+000  0.000000000000000E+000  0.000000000000000E+000
  0.000000000000000E+000  0.000000000000000E+000  0.000000000000000E+000
  0.000000000000000E+000  0.000000000000000E+000  0.000000000000000E+000
  0.000000000000000E+000  0.000000000000000E+000  0.000000000000000E+000
  0.000000000000000E+000  0.000000000000000E+000  0.000000000000000E+000
  0.000000000000000E+000  0.000000000000000E+000  0.000000000000000E+000
  0.000000000000000E+000  0.000000000000000E+000  0.000000000000000E+000