 Title = "Wing and Wake"
 VARIABLES = "X" "Y" "Z" "GAM" "skew"
 Zone I=   11 J=   26 K=1  T="Blade"
 DATAPACKING=BLOCK
 VARLOCATION=([4]=CELLCENTERED,[5]=CELLCENTERED)
 -0.182574965753080      -0.183355169989458      -0.184135374225837     
 -0.184915578462216      -0.185695782698595      -0.186475986934973     
 -0.187256191171352      -0.188036395407731      -0.188816599644110     
 -0.189596803880488      -0.190377008116868      -0.186327014155086     
 -0.187107218391465      -0.187887422627843      -0.188667626864223     
 -0.189447831100601      -0.190228035336980      -0.191008239573359     
 -0.191788443809737      -0.192568648046117      -0.193348852282495     
 -0.194129056518874      -0.197523987316440      -0.198304191552819     
 -0.199084395789198      -0.199864600025576      -0.200644804261955     
 -0.201425008498334      -0.202205212734713      -0.202985416971092     
 -0.203765621207471      -0.204545825443850      -0.205326029680228     
 -0.215989302281641      -0.216769506518019      -0.217549710754399     
 -0.218329914990777      -0.219110119227156      -0.219890323463535     
 -0.220670527699913      -0.221450731936292      -0.222230936172671     
 -0.223011140409050      -0.223791344645428      -0.241431750003042     
 -0.242211954239420      -0.242992158475798      -0.243772362712178     
 -0.244552566948556      -0.245332771184935      -0.246112975421314     
 -0.246893179657693      -0.247673383894071      -0.248453588130450     
 -0.249233792366829      -0.273450087881494      -0.274230292117872     
 -0.275010496354250      -0.275790700590630      -0.276570904827009     
 -0.277351109063388      -0.278131313299766      -0.278911517536145     
 -0.279691721772524      -0.280471926008903      -0.281252130245282     
 -0.311539367601827      -0.312319571838206      -0.313099776074585     
 -0.313879980310964      -0.314660184547343      -0.315440388783721     
 -0.316220593020100      -0.317000797256479      -0.317781001492857     
 -0.318561205729236      -0.319341409965614      -0.355098898469419     
 -0.355879102705799      -0.356659306942177      -0.357439511178556     
 -0.358219715414935      -0.358999919651314      -0.359780123887693     
 -0.360560328124072      -0.361340532360450      -0.362120736596828     
 -0.362900940833208      -0.403441720661285      -0.404221924897665     
 -0.405002129134043      -0.405782333370423      -0.406562537606801     
 -0.407342741843180      -0.408122946079559      -0.408903150315937     
 -0.409683354552316      -0.410463558788696      -0.411243763025074     
 -0.455805438992858      -0.456585643229237      -0.457365847465615     
 -0.458146051701995      -0.458926255938373      -0.459706460174752     
 -0.460486664411132      -0.461266868647510      -0.462047072883889     
 -0.462827277120268      -0.463607481356646      -0.511364246345480     
 -0.512144450581858      -0.512924654818237      -0.513704859054617     
 -0.514485063290994      -0.515265267527373      -0.516045471763752     
 -0.516825676000130      -0.517605880236511      -0.518386084472889     
 -0.519166288709267      -0.569241947137974      -0.570022151374355     
 -0.570802355610731      -0.571582559847111      -0.572362764083490     
 -0.573142968319870      -0.573923172556247      -0.574703376792627     
 -0.575483581029004      -0.576263785265384      -0.577043989501762     
 -0.628525775454383      -0.629305979690766      -0.630086183927142     
 -0.630866388163522      -0.631646592399899      -0.632426796636280     
 -0.633207000872659      -0.633987205109037      -0.634767409345415     
 -0.635547613581793      -0.636327817818173      -0.688280789907717     
 -0.689060994144096      -0.689841198380476      -0.690621402616854     
 -0.691401606853232      -0.692181811089611      -0.692962015325989     
 -0.693742219562370      -0.694522423798749      -0.695302628035127     
 -0.696082832271505      -0.747564618224127      -0.748344822460506     
 -0.749125026696884      -0.749905230933264      -0.750685435169642     
 -0.751465639406021      -0.752245843642400      -0.753026047878780     
 -0.753806252115159      -0.754586456351536      -0.755366660587916     
 -0.805442319016624      -0.806222523253001      -0.807002727489382     
 -0.807782931725761      -0.808563135962137      -0.809343340198517     
 -0.810123544434895      -0.810903748671277      -0.811683952907654     
 -0.812464157144031      -0.813244361380412      -0.861001126369244     
 -0.861781330605623      -0.862561534842001      -0.863341739078380     
 -0.864121943314759      -0.864902147551138      -0.865682351787517     
 -0.866462556023895      -0.867242760260274      -0.868022964496653     
 -0.868803168733033      -0.913364844700815      -0.914145048937195     
 -0.914925253173575      -0.915705457409953      -0.916485661646331     
 -0.917265865882711      -0.918046070119089      -0.918826274355468     
 -0.919606478591846      -0.920386682828227      -0.921166887064603     
 -0.961707666892681      -0.962487871129061      -0.963268075365440     
 -0.964048279601821      -0.964828483838197      -0.965608688074576     
 -0.966388892310955      -0.967169096547335      -0.967949300783713     
 -0.968729505020091      -0.969509709256469       -1.00526719776027     
  -1.00604740199666       -1.00682760623303       -1.00760781046941     
  -1.00838801470579       -1.00916821894217       -1.00994842317855     
  -1.01072862741493       -1.01150883165130       -1.01228903588768     
  -1.01306924012406       -1.04335647748061       -1.04413668171699     
  -1.04491688595337       -1.04569709018974       -1.04647729442612     
  -1.04725749866250       -1.04803770289888       -1.04881790713526     
  -1.04959811137164       -1.05037831560802       -1.05115851984439     
  -1.07537481535906       -1.07615501959544       -1.07693522383182     
  -1.07771542806820       -1.07849563230457       -1.07927583654096     
  -1.08005604077733       -1.08083624501371       -1.08161644925009     
  -1.08239665348647       -1.08317685772285       -1.10081726308046     
  -1.10159746731684       -1.10237767155322       -1.10315787578960     
  -1.10393808002598       -1.10471828426235       -1.10549848849873     
  -1.10627869273511       -1.10705889697149       -1.10783910120787     
  -1.10861930544425       -1.11928257804566       -1.12006278228204     
  -1.12084298651842       -1.12162319075480       -1.12240339499118     
  -1.12318359922756       -1.12396380346393       -1.12474400770031     
  -1.12552421193669       -1.12630441617307       -1.12708462040945     
  -1.13047955120702       -1.13125975544340       -1.13203995967978     
  -1.13282016391615       -1.13360036815253       -1.13438057238891     
  -1.13516077662529       -1.13594098086167       -1.13672118509804     
  -1.13750138933442       -1.13828159357080       -1.13423159960902     
  -1.13501180384540       -1.13579200808178       -1.13657221231816     
  -1.13735241655454       -1.13813262079092       -1.13891282502729     
  -1.13969302926367       -1.14047323350005       -1.14125343773643     
  -1.14203364197281     
 -0.197448054463057      -0.178486590143462      -0.159525125823866     
 -0.140563661504271      -0.121602197184676      -0.102640732865080     
 -8.367926854548471E-002 -6.471780422588951E-002 -4.575633990629425E-002
 -2.679487558669876E-002 -7.833411267103543E-003 -0.197602439378114     
 -0.178640975058519      -0.159679510738924      -0.140718046419329     
 -0.121756582099733      -0.102795117780138      -8.383365346054215E-002
 -6.487218914094695E-002 -4.591072482135146E-002 -2.694926050175625E-002
 -7.987796182160794E-003 -0.198063159380951      -0.179101695061356     
 -0.160140230741761      -0.141178766422165      -0.122217302102569     
 -0.103255837782974      -8.429437346337847E-002 -6.533290914378348E-002
 -4.637144482418792E-002 -2.740998050459282E-002 -8.448516184997453E-003
 -0.198822948641901      -0.179861484322306      -0.160900020002710     
 -0.141938555683115      -0.122977091363520      -0.104015627043924     
 -8.505416272432847E-002 -6.609269840473357E-002 -4.713123408513857E-002
 -2.816976976554294E-002 -9.208305445947791E-003 -0.199869824830444     
 -0.180908360510848      -0.161946896191253      -0.142985431871657     
 -0.124023967552062      -0.105062503232466      -8.610103891287138E-002
 -6.713957459327588E-002 -4.817811027368064E-002 -2.921664595408515E-002
 -1.025518163449012E-002 -0.201187278083712      -0.182225813764116     
 -0.163264349444521      -0.144302885124926      -0.125341420805330     
 -0.106379956485735      -8.741849216613905E-002 -6.845702784654450E-002
 -4.949556352694880E-002 -3.053409920735330E-002 -1.157263488775768E-002
 -0.202754531376892      -0.183793067057297      -0.164831602737702     
 -0.145870138418107      -0.126908674098511      -0.107947209778916     
 -8.898574545932081E-002 -7.002428113972479E-002 -5.106281682012916E-002
 -3.210135250053461E-002 -1.313988818093932E-002 -0.204546868189321     
 -0.185585403869727      -0.166623939550131      -0.147662475230536     
 -0.128701010910940      -0.109739546591345      -9.077808227174945E-002
 -7.181661795215444E-002 -5.285515363255869E-002 -3.389368931296346E-002
 -1.493222499336826E-002 -0.206536022298775      -0.187574557979181     
 -0.168613093659585      -0.149651629339990      -0.130690165020395     
 -0.111728700700799      -9.276723638120392E-002 -7.380577206160874E-002
 -5.484430774201331E-002 -3.588284342241791E-002 -1.692137910282299E-002
 -0.208690623556687      -0.189729159237091      -0.170767694917496     
 -0.151806230597901      -0.132844766278306      -0.113883301958711     
 -9.492183763911519E-002 -7.596037331951994E-002 -5.699890899992428E-002
 -3.803744468032939E-002 -1.907598036073399E-002 -0.210976692614122     
 -0.192015228294526      -0.173053763974930      -0.154092299655335     
 -0.135130835335740      -0.116169371016145      -9.720790669655002E-002
 -7.824644237695330E-002 -5.928497805735894E-002 -4.032351373776371E-002
 -2.136204941816810E-002 -0.213358176796412      -0.194396712476816     
 -0.175435248157219      -0.156473783837625      -0.137512319518030     
 -0.118550855198434      -9.958939087883915E-002 -8.062792655924407E-002
 -6.166646223964865E-002 -4.270499792005335E-002 -2.374353360045874E-002
 -0.215797518675372      -0.196836054355777      -0.177874590036182     
 -0.158913125716586      -0.139951661396990      -0.120990197077396     
 -0.102028732757801      -8.306726843820494E-002 -6.410580411860906E-002
 -4.514433979901479E-002 -2.618287547941925E-002 -0.218256248372382     
 -0.199294784052786      -0.180333319733191      -0.161371855413595     
 -0.142410391094000      -0.123448926774404      -0.104487462454809     
 -8.552599813521368E-002 -6.656453381561905E-002 -4.760306949602274E-002
 -2.864160517642811E-002 -0.220695590251343      -0.201734125931747     
 -0.182772661612152      -0.163811197292557      -0.144849732972962     
 -0.125888268653366      -0.106926804333771      -8.796534001417497E-002
 -6.900387569457975E-002 -5.004241137498472E-002 -3.108094705538929E-002
 -0.223077074433632      -0.204115610114036      -0.185154145794441     
 -0.166192681474846      -0.147231217155250      -0.128269752835655     
 -0.109308288516061      -9.034682419646485E-002 -7.138535987686907E-002
 -5.242389555727316E-002 -3.346243123767914E-002 -0.225363143491067     
 -0.206401679171472      -0.187440214851876      -0.168478750532279     
 -0.149517286212684      -0.130555821893091      -0.111594357573493     
 -9.263289325389876E-002 -7.367142893430485E-002 -5.470996461470849E-002
 -3.574850029511390E-002 -0.227517744748977      -0.208556280429383     
 -0.189594816109787      -0.170633351790191      -0.151671887470596     
 -0.132710423151001      -0.113748958831406      -9.478749451180972E-002
 -7.582603019221376E-002 -5.686456587262007E-002 -3.790310155302507E-002
 -0.229506898858433      -0.210545434538837      -0.191583970219242     
 -0.172622505899646      -0.153661041580052      -0.134699577260456     
 -0.115738112940860      -9.677664862126535E-002 -7.781518430166862E-002
 -5.885371998207409E-002 -3.989225566247919E-002 -0.231299235670862     
 -0.212337771351267      -0.193376307031670      -0.174414842712076     
 -0.155453378392481      -0.136491914072885      -0.117530449753290     
 -9.856898543369365E-002 -7.960752111409883E-002 -6.064605679450338E-002
 -4.168459247490909E-002 -0.232866488964043      -0.213905024644446     
 -0.194943560324852      -0.175982096005257      -0.157020631685661     
 -0.138059167366066      -0.119097703046471      -0.100136238726875     
 -8.117477440727969E-002 -6.221331008768456E-002 -4.325184576808896E-002
 -0.234183942217311      -0.215222477897715      -0.196261013578119     
 -0.177299549258525      -0.158338084938929      -0.139376620619333     
 -0.120415156299738      -0.101453691980141      -8.249222766054908E-002
 -6.353076334095219E-002 -4.456929902135572E-002 -0.235230818405854     
 -0.216269354086257      -0.197307889766662      -0.178346425447066     
 -0.159384961127471      -0.140423496807877      -0.121462032488282     
 -0.102500568168687      -8.353910384909083E-002 -6.457763952949513E-002
 -4.561617520989911E-002 -0.235990607666804      -0.217029143347208     
 -0.198067679027613      -0.179106214708017      -0.160144750388422     
 -0.141183286068824      -0.122221821749233      -0.103260357429636     
 -8.429889311004060E-002 -6.533742879044570E-002 -4.637596447084900E-002
 -0.236451327669639      -0.217489863350044      -0.198528399030447     
 -0.179566934710853      -0.160605470391258      -0.141644006071663     
 -0.122682541752068      -0.103721077432472      -8.475961311287665E-002
 -6.579814879328162E-002 -4.683668447368662E-002 -0.236605712584696     
 -0.217644248265101      -0.198682783945506      -0.179721319625911     
 -0.160759855306315      -0.141798390986721      -0.122836926667126     
 -0.103875462347528      -8.491399802793433E-002 -6.595253370833923E-002
 -4.699106938874298E-002
  1.660316899342888E-002  1.494285209408599E-002  1.328253519474311E-002
  1.162221829540022E-002  9.961901396057328E-003  8.301584496714441E-003
  6.641267597371552E-003  4.980950698028665E-003  3.320633798685776E-003
  1.660316899342887E-003  0.000000000000000E+000  1.660316899342888E-002
  1.494285209408599E-002  1.328253519474311E-002  1.162221829540022E-002
  9.961901396057328E-003  8.301584496714441E-003  6.641267597371552E-003
  4.980950698028665E-003  3.320633798685776E-003  1.660316899342887E-003
  0.000000000000000E+000  1.660316899342888E-002  1.494285209408599E-002
  1.328253519474311E-002  1.162221829540022E-002  9.961901396057328E-003
  8.301584496714441E-003  6.641267597371552E-003  4.980950698028665E-003
  3.320633798685776E-003  1.660316899342887E-003  0.000000000000000E+000
  1.660316899342888E-002  1.494285209408599E-002  1.328253519474311E-002
  1.162221829540022E-002  9.961901396057328E-003  8.301584496714441E-003
  6.641267597371552E-003  4.980950698028665E-003  3.320633798685776E-003
  1.660316899342887E-003  0.000000000000000E+000  1.660316899342888E-002
  1.494285209408599E-002  1.328253519474311E-002  1.162221829540022E-002
  9.961901396057328E-003  8.301584496714441E-003  6.641267597371552E-003
  4.980950698028665E-003  3.320633798685776E-003  1.660316899342887E-003
  0.000000000000000E+000  1.660316899342888E-002  1.494285209408599E-002
  1.328253519474311E-002  1.162221829540022E-002  9.961901396057328E-003
  8.301584496714441E-003  6.641267597371552E-003  4.980950698028665E-003
  3.320633798685776E-003  1.660316899342887E-003  0.000000000000000E+000
  1.660316899342888E-002  1.494285209408599E-002  1.328253519474311E-002
  1.162221829540022E-002  9.961901396057328E-003  8.301584496714441E-003
  6.641267597371552E-003  4.980950698028665E-003  3.320633798685776E-003
  1.660316899342887E-003  0.000000000000000E+000  1.660316899342888E-002
  1.494285209408599E-002  1.328253519474311E-002  1.162221829540022E-002
  9.961901396057328E-003  8.301584496714441E-003  6.641267597371552E-003
  4.980950698028665E-003  3.320633798685776E-003  1.660316899342887E-003
  0.000000000000000E+000  1.660316899342888E-002  1.494285209408599E-002
  1.328253519474311E-002  1.162221829540022E-002  9.961901396057328E-003
  8.301584496714441E-003  6.641267597371552E-003  4.980950698028665E-003
  3.320633798685776E-003  1.660316899342887E-003  0.000000000000000E+000
  1.660316899342888E-002  1.494285209408599E-002  1.328253519474311E-002
  1.162221829540022E-002  9.961901396057328E-003  8.301584496714441E-003
  6.641267597371552E-003  4.980950698028665E-003  3.320633798685776E-003
  1.660316899342887E-003  0.000000000000000E+000  1.660316899342888E-002
  1.494285209408599E-002  1.328253519474311E-002  1.162221829540022E-002
  9.961901396057328E-003  8.301584496714441E-003  6.641267597371552E-003
  4.980950698028665E-003  3.320633798685776E-003  1.660316899342887E-003
  0.000000000000000E+000  1.660316899342888E-002  1.494285209408599E-002
  1.328253519474311E-002  1.162221829540022E-002  9.961901396057328E-003
  8.301584496714441E-003  6.641267597371552E-003  4.980950698028665E-003
  3.320633798685776E-003  1.660316899342887E-003  0.000000000000000E+000
  1.660316899342888E-002  1.494285209408599E-002  1.328253519474311E-002
  1.162221829540022E-002  9.961901396057328E-003  8.301584496714441E-003
  6.641267597371552E-003  4.980950698028665E-003  3.320633798685776E-003
  1.660316899342887E-003  0.000000000000000E+000  1.660316899342888E-002
  1.494285209408599E-002  1.328253519474311E-002  1.162221829540022E-002
  9.961901396057328E-003  8.301584496714441E-003  6.641267597371552E-003
  4.980950698028665E-003  3.320633798685776E-003  1.660316899342887E-003
  0.000000000000000E+000  1.660316899342888E-002  1.494285209408599E-002
  1.328253519474311E-002  1.162221829540022E-002  9.961901396057328E-003
  8.301584496714441E-003  6.641267597371552E-003  4.980950698028665E-003
  3.320633798685776E-003  1.660316899342887E-003  0.000000000000000E+000
  1.660316899342888E-002  1.494285209408599E-002  1.328253519474311E-002
  1.162221829540022E-002  9.961901396057328E-003  8.301584496714441E-003
  6.641267597371552E-003  4.980950698028665E-003  3.320633798685776E-003
  1.660316899342887E-003  0.000000000000000E+000  1.660316899342888E-002
  1.494285209408599E-002  1.328253519474311E-002  1.162221829540022E-002
  9.961901396057328E-003  8.301584496714441E-003  6.641267597371552E-003
  4.980950698028665E-003  3.320633798685776E-003  1.660316899342887E-003
  0.000000000000000E+000  1.660316899342888E-002  1.494285209408599E-002
  1.328253519474311E-002  1.162221829540022E-002  9.961901396057328E-003
  8.301584496714441E-003  6.641267597371552E-003  4.980950698028665E-003
  3.320633798685776E-003  1.660316899342887E-003  0.000000000000000E+000
  1.660316899342888E-002  1.494285209408599E-002  1.328253519474311E-002
  1.162221829540022E-002  9.961901396057328E-003  8.301584496714441E-003
  6.641267597371552E-003  4.980950698028665E-003  3.320633798685776E-003
  1.660316899342887E-003  0.000000000000000E+000  1.660316899342888E-002
  1.494285209408599E-002  1.328253519474311E-002  1.162221829540022E-002
  9.961901396057328E-003  8.301584496714441E-003  6.641267597371552E-003
  4.980950698028665E-003  3.320633798685776E-003  1.660316899342887E-003
  0.000000000000000E+000  1.660316899342888E-002  1.494285209408599E-002
  1.328253519474311E-002  1.162221829540022E-002  9.961901396057328E-003
  8.301584496714441E-003  6.641267597371552E-003  4.980950698028665E-003
  3.320633798685776E-003  1.660316899342887E-003  0.000000000000000E+000
  1.660316899342888E-002  1.494285209408599E-002  1.328253519474311E-002
  1.162221829540022E-002  9.961901396057328E-003  8.301584496714441E-003
  6.641267597371552E-003  4.980950698028665E-003  3.320633798685776E-003
  1.660316899342887E-003  0.000000000000000E+000  1.660316899342888E-002
  1.494285209408599E-002  1.328253519474311E-002  1.162221829540022E-002
  9.961901396057328E-003  8.301584496714441E-003  6.641267597371552E-003
  4.980950698028665E-003  3.320633798685776E-003  1.660316899342887E-003
  0.000000000000000E+000  1.660316899342888E-002  1.494285209408599E-002
  1.328253519474311E-002  1.162221829540022E-002  9.961901396057328E-003
  8.301584496714441E-003  6.641267597371552E-003  4.980950698028665E-003
  3.320633798685776E-003  1.660316899342887E-003  0.000000000000000E+000
  1.660316899342888E-002  1.494285209408599E-002  1.328253519474311E-002
  1.162221829540022E-002  9.961901396057328E-003  8.301584496714441E-003
  6.641267597371552E-003  4.980950698028665E-003  3.320633798685776E-003
  1.660316899342887E-003  0.000000000000000E+000  1.660316899342888E-002
  1.494285209408599E-002  1.328253519474311E-002  1.162221829540022E-002
  9.961901396057328E-003  8.301584496714441E-003  6.641267597371552E-003
  4.980950698028665E-003  3.320633798685776E-003  1.660316899342887E-003
  0.000000000000000E+000
 -1.853067905446505E-003  4.191171136154914E-003  1.212168832629902E-002
  2.093450216300517E-002  3.022080711318181E-002  3.982220707431536E-002
  4.975045075272475E-002  6.006088060608025E-002  7.074771203149502E-002
  8.152711569391907E-002 -2.886529224294274E-003  6.759825283832512E-003
  1.974990965040906E-002  3.427257750971328E-002  4.958497491576189E-002
  6.539345164039832E-002  8.169488729760822E-002  9.861778018690832E-002
  0.116221715001820       0.134264113973835      -3.191069300338480E-003
  8.656165665924627E-003  2.521414936679554E-002  4.397089949637095E-002
  6.382930852947598E-002  8.432207286012607E-002  0.105361073439987     
  0.127031471555193       0.149318355704912       0.171517233680315     
 -1.957558157770421E-003  1.106218037299700E-002  2.928705814216094E-002
  5.007631401514568E-002  7.216567127581934E-002  9.493597113620686E-002
  0.118165609507166       0.141779417853588       0.165574204872520     
  0.188503662306907       3.035547568703508E-003  1.755062779620979E-002
  3.649343734172694E-002  5.770607822013671E-002  8.006723527442851E-002
  0.102960472269446       0.126056256357780       0.149116728595850     
  0.171846684875043       0.193231128734139       1.484573363952810E-002
  3.313642228898588E-002  5.358807973064914E-002  7.512473330640607E-002
  9.704775751731760E-002  0.118918202313864       0.140448816430859     
  0.161408876272316       0.181537743997334       0.199927276614203     
  3.561883317298893E-002  6.163873263246543E-002  8.609718726292367E-002
  0.109623780297542       0.132195199285163       0.153693758411324     
  0.173991239107377       0.192945030134779       0.210332142137932     
  0.225333955882463       6.546460647336268E-002  0.103723572789778     
  0.135516666157201       0.163737773317840       0.189242785589540     
  0.212338006715768       0.233114037613453       0.251538881713207     
  0.267426591723978       0.279981614568203       0.102866662275434     
  0.157289854425086       0.199452879593981       0.234957100693181     
  0.265698140778578       0.292491570506243       0.315700086967760     
  0.335432355677664       0.351539795441816       0.363195136002068     
  0.145792626156630       0.219251783675128       0.273999561442910     
  0.318670633880632       0.356324715414754       0.388351060167130     
  0.415429323882948       0.437838922276162       0.455489501056500     
  0.467519168563624       0.192685971393626       0.287192051874718     
  0.356024720893590       0.411087050036781       0.456697007882321     
  0.494879141554321       0.526674729290878       0.552566558629475     
  0.572552284233491       0.585732398220539       0.242828371337828     
  0.359977520799028       0.444045051911019       0.510400948048001     
  0.564705525808935       0.609672235072406       0.646747903540057     
  0.676664583506666       0.699544075839978       0.714450407310547     
  0.295992070220544       0.437257869616073       0.537621495094322     
  0.616110630345866       0.679803507240834       0.732144704472335     
  0.775016051475159       0.809423407041863       0.835638956577981     
  0.852711510190432       0.351912845217860       0.518629916850259     
  0.636250165618598       0.727632958670919       0.801342242930172     
  0.861586053923666       0.910692957461390       0.949942004111520     
  0.979761628690416       0.999184598464745       0.410229113428995     
  0.603502379307605       0.739133408451280       0.843966407113106     
  0.928107128305042       0.996556988388535        1.05210656402350     
   1.09631648556594        1.12976534438462        1.15146626852054     
  0.470738694786098       0.691555693187595       0.845816748084470     
  0.964478496603199        1.05923328583304        1.13590836817039     
   1.19779794002019        1.24677817337337        1.28360635276689     
   1.30731301999155       0.534330395309942       0.784215430009031     
  0.958014803559985        1.09093790695265        1.19635640688854     
   1.28100938166929        1.34877811666399        1.40195249204123     
   1.44156857000203        1.46678153448227       0.610775113705739     
  0.894500717162965        1.08996058291219        1.23781806167245     
   1.35373488327807        1.44570672655872        1.51841354132437     
   1.57471129081465        1.61606578352854        1.64194879324233     
  0.746497848072178        1.07712864889414        1.29758607666757     
   1.46120265359653        1.58759446921346        1.68648153259894     
   1.76362390644490        1.82263045407384        1.86547908708524     
   1.89192215413896       0.949397634600064        1.34300395845595     
   1.59229555057765        1.77074817388466        1.90451765792934     
   2.00688043349702        2.08549863303208        2.14502586968489     
   2.18805356984194        2.21474475213099        1.05282106515492     
   1.47734657664255        1.73648686078985        1.91494468540780     
   2.04495406663867        2.14218443522159        2.21540133736781     
   2.26975991886678        2.30811606926940        2.33123019980958     
   1.02379605883162        1.42228930925095        1.65745385266081     
   1.81471316032256        1.92677886370507        2.00928153969012     
   2.07059003357182        2.11536615272247        2.14599854353623     
   2.16315715456124       0.898492635570027        1.22243929089749     
   1.40659990876003        1.52785800033292        1.61368073792139     
   1.67666472536090        1.72338323912409        1.75744888548502     
   1.78075698323799        1.79397105522059       0.691172176757182     
  0.911265874065931        1.03475673780322        1.11628930497416     
   1.17421959851333        1.21689875529467        1.24871464856018     
   1.27215858873913        1.28886086222596        1.30113631542705     
  0.420946966937555       0.544262762210667       0.614139119050192     
  0.660553499661245       0.693658015045127       0.718111917803017     
  0.736374930915540       0.749820999973549       0.759213425954995     
  0.764834992174956     
  0.000000000000000E+000  0.000000000000000E+000  0.000000000000000E+000
  0.000000000000000E+000  0.000000000000000E+000  0.000000000000000E+000
  0.000000000000000E+000  0.000000000000000E+000  0.000000000000000E+000
  0.000000000000000E+000  0.000000000000000E+000  0.000000000000000E+000
  0.000000000000000E+000  0.000000000000000E+000  0.000000000000000E+000
  0.000000000000000E+000  0.000000000000000E+000  0.000000000000000E+000
  0.000000000000000E+000  0.000000000000000E+000  0.000000000000000E+000
  0.000000000000000E+000  0.000000000000000E+000  0.000000000000000E+000
  0.000000000000000E+000  0.000000000000000E+000  0.000000000000000E+000
  0.000000000000000E+000  0.000000000000000E+000  0.000000000000000E+000
  0.000000000000000E+000  0.000000000000000E+000  0.000000000000000E+000
  0.000000000000000E+000  0.000000000000000E+000  0.000000000000000E+000
  0.000000000000000E+000  0.000000000000000E+000  0.000000000000000E+000
  0.000000000000000E+000  0.000000000000000E+000  0.000000000000000E+000
  0.000000000000000E+000  0.000000000000000E+000  0.000000000000000E+000
  0.000000000000000E+000  0.000000000000000E+000  0.000000000000000E+000
  0.000000000000000E+000  0.000000000000000E+000  0.000000000000000E+000
  0.000000000000000E+000  0.000000000000000E+000  0.000000000000000E+000
  0.000000000000000E+000  0.000000000000000E+000  0.000000000000000E+000
  0.000000000000000E+000  0.000000000000000E+000  0.000000000000000E+000
  0.000000000000000E+000  0.000000000000000E+000  0.000000000000000E+000
  0.000000000000000E+000  0.000000000000000E+000  0.000000000000000E+000
  0.000000000000000E+000  0.000000000000000E+000  0.000000000000000E+000
  0.000000000000000E+000  0.000000000000000E+000  0.000000000000000E+000
  0.000000000000000E+000  0.000000000000000E+000  0.000000000000000E+000
  0.000000000000000E+000  0.000000000000000E+000  0.000000000000000E+000
  0.000000000000000E+000  0.000000000000000E+000  0.000000000000000E+000
  0.000000000000000E+000  0.000000000000000E+000  0.000000000000000E+000
  0.000000000000000E+000  0.000000000000000E+000  0.000000000000000E+000
  0.000000000000000E+000  0.000000000000000E+000  0.000000000000000E+000
  0.000000000000000E+000  0.000000000000000E+000  0.000000000000000E+000
  0.000000000000000E+000  0.000000000000000E+000  0.000000000000000E+000
  0.000000000000000E+000  0.000000000000000E+000  0.000000000000000E+000
  0.000000000000000E+000  0.000000000000000E+000  0.000000000000000E+000
  0.000000000000000E+000  0.000000000000000E+000  0.000000000000000E+000
  0.000000000000000E+000  0.000000000000000E+000  0.000000000000000E+000
  0.000000000000000E+000  0.000000000000000E+000  0.000000000000000E+000
  0.000000000000000E+000  0.000000000000000E+000  0.000000000000000E+000
  0.000000000000000E+000  0.000000000000000E+000  0.000000000000000E+000