 Title = "Wing and Wake"
 VARIABLES = "X" "Y" "Z" "GAM" "skew"
 Zone I=   11 J=   26 K=1  T="Blade"
 DATAPACKING=BLOCK
 VARLOCATION=([4]=CELLCENTERED,[5]=CELLCENTERED)
 -0.171890759170138      -0.152989982783081      -0.134089206396025     
 -0.115188430008968      -9.628765362191112E-002 -7.738687723485428E-002
 -5.848610084779770E-002 -3.958532446074098E-002 -2.068454807368440E-002
 -1.783771686627560E-003  1.711700470042914E-002 -0.171553408400900     
 -0.152652632013843      -0.133751855626787      -0.114851079239730     
 -9.595030285267341E-002 -7.704952646561686E-002 -5.814875007856019E-002
 -3.924797369150342E-002 -2.034719730444660E-002 -1.446420917389975E-003
  1.745435546966677E-002 -0.170546676316342      -0.151645899929285     
 -0.132745123542229      -0.113844347155172      -9.494357076811509E-002
 -7.604279438105836E-002 -5.714201799400160E-002 -3.824124160694507E-002
 -1.934046521988821E-002 -4.396888328316448E-004  1.846108755422503E-002
 -0.168886439682829      -0.149985663295772      -0.131084886908716     
 -0.112184110521659      -9.328333413460227E-002 -7.438255774754539E-002
 -5.548178136048845E-002 -3.658100497343195E-002 -1.768022858637532E-002
  1.220547800681429E-003  2.012132418773796E-002 -0.166598881423849     
 -0.147698105036792      -0.128797328649735      -0.109896552262679     
 -9.099577587562201E-002 -7.209499948856531E-002 -5.319422310150878E-002
 -3.429344671445208E-002 -1.539267032739530E-002  3.508106059661403E-003
  2.240888244671800E-002 -0.163720077699667      -0.144819301312611     
 -0.125918524925554      -0.107017748538497      -8.811697215144038E-002
 -6.921619576438376E-002 -5.031541937732707E-002 -3.141464299027048E-002
 -1.251386660321368E-002  6.386909783843079E-003  2.528768617089987E-002
 -0.160295428964728      -0.141394652577672      -0.122493876190615     
 -0.103593099803558      -8.469232341650137E-002 -6.579154702944476E-002
 -4.689077064238811E-002 -2.798999425533126E-002 -9.089217868274272E-003
  9.811558518782090E-003  2.871233490583862E-002 -0.156378943975368     
 -0.137478167588311      -0.118577391201255      -9.967661481419782E-002
 -8.077583842714127E-002 -6.187506204008419E-002 -4.297428565302764E-002
 -2.407350926597079E-002 -5.172732878913903E-003  1.372804350814242E-002
  3.262881989519929E-002 -0.152032388039462      -0.133131611652406     
 -0.114230835265349      -9.533005887829263E-002 -7.642928249123630E-002
 -5.752850610417939E-002 -3.862772971712256E-002 -1.972695333006600E-002
 -8.261769430092202E-004  1.807459944404737E-002  3.697537583110378E-002
 -0.147324308940629      -0.128423532553573      -0.109522756166516     
 -9.062197977945946E-002 -7.172120339240258E-002 -5.282042700534586E-002
 -3.391965061828944E-002 -1.501887423123272E-002  3.881902155824060E-003
  2.278267854288099E-002  4.168345492993742E-002 -0.142328955898726     
 -0.123428179511670      -0.104527403124613      -8.562662673755582E-002
 -6.672585035049933E-002 -4.782507396344270E-002 -2.892429757638588E-002
 -1.002352118932890E-002  8.877255197727384E-003  2.777803158478437E-002
  4.667880797184060E-002 -0.137125108615303      -0.118224332228246     
 -9.932355584118910E-002 -8.042277945413295E-002 -6.152200306707618E-002
 -4.262122668001919E-002 -2.372045029296287E-002 -4.819673905905928E-003
  1.408110248115074E-002  3.298187886820710E-002  5.188265525526371E-002
 -0.131794834870647      -0.112894058483591      -9.399328209653435E-002
 -7.509250570947740E-002 -5.619172932242041E-002 -3.729095293536419E-002
 -1.839017654830745E-002  5.105998387493251E-004  1.941137622580688E-002
  3.831215261286266E-002  5.721292899991983E-002 -0.126422196265864     
 -0.107521419878807      -8.862064349175007E-002 -6.971986710469327E-002
 -5.081909071763714E-002 -3.191831433057989E-002 -1.301753794352330E-002
  5.883238443533311E-003  2.478401483058956E-002  4.368479121764767E-002
  6.258556760470334E-002 -0.121091922521209      -0.102191146134152     
 -8.329036974709453E-002 -6.438959336003845E-002 -4.548881697298194E-002
 -2.658804058592488E-002 -7.687264198867966E-003  1.121351218818835E-002
  3.011428857524565E-002  4.901506496230209E-002  6.791584134935905E-002
 -0.115888075237784      -9.698729885072781E-002 -7.808652246367134E-002
 -5.918574607661502E-002 -4.028496968955797E-002 -2.138419330250161E-002
 -2.483416915445500E-003  1.641735947161231E-002  3.531813585866848E-002
  5.421891224572553E-002  7.311968863278193E-002 -0.110892722195882     
 -9.199194580882560E-002 -7.309116942176817E-002 -5.419039303471164E-002
 -3.528961664765524E-002 -1.638884026059899E-002  2.511936126458951E-003
  2.141271251351548E-002  4.031348890057149E-002  5.921426528762870E-002
  7.811504167468498E-002 -0.106184643097049      -8.728386670999176E-002
 -6.838309032293534E-002 -4.948231393587773E-002 -3.058153754882171E-002
 -1.168076116176484E-002  7.220015225291630E-003  2.612079161234855E-002
  4.502156799940533E-002  6.392234438646199E-002  8.282312077351836E-002
 -0.101838087161144      -8.293731077408684E-002 -6.403653438702980E-002
 -4.513575799997308E-002 -2.623498161291718E-002 -7.334205225860519E-003
  1.156657116119695E-002  3.046734754825379E-002  4.936812393531076E-002
  6.826890032236688E-002  8.716967670942323E-002 -9.792160217178332E-002
 -7.902082578472670E-002 -6.012004939766930E-002 -4.121927301061315E-002
 -2.231849662355712E-002 -3.417720236499318E-003  1.548305615055686E-002
  3.438383253761416E-002  5.328460892467021E-002  7.218538531172744E-002
  9.108616169878393E-002 -9.449695343684375E-002 -7.559617704978691E-002
 -5.669540066273115E-002 -3.779462427567416E-002 -1.889384788861807E-002
  6.928498439010989E-006  1.890770488549607E-002  3.780848127255258E-002
  5.670925765960951E-002  7.561003404666637E-002  9.451081043372279E-002
 -9.161814971266292E-002 -7.271737332560550E-002 -5.381659693854848E-002
 -3.491582055149275E-002 -1.601504416443606E-002  2.885732222621326E-003
  2.178650860967766E-002  4.068728499673539E-002  5.958806138379111E-002
  7.848883777084750E-002  9.738961415790562E-002 -8.933059145368315E-002
 -7.042981506662521E-002 -5.152903867956893E-002 -3.262826229251162E-002
 -1.372748590545515E-002  5.173290481599965E-003  2.407406686865691E-002
  4.297484325571452E-002  6.187561964277107E-002  8.077639602982797E-002
  9.967717241688502E-002 -8.767035482017028E-002 -6.876957843311202E-002
 -4.986880204605618E-002 -3.096802565899873E-002 -1.206724927194273E-002
  6.833527115115379E-003  2.573430350216983E-002  4.463507988922749E-002
  6.353585627628422E-002  8.243663266334132E-002  0.101337409050398     
 -8.666362273561047E-002 -6.776284634855435E-002 -4.886206996149763E-002
 -2.996129357444066E-002 -1.106051718738402E-002  7.840259199672812E-003
  2.674103558672926E-002  4.564181197378609E-002  6.454258836084226E-002
  8.344336474789860E-002  0.102344141134956      -8.632627196637246E-002
 -6.742549557931680E-002 -4.852471919225977E-002 -2.962394280520302E-002
 -1.072316641814708E-002  8.177609968909262E-003  2.707838635596620E-002
  4.597916274302438E-002  6.487993913008043E-002  8.378071551713698E-002
  0.102681491904194     
  0.206816148409400       0.205111302445615       0.203406456481830     
  0.201701610518044       0.199996764554259       0.198291918590474     
  0.196587072626689       0.194882226662904       0.193177380699119     
  0.191472534735334       0.189767688771549       0.210556188031047     
  0.208851342067262       0.207146496103477       0.205441650139692     
  0.203736804175907       0.202031958212121       0.200327112248336     
  0.198622266284551       0.196917420320766       0.195212574356981     
  0.193507728393196       0.221717324236964       0.220012478273179     
  0.218307632309394       0.216602786345608       0.214897940381823     
  0.213193094418038       0.211488248454253       0.209783402490468     
  0.208078556526683       0.206373710562898       0.204668864599112     
  0.240123539241843       0.238418693278058       0.236713847314273     
  0.235009001350488       0.233304155386703       0.231599309422917     
  0.229894463459132       0.228189617495347       0.226484771531562     
  0.224779925567777       0.223075079603992       0.265484556039719     
  0.263779710075933       0.262074864112148       0.260370018148363     
  0.258665172184578       0.256960326220793       0.255255480257008     
  0.253550634293223       0.251845788329437       0.250140942365652     
  0.248436096401867       0.297400416245750       0.295695570281965     
  0.293990724318180       0.292285878354395       0.290581032390610     
  0.288876186426824       0.287171340463039       0.285466494499254     
  0.283761648535469       0.282056802571684       0.280351956607899     
  0.335367787678878       0.333662941715092       0.331958095751307     
  0.330253249787523       0.328548403823737       0.326843557859952     
  0.325138711896167       0.323433865932382       0.321729019968597     
  0.320024174004812       0.318319328041026       0.378787902210994     
  0.377083056247209       0.375378210283424       0.373673364319639     
  0.371968518355853       0.370263672392068       0.368558826428283     
  0.366853980464498       0.365149134500713       0.363444288536928     
  0.361739442573143       0.426975998698006       0.425271152734222     
  0.423566306770436       0.421861460806651       0.420156614842866     
  0.418451768879081       0.416746922915296       0.415042076951510     
  0.413337230987725       0.411632385023940       0.409927539060155     
  0.479172122072143       0.477467276108357       0.475762430144572     
  0.474057584180787       0.472352738217001       0.470647892253217     
  0.468943046289431       0.467238200325646       0.465533354361861     
  0.463828508398076       0.462123662434291       0.534553108287338     
  0.532848262323554       0.531143416359769       0.529438570395983     
  0.527733724432198       0.526028878468413       0.524324032504628     
  0.522619186540842       0.520914340577058       0.519209494613273     
  0.517504648649487       0.592245566107984       0.590540720144200     
  0.588835874180413       0.587131028216628       0.585426182252845     
  0.583721336289059       0.582016490325273       0.580311644361489     
  0.578606798397703       0.576901952433919       0.575197106470133     
  0.651339651010443       0.649634805046660       0.647929959082874     
  0.646225113119088       0.644520267155303       0.642815421191518     
  0.641110575227734       0.639405729263948       0.637700883300164     
  0.635996037336378       0.634291191372593       0.710903413974711     
  0.709198568010926       0.707493722047141       0.705788876083356     
  0.704084030119569       0.702379184155784       0.700674338192000     
  0.698969492228215       0.697264646264429       0.695559800300645     
  0.693854954336859       0.769997498877171       0.768292652913385     
  0.766587806949600       0.764882960985815       0.763178115022030     
  0.761473269058244       0.759768423094459       0.758063577130675     
  0.756358731166889       0.754653885203104       0.752949039239320     
  0.827689956697816       0.825985110734031       0.824280264770247     
  0.822575418806461       0.820870572842675       0.819165726878889     
  0.817460880915104       0.815756034951321       0.814051188987536     
  0.812346343023749       0.810641497059965       0.883070942913013     
  0.881366096949228       0.879661250985441       0.877956405021657     
  0.876251559057873       0.874546713094087       0.872841867130302     
  0.871137021166516       0.869432175202732       0.867727329238945     
  0.866022483275162       0.935267066287148       0.933562220323363     
  0.931857374359579       0.930152528395794       0.928447682432007     
  0.926742836468223       0.925037990504437       0.923333144540651     
  0.921628298576867       0.919923452613082       0.918218606649297     
  0.983455162774160       0.981750316810375       0.980045470846591     
  0.978340624882807       0.976635778919021       0.974930932955235     
  0.973226086991450       0.971521241027665       0.969816395063880     
  0.968111549100095       0.966406703136310        1.02687527730628     
   1.02517043134249        1.02346558537871        1.02176073941492     
   1.02005589345114        1.01835104748735        1.01664620152357     
   1.01494135555978        1.01323650959599        1.01153166363221     
   1.00982681766842        1.06484264873940        1.06313780277562     
   1.06143295681184        1.05972811084805        1.05802326488426     
   1.05631841892048        1.05461357295669        1.05290872699291     
   1.05120388102912        1.04949903506534        1.04779418910155     
   1.09675850894543        1.09505366298165        1.09334881701787     
   1.09164397105408        1.08993912509029        1.08823427912651     
   1.08652943316273        1.08482458719894        1.08311974123516     
   1.08141489527137        1.07971004930759        1.12211952574331     
   1.12041467977953        1.11870983381574        1.11700498785196     
   1.11530014188817        1.11359529592439        1.11189044996060     
   1.11018560399682        1.10848075803303        1.10677591206925     
   1.10507106610546        1.14052574074819        1.13882089478441     
   1.13711604882062        1.13541120285684        1.13370635689305     
   1.13200151092927        1.13029666496548        1.12859181900170     
   1.12688697303791        1.12518212707413        1.12347728111034     
   1.15168687695411        1.14998203099032        1.14827718502654     
   1.14657233906275        1.14486749309897        1.14316264713518     
   1.14145780117140        1.13975295520761        1.13804810924383     
   1.13634326328004        1.13463841731626        1.15542691657576     
   1.15372207061197        1.15201722464818        1.15031237868440     
   1.14860753272061        1.14690268675683        1.14519784079304     
   1.14349299482926        1.14178814886547        1.14008330290169     
   1.13837845693790     
  1.660316899342888E-002  1.494285209408599E-002  1.328253519474311E-002
  1.162221829540022E-002  9.961901396057328E-003  8.301584496714441E-003
  6.641267597371552E-003  4.980950698028665E-003  3.320633798685776E-003
  1.660316899342887E-003  0.000000000000000E+000  1.660316899342888E-002
  1.494285209408599E-002  1.328253519474311E-002  1.162221829540022E-002
  9.961901396057328E-003  8.301584496714441E-003  6.641267597371552E-003
  4.980950698028665E-003  3.320633798685776E-003  1.660316899342887E-003
  0.000000000000000E+000  1.660316899342888E-002  1.494285209408599E-002
  1.328253519474311E-002  1.162221829540022E-002  9.961901396057328E-003
  8.301584496714441E-003  6.641267597371552E-003  4.980950698028665E-003
  3.320633798685776E-003  1.660316899342887E-003  0.000000000000000E+000
  1.660316899342888E-002  1.494285209408599E-002  1.328253519474311E-002
  1.162221829540022E-002  9.961901396057328E-003  8.301584496714441E-003
  6.641267597371552E-003  4.980950698028665E-003  3.320633798685776E-003
  1.660316899342887E-003  0.000000000000000E+000  1.660316899342888E-002
  1.494285209408599E-002  1.328253519474311E-002  1.162221829540022E-002
  9.961901396057328E-003  8.301584496714441E-003  6.641267597371552E-003
  4.980950698028665E-003  3.320633798685776E-003  1.660316899342887E-003
  0.000000000000000E+000  1.660316899342888E-002  1.494285209408599E-002
  1.328253519474311E-002  1.162221829540022E-002  9.961901396057328E-003
  8.301584496714441E-003  6.641267597371552E-003  4.980950698028665E-003
  3.320633798685776E-003  1.660316899342887E-003  0.000000000000000E+000
  1.660316899342888E-002  1.494285209408599E-002  1.328253519474311E-002
  1.162221829540022E-002  9.961901396057328E-003  8.301584496714441E-003
  6.641267597371552E-003  4.980950698028665E-003  3.320633798685776E-003
  1.660316899342887E-003  0.000000000000000E+000  1.660316899342888E-002
  1.494285209408599E-002  1.328253519474311E-002  1.162221829540022E-002
  9.961901396057328E-003  8.301584496714441E-003  6.641267597371552E-003
  4.980950698028665E-003  3.320633798685776E-003  1.660316899342887E-003
  0.000000000000000E+000  1.660316899342888E-002  1.494285209408599E-002
  1.328253519474311E-002  1.162221829540022E-002  9.961901396057328E-003
  8.301584496714441E-003  6.641267597371552E-003  4.980950698028665E-003
  3.320633798685776E-003  1.660316899342887E-003  0.000000000000000E+000
  1.660316899342888E-002  1.494285209408599E-002  1.328253519474311E-002
  1.162221829540022E-002  9.961901396057328E-003  8.301584496714441E-003
  6.641267597371552E-003  4.980950698028665E-003  3.320633798685776E-003
  1.660316899342887E-003  0.000000000000000E+000  1.660316899342888E-002
  1.494285209408599E-002  1.328253519474311E-002  1.162221829540022E-002
  9.961901396057328E-003  8.301584496714441E-003  6.641267597371552E-003
  4.980950698028665E-003  3.320633798685776E-003  1.660316899342887E-003
  0.000000000000000E+000  1.660316899342888E-002  1.494285209408599E-002
  1.328253519474311E-002  1.162221829540022E-002  9.961901396057328E-003
  8.301584496714441E-003  6.641267597371552E-003  4.980950698028665E-003
  3.320633798685776E-003  1.660316899342887E-003  0.000000000000000E+000
  1.660316899342888E-002  1.494285209408599E-002  1.328253519474311E-002
  1.162221829540022E-002  9.961901396057328E-003  8.301584496714441E-003
  6.641267597371552E-003  4.980950698028665E-003  3.320633798685776E-003
  1.660316899342887E-003  0.000000000000000E+000  1.660316899342888E-002
  1.494285209408599E-002  1.328253519474311E-002  1.162221829540022E-002
  9.961901396057328E-003  8.301584496714441E-003  6.641267597371552E-003
  4.980950698028665E-003  3.320633798685776E-003  1.660316899342887E-003
  0.000000000000000E+000  1.660316899342888E-002  1.494285209408599E-002
  1.328253519474311E-002  1.162221829540022E-002  9.961901396057328E-003
  8.301584496714441E-003  6.641267597371552E-003  4.980950698028665E-003
  3.320633798685776E-003  1.660316899342887E-003  0.000000000000000E+000
  1.660316899342888E-002  1.494285209408599E-002  1.328253519474311E-002
  1.162221829540022E-002  9.961901396057328E-003  8.301584496714441E-003
  6.641267597371552E-003  4.980950698028665E-003  3.320633798685776E-003
  1.660316899342887E-003  0.000000000000000E+000  1.660316899342888E-002
  1.494285209408599E-002  1.328253519474311E-002  1.162221829540022E-002
  9.961901396057328E-003  8.301584496714441E-003  6.641267597371552E-003
  4.980950698028665E-003  3.320633798685776E-003  1.660316899342887E-003
  0.000000000000000E+000  1.660316899342888E-002  1.494285209408599E-002
  1.328253519474311E-002  1.162221829540022E-002  9.961901396057328E-003
  8.301584496714441E-003  6.641267597371552E-003  4.980950698028665E-003
  3.320633798685776E-003  1.660316899342887E-003  0.000000000000000E+000
  1.660316899342888E-002  1.494285209408599E-002  1.328253519474311E-002
  1.162221829540022E-002  9.961901396057328E-003  8.301584496714441E-003
  6.641267597371552E-003  4.980950698028665E-003  3.320633798685776E-003
  1.660316899342887E-003  0.000000000000000E+000  1.660316899342888E-002
  1.494285209408599E-002  1.328253519474311E-002  1.162221829540022E-002
  9.961901396057328E-003  8.301584496714441E-003  6.641267597371552E-003
  4.980950698028665E-003  3.320633798685776E-003  1.660316899342887E-003
  0.000000000000000E+000  1.660316899342888E-002  1.494285209408599E-002
  1.328253519474311E-002  1.162221829540022E-002  9.961901396057328E-003
  8.301584496714441E-003  6.641267597371552E-003  4.980950698028665E-003
  3.320633798685776E-003  1.660316899342887E-003  0.000000000000000E+000
  1.660316899342888E-002  1.494285209408599E-002  1.328253519474311E-002
  1.162221829540022E-002  9.961901396057328E-003  8.301584496714441E-003
  6.641267597371552E-003  4.980950698028665E-003  3.320633798685776E-003
  1.660316899342887E-003  0.000000000000000E+000  1.660316899342888E-002
  1.494285209408599E-002  1.328253519474311E-002  1.162221829540022E-002
  9.961901396057328E-003  8.301584496714441E-003  6.641267597371552E-003
  4.980950698028665E-003  3.320633798685776E-003  1.660316899342887E-003
  0.000000000000000E+000  1.660316899342888E-002  1.494285209408599E-002
  1.328253519474311E-002  1.162221829540022E-002  9.961901396057328E-003
  8.301584496714441E-003  6.641267597371552E-003  4.980950698028665E-003
  3.320633798685776E-003  1.660316899342887E-003  0.000000000000000E+000
  1.660316899342888E-002  1.494285209408599E-002  1.328253519474311E-002
  1.162221829540022E-002  9.961901396057328E-003  8.301584496714441E-003
  6.641267597371552E-003  4.980950698028665E-003  3.320633798685776E-003
  1.660316899342887E-003  0.000000000000000E+000  1.660316899342888E-002
  1.494285209408599E-002  1.328253519474311E-002  1.162221829540022E-002
  9.961901396057328E-003  8.301584496714441E-003  6.641267597371552E-003
  4.980950698028665E-003  3.320633798685776E-003  1.660316899342887E-003
  0.000000000000000E+000
  2.922675517683937E-002  4.442090133941599E-002  5.699986186875843E-002
  6.813791488539642E-002  7.815931669981674E-002  8.711931687799905E-002
  9.495417315560782E-002  0.101510270933114       0.106698567447132     
  0.110457498879677       4.903317851680839E-002  7.527443677180805E-002
  9.673432002461610E-002  0.115591229141386       0.132444438895054     
  0.147413837407361       0.160426741587796       0.171342378170630     
  0.180142466284349       0.186965709044894       6.700291831257769E-002
  0.104296711001464       0.134406891333879       0.160529339169731     
  0.183627775027463       0.203940700274932       0.221451733670254     
  0.236145577259919       0.248032762611888       0.256847002434074     
  8.208986356978987E-002  0.128493295237943       0.165832103607857     
  0.197952630591510       0.226081708601946       0.250618638212666     
  0.271633342765045       0.289204208275431       0.303322188547040     
  0.313344718795743       9.494226850188922E-002  0.148407515928340     
  0.191291706586726       0.228033577773101       0.260041035911438     
  0.287891035754496       0.311762218628631       0.331638335901225     
  0.347357236541226       0.358187686881660       0.107315935664649     
  0.166832585409155       0.214207425209762       0.254643229319205     
  0.289775904766803       0.320275606987345       0.346396347959084     
  0.368142387064727       0.385287206569967       0.396931422002838     
  0.122327311325149       0.188548648865192       0.240500593467639     
  0.284462005334831       0.322474705172227       0.355394632028772     
  0.383583798182749       0.407068421663558       0.425558482193937     
  0.438054797557100       0.142842223084438       0.217937024256835     
  0.275698329273714       0.323935892715634       0.365295545003892     
  0.400913134349900       0.431289057264205       0.456531358811672     
  0.476368186676842       0.489721342874433       0.170085808222832     
  0.257013368833332       0.322499590339374       0.376355984979351     
  0.422012416329068       0.460990641141892       0.493990215571125     
  0.521244470552020       0.542535583392687       0.556730310126878     
  0.203939001406586       0.305756959286668       0.381056427554611     
  0.442085134458055       0.493211711080602       0.536427574889614     
  0.572699833439149       0.602416324688281       0.625439315557333     
  0.640613057121889       0.243723803773127       0.363263980360014     
  0.450352351564758       0.520045121692104       0.577800557732198     
  0.626161328866695       0.666415615799495       0.699145591947556     
  0.724304096732031       0.740703909797001       0.288623789504003     
  0.428344476096656       0.528953812836790       0.608633958150809     
  0.674053461505237       0.728381552613947       0.773276882431497     
  0.809539634420985       0.837226576650403       0.855118415036214     
  0.337870914710755       0.499843186982165       0.615424516619939     
  0.706199407983148       0.780160441311294       0.841156930271425     
  0.891244276533735       0.931462873425862       0.961995317804677     
  0.981599289724856       0.390997187956001       0.577000015355741     
  0.708760997392439       0.811526652048450       0.894712502542897     
  0.962903261500712        1.01858497175637        1.06306039442124     
   1.09665541603593        1.11811772455593       0.448089573156658     
  0.659820948878660       0.808822849232722       0.924289278855930     
   1.01717435393838        1.09286819053274        1.15433886155024     
   1.20318794554719        1.23991347321405        1.26327807790359     
  0.509882202975871       0.749205448754071       0.916474407652639     
   1.04519421428932        1.14801748541110        1.23123722496671     
   1.29838639569149        1.35143762222580        1.39111812872332     
   1.41626824892465       0.578679918433206       0.848094095025934     
   1.03473078209077        1.17702134199375        1.28961852350950     
   1.37990813154543        1.45211976395629        1.50871436132042     
   1.55076306562231        1.57730056083217       0.663482210679562     
  0.967418281342988        1.17459047806815        1.33014180828418     
   1.45152336914821        1.54761803032595        1.62356023224134     
   1.68241898506052        1.72572605599795        1.75288206097159     
  0.782618943335934        1.12786522582451        1.35599682850024     
   1.52332820514683        1.65159664632124        1.75166625098560     
   1.82975084280350        1.88959744459388        1.93321845972195     
   1.96041078732294       0.908599707429185        1.29345327392796     
   1.53879520048032        1.71356241482117        1.84442898252790     
   1.94461836142524        2.02161316575524        2.07988044231336     
   2.12188271004955        2.14784425006178       0.956194558061211     
   1.34993435927650        1.59344928591573        1.76178634986748     
   1.88454899104560        1.97650368951175        2.04583432486754     
   2.09725638437687        2.13331674838794        2.15464953180504     
  0.916187075379667        1.27726131788928        1.49257656569733     
   1.63750043916517        1.74116861872727        1.81767639927690     
   1.87457851449305        1.91604679474239        1.94417738648908     
   1.95951723566800       0.803177419588919        1.09456510061195     
   1.26141106690408        1.37189796196365        1.45038827281098     
   1.50810533963849        1.55091717080806        1.58203759153778     
   1.60313981659288        1.61481477581038       0.618892522007981     
  0.816474361088820       0.927930102712292        1.00187377373425     
   1.05458418043000        1.09347812767761        1.12245762046720     
   1.14373666686716        1.15876582060310        1.16963539217727     
  0.377281506279579       0.487931168449820       0.550932898067751     
  0.592969844119352       0.623043772608250       0.645289065588058     
  0.661891278979894       0.674070868939916       0.682505458216443     
  0.687454422449505     
  0.000000000000000E+000  0.000000000000000E+000  0.000000000000000E+000
  0.000000000000000E+000  0.000000000000000E+000  0.000000000000000E+000
  0.000000000000000E+000  0.000000000000000E+000  0.000000000000000E+000
  0.000000000000000E+000  0.000000000000000E+000  0.000000000000000E+000
  0.000000000000000E+000  0.000000000000000E+000  0.000000000000000E+000
  0.000000000000000E+000  0.000000000000000E+000  0.000000000000000E+000
  0.000000000000000E+000  0.000000000000000E+000  0.000000000000000E+000
  0.000000000000000E+000  0.000000000000000E+000  0.000000000000000E+000
  0.000000000000000E+000  0.000000000000000E+000  0.000000000000000E+000
  0.000000000000000E+000  0.000000000000000E+000  0.000000000000000E+000
  0.000000000000000E+000  0.000000000000000E+000  0.000000000000000E+000
  0.000000000000000E+000  0.000000000000000E+000  0.000000000000000E+000
  0.000000000000000E+000  0.000000000000000E+000  0.000000000000000E+000
  0.000000000000000E+000  0.000000000000000E+000  0.000000000000000E+000
  0.000000000000000E+000  0.000000000000000E+000  0.000000000000000E+000
  0.000000000000000E+000  0.000000000000000E+000  0.000000000000000E+000
  0.000000000000000E+000  0.000000000000000E+000  0.000000000000000E+000
  0.000000000000000E+000  0.000000000000000E+000  0.000000000000000E+000
  0.000000000000000E+000  0.000000000000000E+000  0.000000000000000E+000
  0.000000000000000E+000  0.000000000000000E+000  0.000000000000000E+000
  0.000000000000000E+000  0.000000000000000E+000  0.000000000000000E+000
  0.000000000000000E+000  0.000000000000000E+000  0.000000000000000E+000
  0.000000000000000E+000  0.000000000000000E+000  0.000000000000000E+000
  0.000000000000000E+000  0.000000000000000E+000  0.000000000000000E+000
  0.000000000000000E+000  0.000000000000000E+000  0.000000000000000E+000
  0.000000000000000E+000  0.000000000000000E+000  0.000000000000000E+000
  0.000000000000000E+000  0.000000000000000E+000  0.000000000000000E+000
  0.000000000000000E+000  0.000000000000000E+000  0.000000000000000E+000
  0.000000000000000E+000  0.000000000000000E+000  0.000000000000000E+000
  0.000000000000000E+000  0.000000000000000E+000  0.000000000000000E+000
  0.000000000000000E+000  0.000000000000000E+000  0.000000000000000E+000
  0.000000000000000E+000  0.000000000000000E+000  0.000000000000000E+000
  0.000000000000000E+000  0.000000000000000E+000  0.000000000000000E+000
  0.000000000000000E+000  0.000000000000000E+000  0.000000000000000E+000
  0.000000000000000E+000  0.000000000000000E+000  0.000000000000000E+000
  0.000000000000000E+000  0.000000000000000E+000  0.000000000000000E+000
  0.000000000000000E+000  0.000000000000000E+000  0.000000000000000E+000
  0.000000000000000E+000  0.000000000000000E+000  0.000000000000000E+000
  0.000000000000000E+000  0.000000000000000E+000  0.000000000000000E+000