 Title = "Wing and Wake"
 VARIABLES = "X" "Y" "Z" "GAM" "skew"
 Zone I=   11 J=   26 K=1  T="Blade"
 DATAPACKING=BLOCK
 VARLOCATION=([4]=CELLCENTERED,[5]=CELLCENTERED)
 -0.262279750406506      -0.246248270198404      -0.230216789990301     
 -0.214185309782198      -0.198153829574096      -0.182122349365992     
 -0.166090869157890      -0.150059388949787      -0.134027908741685     
 -0.117996428533581      -0.101964948325479      -0.264289328271026     
 -0.248257848062924      -0.232226367854821      -0.216194887646719     
 -0.200163407438616      -0.184131927230513      -0.168100447022410     
 -0.152068966814307      -0.136037486606205      -0.120006006398102     
 -0.103974526189999      -0.270286369621201      -0.254254889413098     
 -0.238223409204996      -0.222191928996892      -0.206160448788789     
 -0.190128968580687      -0.174097488372584      -0.158066008164481     
 -0.142034527956379      -0.126003047748276      -0.109971567540173     
 -0.280176297532477      -0.264144817324374      -0.248113337116272     
 -0.232081856908169      -0.216050376700066      -0.200018896491964     
 -0.183987416283860      -0.167955936075758      -0.151924455867656     
 -0.135892975659553      -0.119861495451450      -0.293803141933740     
 -0.277771661725636      -0.261740181517533      -0.245708701309431     
 -0.229677221101328      -0.213645740893225      -0.197614260685123     
 -0.181582780477020      -0.165551300268917      -0.149519820060814     
 -0.133488339852712      -0.310951999348496      -0.294920519140393     
 -0.278889038932290      -0.262857558724188      -0.246826078516085     
 -0.230794598307982      -0.214763118099879      -0.198731637891777     
 -0.182700157683674      -0.166668677475571      -0.150637197267468     
 -0.331352422051086      -0.315320941842983      -0.299289461634880     
 -0.283257981426778      -0.267226501218675      -0.251195021010572     
 -0.235163540802469      -0.219132060594366      -0.203100580386263     
 -0.187069100178162      -0.171037619970058      -0.354682683188868     
 -0.338651202980766      -0.322619722772663      -0.306588242564560     
 -0.290556762356457      -0.274525282148354      -0.258493801940252     
 -0.242462321732149      -0.226430841524046      -0.210399361315943     
 -0.194367881107841      -0.380574850606875      -0.364543370398773     
 -0.348511890190670      -0.332480409982568      -0.316448929774466     
 -0.300417449566363      -0.284385969358260      -0.268354489150157     
 -0.252323008942055      -0.236291528733952      -0.220260048525849     
 -0.408620589357698      -0.392589109149594      -0.376557628941492     
 -0.360526148733390      -0.344494668525287      -0.328463188317184     
 -0.312431708109082      -0.296400227900979      -0.280368747692876     
 -0.264337267484774      -0.248305787276671      -0.438377601387521     
 -0.422346121179418      -0.406314640971315      -0.390283160763213     
 -0.374251680555109      -0.358220200347006      -0.342188720138904     
 -0.326157239930800      -0.310125759722699      -0.294094279514596     
 -0.278062799306493      -0.469376600840656      -0.453345120632554     
 -0.437313640424449      -0.421282160216348      -0.405250680008245     
 -0.389219199800142      -0.373187719592039      -0.357156239383937     
 -0.341124759175834      -0.325093278967731      -0.309061798759629     
 -0.501128714977822      -0.485097234769721      -0.469065754561618     
 -0.453034274353516      -0.437002794145411      -0.420971313937311     
 -0.404939833729208      -0.388908353521104      -0.372876873313001     
 -0.356845393104899      -0.340813912896796      -0.533133193991287     
 -0.517101713783185      -0.501070233575082      -0.485038753366979     
 -0.469007273158876      -0.452975792950773      -0.436944312742670     
 -0.420912832534568      -0.404881352326466      -0.388849872118362     
 -0.372818391910260      -0.564885308128455      -0.548853827920352     
 -0.532822347712249      -0.516790867504147      -0.500759387296044     
 -0.484727907087942      -0.468696426879839      -0.452664946671736     
 -0.436633466463633      -0.420601986255530      -0.404570506047429     
 -0.595884307581590      -0.579852827373487      -0.563821347165385     
 -0.547789866957283      -0.531758386749179      -0.515726906541076     
 -0.499695426332975      -0.483663946124872      -0.467632465916769     
 -0.451600985708665      -0.435569505500564      -0.625641319611413     
 -0.609609839403311      -0.593578359195207      -0.577546878987104     
 -0.561515398779002      -0.545483918570900      -0.529452438362796     
 -0.513420958154693      -0.497389477946592      -0.481357997738488     
 -0.465326517530387      -0.653687058362234      -0.637655578154133     
 -0.621624097946029      -0.605592617737926      -0.589561137529824     
 -0.573529657321721      -0.557498177113618      -0.541466696905515     
 -0.525435216697412      -0.509403736489311      -0.493372256281208     
 -0.679579225780243      -0.663547745572140      -0.647516265364038     
 -0.631484785155935      -0.615453304947833      -0.599421824739730     
 -0.583390344531626      -0.567358864323524      -0.551327384115420     
 -0.535295903907318      -0.519264423699216      -0.702909486918025     
 -0.686878006709924      -0.670846526501818      -0.654815046293718     
 -0.638783566085615      -0.622752085877511      -0.606720605669409     
 -0.590689125461306      -0.574657645253202      -0.558626165045101     
 -0.542594684836998      -0.723309909620614      -0.707278429412511     
 -0.691246949204411      -0.675215468996307      -0.659183988788204     
 -0.643152508580102      -0.627121028371999      -0.611089548163897     
 -0.595058067955793      -0.579026587747690      -0.562995107539587     
 -0.740458767035373      -0.724427286827269      -0.708395806619165     
 -0.692364326411064      -0.676332846202960      -0.660301365994859     
 -0.644269885786754      -0.628238405578651      -0.612206925370552     
 -0.596175445162448      -0.580143964954344      -0.754085611436635     
 -0.738054131228531      -0.722022651020428      -0.705991170812324     
 -0.689959690604222      -0.673928210396121      -0.657896730188018     
 -0.641865249979915      -0.625833769771812      -0.609802289563710     
 -0.593770809355605      -0.763975539347911      -0.747944059139807     
 -0.731912578931706      -0.715881098723602      -0.699849618515500     
 -0.683818138307397      -0.667786658099295      -0.651755177891191     
 -0.635723697683089      -0.619692217474986      -0.603660737266882     
 -0.769972580698083      -0.753941100489982      -0.737909620281879     
 -0.721878140073776      -0.705846659865673      -0.689815179657569     
 -0.673783699449468      -0.657752219241365      -0.641720739033261     
 -0.625689258825159      -0.609657778617057      -0.771982158562604     
 -0.755950678354500      -0.739919198146399      -0.723887717938296     
 -0.707856237730193      -0.691824757522092      -0.675793277313988     
 -0.659761797105885      -0.643730316897783      -0.627698836689679     
 -0.611667356481578     
  5.940273442936355E-002  6.955839738807557E-002  7.971406034678792E-002
  8.986972330550053E-002  0.100025386264213       0.110181049222925     
  0.120336712181638       0.130492375140350       0.140648038099062     
  0.150803701057774       0.160959364016487       6.257500470779603E-002
  7.273066766650824E-002  8.288633062522031E-002  9.304199358393277E-002
  0.103197656542645       0.113353319501357       0.123508982460070     
  0.133664645418782       0.143820308377495       0.153975971336207     
  0.164131634294920       7.204178694577944E-002  8.219744990449196E-002
  9.235311286320427E-002  0.102508775821916       0.112664438780629     
  0.122820101739341       0.132975764698054       0.143131427656766     
  0.153287090615478       0.163442753574191       0.173598416532903     
  8.765378433224051E-002  9.780944729095249E-002  0.107965110249665     
  0.118120773208378       0.128276436167090       0.138432099125802     
  0.148587762084514       0.158743425043227       0.168899088001939     
  0.179054750960652       0.189210413919364       0.109164786342239     
  0.119320449300951       0.129476112259663       0.139631775218376     
  0.149787438177088       0.159943101135800       0.170098764094513     
  0.180254427053225       0.190410090011937       0.200565752970649     
  0.210721415929362       0.136235551624026       0.146391214582738     
  0.156546877541450       0.166702540500163       0.176858203458876     
  0.187013866417588       0.197169529376300       0.207325192335012     
  0.217480855293725       0.227636518252437       0.237792181211150     
  0.168439158037818       0.178594820996531       0.188750483955243     
  0.198906146913956       0.209061809872668       0.219217472831380     
  0.229373135790092       0.239528798748805       0.249684461707517     
  0.259840124666230       0.269995787624941       0.205267735472968     
  0.215423398431680       0.225579061390393       0.235734724349105     
  0.245890387307818       0.256046050266530       0.266201713225243     
  0.276357376183955       0.286513039142667       0.296668702101379     
  0.306824365060092       0.246140475262997       0.256296138221710     
  0.266451801180421       0.276607464139134       0.286763127097847     
  0.296918790056559       0.307074453015271       0.317230115973983     
  0.327385778932696       0.337541441891409       0.347697104850120     
  0.290412789885225       0.300568452843937       0.310724115802649     
  0.320879778761362       0.331035441720074       0.341191104678786     
  0.351346767637499       0.361502430596211       0.371658093554924     
  0.381813756513636       0.391969419472348       0.337386478491060     
  0.347542141449772       0.357697804408485       0.367853467367199     
  0.378009130325909       0.388164793284622       0.398320456243335     
  0.408476119202046       0.418631782160760       0.428787445119472     
  0.438943108078184       0.386320737950467       0.396476400909182     
  0.406632063867892       0.416787726826605       0.426943389785318     
  0.437099052744030       0.447254715702742       0.457410378661455     
  0.467566041620166       0.477721704578879       0.487877367537591     
  0.436443845759863       0.446599508718578       0.456755171677288     
  0.466910834636001       0.477066497594713       0.487222160553426     
  0.497377823512139       0.507533486470851       0.517689149429563     
  0.527844812388275       0.538000475346987       0.486965330567000     
  0.497120993525713       0.507276656484426       0.517432319443138     
  0.527587982401849       0.537743645360562       0.547899308319274     
  0.558054971277988       0.568210634236699       0.578366297195412     
  0.588521960154124       0.537088438376396       0.547244101335108     
  0.557399764293820       0.567555427252533       0.577711090211245     
  0.587866753169957       0.598022416128669       0.608178079087383     
  0.618333742046096       0.628489405004807       0.638645067963520     
  0.586022697835805       0.596178360794516       0.606334023753230     
  0.616489686711943       0.626645349670653       0.636801012629365     
  0.646956675588077       0.657112338546792       0.667268001505504     
  0.677423664464215       0.687579327422928       0.632996386441639     
  0.643152049400352       0.653307712359063       0.663463375317777     
  0.673619038276489       0.683774701235201       0.693930364193915     
  0.704086027152626       0.714241690111338       0.724397353070051     
  0.734553016028764       0.677268701063867       0.687424364022580     
  0.697580026981293       0.707735689940005       0.717891352898717     
  0.728047015857430       0.738202678816142       0.748358341774854     
  0.758514004733566       0.768669667692280       0.778825330650990     
  0.718141440853895       0.728297103812608       0.738452766771321     
  0.748608429730034       0.758764092688744       0.768919755647457     
  0.779075418606170       0.789231081564883       0.799386744523595     
  0.809542407482307       0.819698070441019       0.754970018289045     
  0.765125681247759       0.775281344206470       0.785437007165183     
  0.795592670123896       0.805748333082609       0.815903996041320     
  0.826059659000032       0.836215321958743       0.846370984917457     
  0.856526647876168       0.787173624702835       0.797329287661551     
  0.807484950620264       0.817640613578974       0.827796276537686     
  0.837951939496399       0.848107602455113       0.858263265413825     
  0.868418928372536       0.878574591331247       0.888730254289960     
  0.814244389984625       0.824400052943338       0.834555715902050     
  0.844711378860763       0.854867041819473       0.865022704778189     
  0.875178367736898       0.885334030695612       0.895489693654325     
  0.905645356613038       0.915801019571751       0.835755391994624     
  0.845911054953336       0.856066717912048       0.866222380870760     
  0.876378043829473       0.886533706788185       0.896689369746896     
  0.906845032705610       0.917000695664322       0.927156358623035     
  0.937312021581747       0.851367389381085       0.861523052339798     
  0.871678715298510       0.881834378257222       0.891990041215935     
  0.902145704174650       0.912301367133358       0.922457030092070     
  0.932612693050784       0.942768356009495       0.952924018968208     
  0.860834171619068       0.870989834577781       0.881145497536495     
  0.891301160495206       0.901456823453918       0.911612486412627     
  0.921768149371342       0.931923812330055       0.942079475288765     
  0.952235138247478       0.962390801206190       0.864006441897501     
  0.874162104856212       0.884317767814925       0.894473430773637     
  0.904629093732349       0.914784756691062       0.924940419649773     
  0.935096082608488       0.945251745567201       0.955407408525910     
  0.965563071484627     
  1.660316899342888E-002  1.494285209408599E-002  1.328253519474311E-002
  1.162221829540022E-002  9.961901396057328E-003  8.301584496714441E-003
  6.641267597371552E-003  4.980950698028665E-003  3.320633798685776E-003
  1.660316899342887E-003  0.000000000000000E+000  1.660316899342888E-002
  1.494285209408599E-002  1.328253519474311E-002  1.162221829540022E-002
  9.961901396057328E-003  8.301584496714441E-003  6.641267597371552E-003
  4.980950698028665E-003  3.320633798685776E-003  1.660316899342887E-003
  0.000000000000000E+000  1.660316899342888E-002  1.494285209408599E-002
  1.328253519474311E-002  1.162221829540022E-002  9.961901396057328E-003
  8.301584496714441E-003  6.641267597371552E-003  4.980950698028665E-003
  3.320633798685776E-003  1.660316899342887E-003  0.000000000000000E+000
  1.660316899342888E-002  1.494285209408599E-002  1.328253519474311E-002
  1.162221829540022E-002  9.961901396057328E-003  8.301584496714441E-003
  6.641267597371552E-003  4.980950698028665E-003  3.320633798685776E-003
  1.660316899342887E-003  0.000000000000000E+000  1.660316899342888E-002
  1.494285209408599E-002  1.328253519474311E-002  1.162221829540022E-002
  9.961901396057328E-003  8.301584496714441E-003  6.641267597371552E-003
  4.980950698028665E-003  3.320633798685776E-003  1.660316899342887E-003
  0.000000000000000E+000  1.660316899342888E-002  1.494285209408599E-002
  1.328253519474311E-002  1.162221829540022E-002  9.961901396057328E-003
  8.301584496714441E-003  6.641267597371552E-003  4.980950698028665E-003
  3.320633798685776E-003  1.660316899342887E-003  0.000000000000000E+000
  1.660316899342888E-002  1.494285209408599E-002  1.328253519474311E-002
  1.162221829540022E-002  9.961901396057328E-003  8.301584496714441E-003
  6.641267597371552E-003  4.980950698028665E-003  3.320633798685776E-003
  1.660316899342887E-003  0.000000000000000E+000  1.660316899342888E-002
  1.494285209408599E-002  1.328253519474311E-002  1.162221829540022E-002
  9.961901396057328E-003  8.301584496714441E-003  6.641267597371552E-003
  4.980950698028665E-003  3.320633798685776E-003  1.660316899342887E-003
  0.000000000000000E+000  1.660316899342888E-002  1.494285209408599E-002
  1.328253519474311E-002  1.162221829540022E-002  9.961901396057328E-003
  8.301584496714441E-003  6.641267597371552E-003  4.980950698028665E-003
  3.320633798685776E-003  1.660316899342887E-003  0.000000000000000E+000
  1.660316899342888E-002  1.494285209408599E-002  1.328253519474311E-002
  1.162221829540022E-002  9.961901396057328E-003  8.301584496714441E-003
  6.641267597371552E-003  4.980950698028665E-003  3.320633798685776E-003
  1.660316899342887E-003  0.000000000000000E+000  1.660316899342888E-002
  1.494285209408599E-002  1.328253519474311E-002  1.162221829540022E-002
  9.961901396057328E-003  8.301584496714441E-003  6.641267597371552E-003
  4.980950698028665E-003  3.320633798685776E-003  1.660316899342887E-003
  0.000000000000000E+000  1.660316899342888E-002  1.494285209408599E-002
  1.328253519474311E-002  1.162221829540022E-002  9.961901396057328E-003
  8.301584496714441E-003  6.641267597371552E-003  4.980950698028665E-003
  3.320633798685776E-003  1.660316899342887E-003  0.000000000000000E+000
  1.660316899342888E-002  1.494285209408599E-002  1.328253519474311E-002
  1.162221829540022E-002  9.961901396057328E-003  8.301584496714441E-003
  6.641267597371552E-003  4.980950698028665E-003  3.320633798685776E-003
  1.660316899342887E-003  0.000000000000000E+000  1.660316899342888E-002
  1.494285209408599E-002  1.328253519474311E-002  1.162221829540022E-002
  9.961901396057328E-003  8.301584496714441E-003  6.641267597371552E-003
  4.980950698028665E-003  3.320633798685776E-003  1.660316899342887E-003
  0.000000000000000E+000  1.660316899342888E-002  1.494285209408599E-002
  1.328253519474311E-002  1.162221829540022E-002  9.961901396057328E-003
  8.301584496714441E-003  6.641267597371552E-003  4.980950698028665E-003
  3.320633798685776E-003  1.660316899342887E-003  0.000000000000000E+000
  1.660316899342888E-002  1.494285209408599E-002  1.328253519474311E-002
  1.162221829540022E-002  9.961901396057328E-003  8.301584496714441E-003
  6.641267597371552E-003  4.980950698028665E-003  3.320633798685776E-003
  1.660316899342887E-003  0.000000000000000E+000  1.660316899342888E-002
  1.494285209408599E-002  1.328253519474311E-002  1.162221829540022E-002
  9.961901396057328E-003  8.301584496714441E-003  6.641267597371552E-003
  4.980950698028665E-003  3.320633798685776E-003  1.660316899342887E-003
  0.000000000000000E+000  1.660316899342888E-002  1.494285209408599E-002
  1.328253519474311E-002  1.162221829540022E-002  9.961901396057328E-003
  8.301584496714441E-003  6.641267597371552E-003  4.980950698028665E-003
  3.320633798685776E-003  1.660316899342887E-003  0.000000000000000E+000
  1.660316899342888E-002  1.494285209408599E-002  1.328253519474311E-002
  1.162221829540022E-002  9.961901396057328E-003  8.301584496714441E-003
  6.641267597371552E-003  4.980950698028665E-003  3.320633798685776E-003
  1.660316899342887E-003  0.000000000000000E+000  1.660316899342888E-002
  1.494285209408599E-002  1.328253519474311E-002  1.162221829540022E-002
  9.961901396057328E-003  8.301584496714441E-003  6.641267597371552E-003
  4.980950698028665E-003  3.320633798685776E-003  1.660316899342887E-003
  0.000000000000000E+000  1.660316899342888E-002  1.494285209408599E-002
  1.328253519474311E-002  1.162221829540022E-002  9.961901396057328E-003
  8.301584496714441E-003  6.641267597371552E-003  4.980950698028665E-003
  3.320633798685776E-003  1.660316899342887E-003  0.000000000000000E+000
  1.660316899342888E-002  1.494285209408599E-002  1.328253519474311E-002
  1.162221829540022E-002  9.961901396057328E-003  8.301584496714441E-003
  6.641267597371552E-003  4.980950698028665E-003  3.320633798685776E-003
  1.660316899342887E-003  0.000000000000000E+000  1.660316899342888E-002
  1.494285209408599E-002  1.328253519474311E-002  1.162221829540022E-002
  9.961901396057328E-003  8.301584496714441E-003  6.641267597371552E-003
  4.980950698028665E-003  3.320633798685776E-003  1.660316899342887E-003
  0.000000000000000E+000  1.660316899342888E-002  1.494285209408599E-002
  1.328253519474311E-002  1.162221829540022E-002  9.961901396057328E-003
  8.301584496714441E-003  6.641267597371552E-003  4.980950698028665E-003
  3.320633798685776E-003  1.660316899342887E-003  0.000000000000000E+000
  1.660316899342888E-002  1.494285209408599E-002  1.328253519474311E-002
  1.162221829540022E-002  9.961901396057328E-003  8.301584496714441E-003
  6.641267597371552E-003  4.980950698028665E-003  3.320633798685776E-003
  1.660316899342887E-003  0.000000000000000E+000  1.660316899342888E-002
  1.494285209408599E-002  1.328253519474311E-002  1.162221829540022E-002
  9.961901396057328E-003  8.301584496714441E-003  6.641267597371552E-003
  4.980950698028665E-003  3.320633798685776E-003  1.660316899342887E-003
  0.000000000000000E+000
  4.286615140058975E-003  1.521949666149954E-002  2.918467373302341E-002
  4.581579648963884E-002  6.526532928413808E-002  8.817100004019351E-002
  0.115366621377442       0.146323018606112       0.179017921670873     
  0.210456114086749       7.879542592811263E-003  2.592175653051316E-002
  4.909523126357277E-002  7.669150381546380E-002  0.108875127399581     
  0.146557954169948       0.191072172197768       0.241907342060162     
  0.296137726689829       0.349277038422345       1.262424591667676E-002
  3.624441893312192E-002  6.658144422195032E-002  0.102696830087005     
  0.144654947461667       0.193200068053802       0.249453304119712     
  0.313388694756251       0.382456668936657       0.449706591196253     
  1.793850353877647E-002  4.507450409896274E-002  7.919953968427650E-002
  0.119554679989492       0.166059321840652       0.218879933620563     
  0.278272927895394       0.344348934818804       0.416208932514450     
  0.487005649751719       2.439650235450414E-002  5.369628472844296E-002
  8.871853956689156E-002  0.129089635251303       0.174594606873408     
  0.225154404289400       0.280936561967933       0.342308178312719     
  0.408701865071835       0.474050109067805       3.470223895323846E-002
  6.662352443230202E-002  0.101407133084230       0.139399262242335     
  0.180620941993503       0.225239019835101       0.273619838087755     
  0.325924407615846       0.381207280284033       0.435204295931023     
  5.220767472879398E-002  8.972257814804127E-002  0.126022610105868     
  0.162795008797851       0.200538365221684       0.239504028664820     
  0.279881646337093       0.321798219774390       0.365050492198982     
  0.407461002524498       7.873419991125412E-002  0.126584536765230     
  0.168308147024506       0.207524252100424       0.245388750059085     
  0.282353894791052       0.318595926865366       0.354129662470294     
  0.388576346426416       0.419690622841136       0.113717676827948     
  0.176335703094768       0.227034074984416       0.271861470323250     
  0.312809150234062       0.350637973931253       0.385544697023380     
  0.417315431007477       0.445202883012819       0.467129874063271     
  0.155057510538666       0.235504840435875       0.297374500320357     
  0.349573308706872       0.395152176831547       0.435377378463579     
  0.470712718650006       0.501134114464653       0.526148291222306     
  0.544225859480191       0.201465122221507       0.302189428244036     
  0.377057987815719       0.438235057617623       0.490037224104783     
  0.534405038638025       0.572253021020471       0.603906457850282     
  0.629154511126368       0.646701028247469       0.252162610874095     
  0.375328435241236       0.464883948614379       0.536557860371375     
  0.596075235445746       0.646125294221676       0.688092392147674     
  0.722618589899885       0.749689618409818       0.768071612544588     
  0.306124447405804       0.453438994458634       0.559037246368044     
  0.642412922117498       0.710768171109885       0.767563172458836     
  0.814643036029074       0.852938187317915       0.882595175707319     
  0.902388519925837       0.362383908436294       0.535043152782750     
  0.657612844776097       0.753479950792801       0.831365273215513     
  0.895514160418442       0.948229841745838       0.990721276315856     
   1.02328819720308        1.04471078489762       0.420337697028958     
  0.619155229280478       0.759275390597480       0.868077885763279     
  0.955832377568256        1.02758836988946        1.08612343533587     
   1.13293521894960        1.16848807181258        1.19158262278173     
  0.479973445069153       0.705704765786692       0.863842415636424     
  0.985855538320266        1.08360124758732        1.16296069214903     
   1.22722684775751        1.27823145191794        1.31663971622508     
   1.34131449743881       0.542668056214922       0.796748897017483     
  0.973719212180569        1.10930486527264        1.21705903720457     
   1.30378967818271        1.37339068696840        1.42812592946075     
   1.46896521511756        1.49493259465674       0.618320434219933     
  0.905389828837651        1.10317364500677        1.25291134982953     
   1.37048226031130        1.46397054970249        1.53808152499716     
   1.59565723006604        1.63811570838519        1.66482072778176     
  0.749296865720886        1.08167504015824        1.30337014171387     
   1.46797994320948        1.59538476160326        1.69537560062734     
   1.77372068899090        1.83401561839539        1.87821696370776     
   1.90602186215779       0.942261544886648        1.33438789441039     
   1.58323215218130        1.76176031338504        1.89605446322363     
   1.99924365778872        2.07894083739935        2.13976505899671     
   2.18429857740610        2.21270163014966        1.04009879751651     
   1.46090395456619        1.71851842114157        1.89635654674370     
   2.02632686631161        2.12396255442909        2.19792513836579     
   2.25329939812358        2.29291147321047        2.31749667473625     
   1.01053401794961        1.40475779691881        1.63800544665349     
   1.79439464030697        1.90619900513847        1.98886585288014     
   2.05065304910549        2.09615530857199        2.12772999308306     
   2.14601248941897       0.887018569804698        1.20731150533713     
   1.38980504607334        1.51028427473383        1.59582888603579     
   1.65886584639591        1.70587675716095        1.74042365953595     
   1.76437858246741        1.77837671786892       0.682524709535246     
  0.900123212275266        1.02247251875862        1.10346323993417     
   1.16119158736177        1.20389158041628        1.23588807627193     
   1.25963775366445        1.27675286828384        1.28951769580076     
  0.415724840910003       0.537646893212040       0.606877585915238     
  0.652982927632530       0.685971078562664       0.710435275217845     
  0.728799507212371       0.742418189798449       0.752045425244078     
  0.757954830888452     
  0.000000000000000E+000  0.000000000000000E+000  0.000000000000000E+000
  0.000000000000000E+000  0.000000000000000E+000  0.000000000000000E+000
  0.000000000000000E+000  0.000000000000000E+000  0.000000000000000E+000
  0.000000000000000E+000  0.000000000000000E+000  0.000000000000000E+000
  0.000000000000000E+000  0.000000000000000E+000  0.000000000000000E+000
  0.000000000000000E+000  0.000000000000000E+000  0.000000000000000E+000
  0.000000000000000E+000  0.000000000000000E+000  0.000000000000000E+000
  0.000000000000000E+000  0.000000000000000E+000  0.000000000000000E+000
  0.000000000000000E+000  0.000000000000000E+000  0.000000000000000E+000
  0.000000000000000E+000  0.000000000000000E+000  0.000000000000000E+000
  0.000000000000000E+000  0.000000000000000E+000  0.000000000000000E+000
  0.000000000000000E+000  0.000000000000000E+000  0.000000000000000E+000
  0.000000000000000E+000  0.000000000000000E+000  0.000000000000000E+000
  0.000000000000000E+000  0.000000000000000E+000  0.000000000000000E+000
  0.000000000000000E+000  0.000000000000000E+000  0.000000000000000E+000
  0.000000000000000E+000  0.000000000000000E+000  0.000000000000000E+000
  0.000000000000000E+000  0.000000000000000E+000  0.000000000000000E+000
  0.000000000000000E+000  0.000000000000000E+000  0.000000000000000E+000
  0.000000000000000E+000  0.000000000000000E+000  0.000000000000000E+000
  0.000000000000000E+000  0.000000000000000E+000  0.000000000000000E+000
  0.000000000000000E+000  0.000000000000000E+000  0.000000000000000E+000
  0.000000000000000E+000  0.000000000000000E+000  0.000000000000000E+000
  0.000000000000000E+000  0.000000000000000E+000  0.000000000000000E+000
  0.000000000000000E+000  0.000000000000000E+000  0.000000000000000E+000
  0.000000000000000E+000  0.000000000000000E+000  0.000000000000000E+000
  0.000000000000000E+000  0.000000000000000E+000  0.000000000000000E+000
  0.000000000000000E+000  0.000000000000000E+000  0.000000000000000E+000
  0.000000000000000E+000  0.000000000000000E+000  0.000000000000000E+000
  0.000000000000000E+000  0.000000000000000E+000  0.000000000000000E+000
  0.000000000000000E+000  0.000000000000000E+000  0.000000000000000E+000
  0.000000000000000E+000  0.000000000000000E+000  0.000000000000000E+000
  0.000000000000000E+000  0.000000000000000E+000  0.000000000000000E+000
  0.000000000000000E+000  0.000000000000000E+000  0.000000000000000E+000
  0.000000000000000E+000  0.000000000000000E+000  0.000000000000000E+000
  0.000000000000000E+000  0.000000000000000E+000  0.000000000000000E+000
  0.000000000000000E+000  0.000000000000000E+000  0.000000000000000E+000
  0.000000000000000E+000  0.000000000000000E+000  0.000000000000000E+000
  0.000000000000000E+000  0.000000000000000E+000  0.000000000000000E+000
  0.000000000000000E+000  0.000000000000000E+000  0.000000000000000E+000