 Title = "Wing and Wake"
 VARIABLES = "X" "Y" "Z" "GAM" "skew"
 Zone I=   11 J=   26 K=1  T="Blade"
 DATAPACKING=BLOCK
 VARLOCATION=([4]=CELLCENTERED,[5]=CELLCENTERED)
 -0.268717954101193      -0.255860400510624      -0.243002846920056     
 -0.230145293329488      -0.217287739738919      -0.204430186148350     
 -0.191572632557782      -0.178715078967213      -0.165857525376645     
 -0.152999971786076      -0.140142418195508      -0.271479953259835     
 -0.258622399669267      -0.245764846078699      -0.232907292488130     
 -0.220049738897562      -0.207192185306994      -0.194334631716425     
 -0.181477078125857      -0.168619524535288      -0.155761970944720     
 -0.142904417354151      -0.279722392359094      -0.266864838768526     
 -0.254007285177958      -0.241149731587389      -0.228292177996820     
 -0.215434624406252      -0.202577070815684      -0.189719517225116     
 -0.176861963634547      -0.164004410043979      -0.151146856453410     
 -0.293315283210580      -0.280457729620011      -0.267600176029444     
 -0.254742622438875      -0.241885068848306      -0.229027515257738     
 -0.216169961667169      -0.203312408076600      -0.190454854486032     
 -0.177597300895464      -0.164739747304895      -0.312044257805564     
 -0.299186704214995      -0.286329150624426      -0.273471597033858     
 -0.260614043443290      -0.247756489852721      -0.234898936262153     
 -0.222041382671585      -0.209183829081016      -0.196326275490448     
 -0.183468721899879      -0.335613949026537      -0.322756395435968     
 -0.309898841845399      -0.297041288254831      -0.284183734664263     
 -0.271326181073694      -0.258468627483126      -0.245611073892558     
 -0.232753520301989      -0.219895966711420      -0.207038413120852     
 -0.363652648763092      -0.350795095172523      -0.337937541581955     
 -0.325079987991387      -0.312222434400818      -0.299364880810250     
 -0.286507327219681      -0.273649773629113      -0.260792220038544     
 -0.247934666447976      -0.235077112857407      -0.395718169970878     
 -0.382860616380310      -0.370003062789742      -0.357145509199173     
 -0.344287955608605      -0.331430402018036      -0.318572848427468     
 -0.305715294836900      -0.292857741246330      -0.280000187655762     
 -0.267142634065194      -0.431304820225433      -0.418447266634865     
 -0.405589713044297      -0.392732159453729      -0.379874605863160     
 -0.367017052272591      -0.354159498682023      -0.341301945091454     
 -0.328444391500886      -0.315586837910318      -0.302729284319750     
 -0.469851376793810      -0.456993823203241      -0.444136269612672     
 -0.431278716022104      -0.418421162431536      -0.405563608840968     
 -0.392706055250399      -0.379848501659831      -0.366990948069262     
 -0.354133394478694      -0.341275840888125      -0.510749937452327     
 -0.497892383861759      -0.485034830271190      -0.472177276680622     
 -0.459319723090052      -0.446462169499484      -0.433604615908917     
 -0.420747062318346      -0.407889508727779      -0.395031955137211     
 -0.382174401546643      -0.553355507467784      -0.540497953877216     
 -0.527640400286646      -0.514782846696078      -0.501925293105510     
 -0.489067739514941      -0.476210185924373      -0.463352632333805     
 -0.450495078743236      -0.437637525152668      -0.424779971562100     
 -0.596996171549702      -0.584138617959136      -0.571281064368566     
 -0.558423510777998      -0.545565957187428      -0.532708403596862     
 -0.519850850006294      -0.506993296415724      -0.494135742825155     
 -0.481278189234587      -0.468420635644019      -0.640983690355844     
 -0.628126136765276      -0.615268583174708      -0.602411029584139     
 -0.589553475993570      -0.576695922403001      -0.563838368812433     
 -0.550980815221865      -0.538123261631297      -0.525265708040728     
 -0.512408154450160      -0.684624354437764      -0.671766800847195     
 -0.658909247256626      -0.646051693666059      -0.633194140075490     
 -0.620336586484921      -0.607479032894352      -0.594621479303785     
 -0.581763925713216      -0.568906372122647      -0.556048818532080     
 -0.727229924453219      -0.714372370862651      -0.701514817272084     
 -0.688657263681516      -0.675799710090946      -0.662942156500377     
 -0.650084602909809      -0.637227049319242      -0.624369495728673     
 -0.611511942138103      -0.598654388547536      -0.768128485111737     
 -0.755270931521170      -0.742413377930599      -0.729555824340032     
 -0.716698270749464      -0.703840717158896      -0.690983163568326     
 -0.678125609977758      -0.665268056387191      -0.652410502796621     
 -0.639552949206054      -0.806675041680113      -0.793817488089545     
 -0.780959934498976      -0.768102380908408      -0.755244827317839     
 -0.742387273727272      -0.729529720136702      -0.716672166546134     
 -0.703814612955565      -0.690957059364998      -0.678099505774429     
 -0.842261691934668      -0.829404138344100      -0.816546584753532     
 -0.803689031162964      -0.790831477572395      -0.777973923981827     
 -0.765116370391258      -0.752258816800690      -0.739401263210121     
 -0.726543709619553      -0.713686156028985      -0.874327213142454     
 -0.861469659551888      -0.848612105961317      -0.835754552370750     
 -0.822896998780182      -0.810039445189613      -0.797181891599045     
 -0.784324338008476      -0.771466784417907      -0.758609230827339     
 -0.745751677236770      -0.902365912879009      -0.889508359288442     
 -0.876650805697875      -0.863793252107305      -0.850935698516736     
 -0.838078144926168      -0.825220591335600      -0.812363037745032     
 -0.799505484154462      -0.786647930563894      -0.773790376973325     
 -0.925935604099983      -0.913078050509416      -0.900220496918845     
 -0.887362943328278      -0.874505389737708      -0.861647836147141     
 -0.848790282556572      -0.835932728966002      -0.823075175375437     
 -0.810217621784868      -0.797360068194299      -0.944664578694969     
 -0.931807025104399      -0.918949471513830      -0.906091917923260     
 -0.893234364332692      -0.880376810742126      -0.867519257151557     
 -0.854661703560988      -0.841804149970418      -0.828946596379852     
 -0.816089042789282      -0.958257469546454      -0.945399915955884     
 -0.932542362365317      -0.919684808774747      -0.906827255184180     
 -0.893969701593611      -0.881112148003042      -0.868254594412474     
 -0.855397040821906      -0.842539487231337      -0.829681933640767     
 -0.966499908645710      -0.953642355055143      -0.940784801464574     
 -0.927927247874006      -0.915069694283437      -0.902212140692867     
 -0.889354587102300      -0.876497033511732      -0.863639479921162     
 -0.850781926330595      -0.837924372740027      -0.969261907804353     
 -0.956404354213784      -0.943546800623217      -0.930689247032648     
 -0.917831693442080      -0.904974139851513      -0.892116586260943     
 -0.879259032670376      -0.866401479079808      -0.853543925489237     
 -0.840686371898671     
 -1.048873084096735E-002  3.469390933089634E-003  1.742751270714693E-002
  3.138563448120452E-002  4.534375625526183E-002  5.930187802931915E-002
  7.325999980337658E-002  8.721812157743390E-002  0.101176243351491     
  0.115134365125548       0.129092486899606      -7.944509435379582E-003
  6.013612338677753E-003  1.997173411273477E-002  3.392985588679222E-002
  4.788797766084976E-002  6.184609943490695E-002  7.580422120896435E-002
  8.976234298302148E-002  0.103720464757079       0.117678586531136     
  0.131636708305194      -3.519691100268885E-004  1.360615266403071E-002
  2.756427443808772E-002  4.152239621214528E-002  5.548051798620247E-002
  6.943863976026005E-002  8.339676153431735E-002  9.735488330837459E-002
  0.111313005082432       0.125271126856489       0.139229248630546     
  1.216915123859722E-002  2.612727301265418E-002  4.008539478671195E-002
  5.404351656076908E-002  6.800163833482618E-002  8.195976010888364E-002
  9.591788188294111E-002  0.109876003656998       0.123834125431056     
  0.137792247205113       0.151750368979170       2.942138606283911E-002
  4.337950783689596E-002  5.733762961095349E-002  7.129575138501107E-002
  8.525387315906835E-002  9.921199493312571E-002  0.113170116707183     
  0.127128238481240       0.141086360255298       0.155044482029355     
  0.169002603803412       5.113265731353519E-002  6.509077908759232E-002
  7.904890086164953E-002  9.300702263570695E-002  0.106965144409764     
  0.120923266183822       0.134881387957879       0.148839509731936     
  0.162797631505994       0.176755753280051       0.190713875054109     
  7.696056527337727E-002  9.091868704743440E-002  0.104876808821492     
  0.118834930595549       0.132793052369607       0.146751174143664     
  0.160709295917721       0.174667417691779       0.188625539465836     
  0.202583661239893       0.216541783013950       0.106497788404995     
  0.120455910179052       0.134414031953109       0.148372153727167     
  0.162330275501224       0.176288397275282       0.190246519049339     
  0.204204640823396       0.218162762597453       0.232120884371511     
  0.246079006145568       0.139278507054920       0.153236628828977     
  0.167194750603034       0.181152872377092       0.195110994151149     
  0.209069115925206       0.223027237699264       0.236985359473320     
  0.250943481247378       0.264901603021436       0.278859724795493     
  0.174785749707790       0.188743871481848       0.202701993255905     
  0.216660115029962       0.230618236804020       0.244576358578077     
  0.258534480352134       0.272492602126191       0.286450723900249     
  0.300408845674307       0.314366967448363       0.212459545935973     
  0.226417667710030       0.240375789484088       0.254333911258145     
  0.268292033032202       0.282250154806259       0.296208276580317     
  0.310166398354374       0.324124520128432       0.338082641902489     
  0.352040763676546       0.251705757467713       0.265663879241771     
  0.279622001015829       0.293580122789885       0.307538244563943     
  0.321496366338001       0.335454488112058       0.349412609886115     
  0.363370731660172       0.377328853434230       0.391286975208287     
  0.291905448102607       0.305863569876665       0.319821691650721     
  0.333779813424780       0.347737935198836       0.361696056972894     
  0.375654178746952       0.389612300521008       0.403570422295066     
  0.417528544069123       0.431486665843181       0.332424644705209     
  0.346382766479267       0.360340888253325       0.374299010027382     
  0.388257131801438       0.402215253575496       0.416173375349554     
  0.430131497123612       0.444089618897668       0.458047740671726     
  0.472005862445783       0.372624335340103       0.386582457114160     
  0.400540578888217       0.414498700662275       0.428456822436332     
  0.442414944210389       0.456373065984446       0.470331187758504     
  0.484289309532562       0.498247431306618       0.512205553080677     
  0.411870546871844       0.425828668645902       0.439786790419959     
  0.453744912194017       0.467703033968073       0.481661155742130     
  0.495619277516187       0.509577399290246       0.523535521064303     
  0.537493642838360       0.551451764612417       0.449544343100026     
  0.463502464874084       0.477460586648140       0.491418708422199     
  0.505376830196256       0.519334951970313       0.533293073744371     
  0.547251195518428       0.561209317292484       0.575167439066543     
  0.589125560840600       0.485051585752897       0.499009707526955     
  0.512967829301012       0.526925951075070       0.540884072849126     
  0.554842194623184       0.568800316397241       0.582758438171299     
  0.596716559945356       0.610674681719414       0.624632803493470     
  0.517832304402821       0.531790426176879       0.545748547950937     
  0.559706669724995       0.573664791499050       0.587622913273108     
  0.601581035047166       0.615539156821224       0.629497278595282     
  0.643455400369338       0.657413522143395       0.547369527534439     
  0.561327649308497       0.575285771082554       0.589243892856611     
  0.603202014630669       0.617160136404727       0.631118258178784     
  0.645076379952841       0.659034501726897       0.672992623500955     
  0.686950745275012       0.573197435494280       0.587155557268339     
  0.601113679042396       0.615071800816453       0.629029922590509     
  0.642988044364568       0.656946166138626       0.670904287912683     
  0.684862409686739       0.698820531460797       0.712778653234854     
  0.594908706744976       0.608866828519035       0.622824950293092     
  0.636783072067149       0.650741193841205       0.664699315615265     
  0.678657437389321       0.692615559163379       0.706573680937436     
  0.720531802711494       0.734489924485552       0.612160941569220     
  0.626119063343277       0.640077185117334       0.654035306891392     
  0.667993428665449       0.681951550439505       0.695909672213563     
  0.709867793987620       0.723825915761677       0.737784037535736     
  0.751742159309793       0.624682061917844       0.638640183691902     
  0.652598305465958       0.666556427240016       0.680514549014073     
  0.694472670788133       0.708430792562186       0.722388914336245     
  0.736347036110302       0.750305157884359       0.764263279658417     
  0.632274602243196       0.646232724017254       0.660190845791311     
  0.674148967565368       0.688107089339426       0.702065211113480     
  0.716023332887539       0.729981454661597       0.743939576435653     
  0.757897698209711       0.771855819983769       0.634818823648784     
  0.648776945422841       0.662735067196898       0.676693188970956     
  0.690651310745012       0.704609432519070       0.718567554293127     
  0.732525676067187       0.746483797841244       0.760441919615298     
  0.774400041389359     
  1.660316899342888E-002  1.494285209408599E-002  1.328253519474311E-002
  1.162221829540022E-002  9.961901396057328E-003  8.301584496714441E-003
  6.641267597371552E-003  4.980950698028665E-003  3.320633798685776E-003
  1.660316899342887E-003  0.000000000000000E+000  1.660316899342888E-002
  1.494285209408599E-002  1.328253519474311E-002  1.162221829540022E-002
  9.961901396057328E-003  8.301584496714441E-003  6.641267597371552E-003
  4.980950698028665E-003  3.320633798685776E-003  1.660316899342887E-003
  0.000000000000000E+000  1.660316899342888E-002  1.494285209408599E-002
  1.328253519474311E-002  1.162221829540022E-002  9.961901396057328E-003
  8.301584496714441E-003  6.641267597371552E-003  4.980950698028665E-003
  3.320633798685776E-003  1.660316899342887E-003  0.000000000000000E+000
  1.660316899342888E-002  1.494285209408599E-002  1.328253519474311E-002
  1.162221829540022E-002  9.961901396057328E-003  8.301584496714441E-003
  6.641267597371552E-003  4.980950698028665E-003  3.320633798685776E-003
  1.660316899342887E-003  0.000000000000000E+000  1.660316899342888E-002
  1.494285209408599E-002  1.328253519474311E-002  1.162221829540022E-002
  9.961901396057328E-003  8.301584496714441E-003  6.641267597371552E-003
  4.980950698028665E-003  3.320633798685776E-003  1.660316899342887E-003
  0.000000000000000E+000  1.660316899342888E-002  1.494285209408599E-002
  1.328253519474311E-002  1.162221829540022E-002  9.961901396057328E-003
  8.301584496714441E-003  6.641267597371552E-003  4.980950698028665E-003
  3.320633798685776E-003  1.660316899342887E-003  0.000000000000000E+000
  1.660316899342888E-002  1.494285209408599E-002  1.328253519474311E-002
  1.162221829540022E-002  9.961901396057328E-003  8.301584496714441E-003
  6.641267597371552E-003  4.980950698028665E-003  3.320633798685776E-003
  1.660316899342887E-003  0.000000000000000E+000  1.660316899342888E-002
  1.494285209408599E-002  1.328253519474311E-002  1.162221829540022E-002
  9.961901396057328E-003  8.301584496714441E-003  6.641267597371552E-003
  4.980950698028665E-003  3.320633798685776E-003  1.660316899342887E-003
  0.000000000000000E+000  1.660316899342888E-002  1.494285209408599E-002
  1.328253519474311E-002  1.162221829540022E-002  9.961901396057328E-003
  8.301584496714441E-003  6.641267597371552E-003  4.980950698028665E-003
  3.320633798685776E-003  1.660316899342887E-003  0.000000000000000E+000
  1.660316899342888E-002  1.494285209408599E-002  1.328253519474311E-002
  1.162221829540022E-002  9.961901396057328E-003  8.301584496714441E-003
  6.641267597371552E-003  4.980950698028665E-003  3.320633798685776E-003
  1.660316899342887E-003  0.000000000000000E+000  1.660316899342888E-002
  1.494285209408599E-002  1.328253519474311E-002  1.162221829540022E-002
  9.961901396057328E-003  8.301584496714441E-003  6.641267597371552E-003
  4.980950698028665E-003  3.320633798685776E-003  1.660316899342887E-003
  0.000000000000000E+000  1.660316899342888E-002  1.494285209408599E-002
  1.328253519474311E-002  1.162221829540022E-002  9.961901396057328E-003
  8.301584496714441E-003  6.641267597371552E-003  4.980950698028665E-003
  3.320633798685776E-003  1.660316899342887E-003  0.000000000000000E+000
  1.660316899342888E-002  1.494285209408599E-002  1.328253519474311E-002
  1.162221829540022E-002  9.961901396057328E-003  8.301584496714441E-003
  6.641267597371552E-003  4.980950698028665E-003  3.320633798685776E-003
  1.660316899342887E-003  0.000000000000000E+000  1.660316899342888E-002
  1.494285209408599E-002  1.328253519474311E-002  1.162221829540022E-002
  9.961901396057328E-003  8.301584496714441E-003  6.641267597371552E-003
  4.980950698028665E-003  3.320633798685776E-003  1.660316899342887E-003
  0.000000000000000E+000  1.660316899342888E-002  1.494285209408599E-002
  1.328253519474311E-002  1.162221829540022E-002  9.961901396057328E-003
  8.301584496714441E-003  6.641267597371552E-003  4.980950698028665E-003
  3.320633798685776E-003  1.660316899342887E-003  0.000000000000000E+000
  1.660316899342888E-002  1.494285209408599E-002  1.328253519474311E-002
  1.162221829540022E-002  9.961901396057328E-003  8.301584496714441E-003
  6.641267597371552E-003  4.980950698028665E-003  3.320633798685776E-003
  1.660316899342887E-003  0.000000000000000E+000  1.660316899342888E-002
  1.494285209408599E-002  1.328253519474311E-002  1.162221829540022E-002
  9.961901396057328E-003  8.301584496714441E-003  6.641267597371552E-003
  4.980950698028665E-003  3.320633798685776E-003  1.660316899342887E-003
  0.000000000000000E+000  1.660316899342888E-002  1.494285209408599E-002
  1.328253519474311E-002  1.162221829540022E-002  9.961901396057328E-003
  8.301584496714441E-003  6.641267597371552E-003  4.980950698028665E-003
  3.320633798685776E-003  1.660316899342887E-003  0.000000000000000E+000
  1.660316899342888E-002  1.494285209408599E-002  1.328253519474311E-002
  1.162221829540022E-002  9.961901396057328E-003  8.301584496714441E-003
  6.641267597371552E-003  4.980950698028665E-003  3.320633798685776E-003
  1.660316899342887E-003  0.000000000000000E+000  1.660316899342888E-002
  1.494285209408599E-002  1.328253519474311E-002  1.162221829540022E-002
  9.961901396057328E-003  8.301584496714441E-003  6.641267597371552E-003
  4.980950698028665E-003  3.320633798685776E-003  1.660316899342887E-003
  0.000000000000000E+000  1.660316899342888E-002  1.494285209408599E-002
  1.328253519474311E-002  1.162221829540022E-002  9.961901396057328E-003
  8.301584496714441E-003  6.641267597371552E-003  4.980950698028665E-003
  3.320633798685776E-003  1.660316899342887E-003  0.000000000000000E+000
  1.660316899342888E-002  1.494285209408599E-002  1.328253519474311E-002
  1.162221829540022E-002  9.961901396057328E-003  8.301584496714441E-003
  6.641267597371552E-003  4.980950698028665E-003  3.320633798685776E-003
  1.660316899342887E-003  0.000000000000000E+000  1.660316899342888E-002
  1.494285209408599E-002  1.328253519474311E-002  1.162221829540022E-002
  9.961901396057328E-003  8.301584496714441E-003  6.641267597371552E-003
  4.980950698028665E-003  3.320633798685776E-003  1.660316899342887E-003
  0.000000000000000E+000  1.660316899342888E-002  1.494285209408599E-002
  1.328253519474311E-002  1.162221829540022E-002  9.961901396057328E-003
  8.301584496714441E-003  6.641267597371552E-003  4.980950698028665E-003
  3.320633798685776E-003  1.660316899342887E-003  0.000000000000000E+000
  1.660316899342888E-002  1.494285209408599E-002  1.328253519474311E-002
  1.162221829540022E-002  9.961901396057328E-003  8.301584496714441E-003
  6.641267597371552E-003  4.980950698028665E-003  3.320633798685776E-003
  1.660316899342887E-003  0.000000000000000E+000  1.660316899342888E-002
  1.494285209408599E-002  1.328253519474311E-002  1.162221829540022E-002
  9.961901396057328E-003  8.301584496714441E-003  6.641267597371552E-003
  4.980950698028665E-003  3.320633798685776E-003  1.660316899342887E-003
  0.000000000000000E+000
 -2.306178063409555E-003  3.613767296474538E-003  1.188494010923779E-002
  2.204133133826244E-002  3.429454057840387E-002  4.897471599362450E-002
  6.605179398881340E-002  8.501690875282825E-002  0.104762431657369     
  0.123481528750682      -2.499954080691087E-003  7.167081425856699E-003
  2.075255491907254E-002  3.735524833828476E-002  5.717549719385433E-002
  8.065828118266519E-002  0.107886235177217       0.138328677236142     
  0.170298228070032       0.201177686782385       1.035079518140577E-003
  1.391624033903000E-002  3.154428631304151E-002  5.271881005191210E-002
  7.734642751039504E-002  0.105649081947767       0.137768413135241     
  0.173475663952685       0.211090353122631       0.246887345883898     
  9.051716925877645E-003  2.547026156883600E-002  4.585459977642639E-002
  6.929201959642321E-002  9.544804729911106E-002  0.124199367669657     
  0.155406406419341       0.188468371075247       0.221821946079275     
  0.252547296419898       2.204583429400915E-002  4.339644680486956E-002
  6.638251616107373E-002  9.090040170688191E-002  0.116739678823122     
  0.143645420423780       0.171164588319172       0.198384588744697     
  0.223932775822403       0.245740743296995       4.053334788783297E-002
  6.907388673676436E-002  9.582439102287064E-002  0.121936461856691     
  0.147606435593385       0.172719748329265       0.196911706683403     
  0.219529045747577       0.239633513186496       0.255640272250521     
  6.485578454105990E-002  0.103419565235541       0.136027397753381     
  0.165538627915214       0.192797621183483       0.218052307902921     
  0.241235045496693       0.262045436139742       0.279915416484093     
  0.293519300629888       9.511173486365099E-002  0.146723470875471     
  0.187585849731036       0.222696439471892       0.253708595260601     
  0.281290562681707       0.305677321765673       0.326836045224038     
  0.344432229438731       0.357326772472205       0.131114180729089     
  0.198664493708029       0.249998008221469       0.292638084527180     
  0.329208315060119       0.360874700550429       0.388181228673177     
  0.411297930550773       0.430015889623717       0.443271084414114     
  0.172285724734094       0.258325682352104       0.322037674546503     
  0.373807734829297       0.417357036998124       0.454395834903002     
  0.485781944066658       0.511884520725470       0.532597366048742     
  0.546861584114615       0.217927202898349       0.324635545827860     
  0.402302442890314       0.464452598191204       0.516011233191200     
  0.559303159096875       0.595538266240350       0.625289340920849     
  0.648551802699881       0.664244976145766       0.267287631018996     
  0.396428628877794       0.489287391968927       0.562776859012523     
  0.623125096879297       0.673315167421792       0.714936695432268     
  0.748788996643226       0.774977365615206       0.792380056170021     
  0.319572712934516       0.472513533489383       0.581512327614581     
  0.667058135007971       0.736759302320535       0.794301988396822     
  0.841680126924211       0.879930083402021       0.909274776659275     
  0.928557534096423       0.374096059555426       0.551850958509652     
  0.677664036320996       0.775753407642617       0.855171133963964     
  0.920340458044105       0.973677127237642        1.01646789867547     
   1.04906772723867        1.07030100735583       0.430533355985297     
  0.633906499980873       0.777021245896695       0.887960388257932     
  0.977269990532311        1.05014606147062        1.10945773636237     
   1.15676676539203        1.19258179588881        1.21573151057499     
  0.489171444418679       0.719053889328687       0.879952025077273     
   1.00396515660302        1.10319979094258        1.18367120874412     
   1.24875677378217        1.30034674845139        1.33914800043268     
   1.36404583847443       0.551781206027968       0.809832533652812     
  0.989358761791787        1.12674869342229        1.23582462319404     
   1.32353971384439        1.39387798452240        1.44916361821601     
   1.49040848162396        1.51666069694690       0.628338210859867     
  0.919259749037342        1.11926098612532        1.27042075608085     
   1.38895610191729        1.48312491368867        1.55773029514506     
   1.61567249559710        1.65840698774303        1.68532177767599     
  0.756390966139821        1.09161681540102        1.31476678108018     
   1.48000396030568        1.60763414129380        1.70767915699161     
   1.78599603640933        1.84621052013554        1.89029372533837     
   1.91797099285708       0.935666583110264        1.32646546715135     
   1.57467288271473        1.75249882699996        1.88623175738470     
   1.98893905677888        2.06818356322154        2.12854841754112     
   2.17259011577912        2.20048237815520        1.02263803821204     
   1.43806067169297        1.69296356733586        1.86898837446176     
   1.99763860787816        2.09429701927111        2.16750052171584     
   2.22223448663321        2.26125103170678        2.28524944762424     
  0.990279666966531        1.37762643892357        1.60729965460914     
   1.76149544711152        1.87182239508301        1.95343926424998     
   2.01444212615926        2.05932124517575        2.09036394878809     
   2.10816576247755       0.868690742799048        1.18288144329832     
   1.36221042723508        1.48076437172394        1.56502127477355     
   1.62714108712888        1.67346490829914        1.70747092774615     
   1.73097823631697        1.74459563683204       0.668442990178139     
  0.881799044983866        1.00194306957651        1.08157684639029     
   1.13839013022395        1.18043365424956        1.21193482977634     
   1.23529185153131        1.25207553153460        1.26451843623694     
  0.407173022473475       0.526708216372383       0.594679983068001     
  0.640003322460400       0.672460790994102       0.696542495100293     
  0.714617359578966       0.728007324875207       0.737446103895918     
  0.743197979445828     
  0.000000000000000E+000  0.000000000000000E+000  0.000000000000000E+000
  0.000000000000000E+000  0.000000000000000E+000  0.000000000000000E+000
  0.000000000000000E+000  0.000000000000000E+000  0.000000000000000E+000
  0.000000000000000E+000  0.000000000000000E+000  0.000000000000000E+000
  0.000000000000000E+000  0.000000000000000E+000  0.000000000000000E+000
  0.000000000000000E+000  0.000000000000000E+000  0.000000000000000E+000
  0.000000000000000E+000  0.000000000000000E+000  0.000000000000000E+000
  0.000000000000000E+000  0.000000000000000E+000  0.000000000000000E+000
  0.000000000000000E+000  0.000000000000000E+000  0.000000000000000E+000
  0.000000000000000E+000  0.000000000000000E+000  0.000000000000000E+000
  0.000000000000000E+000  0.000000000000000E+000  0.000000000000000E+000
  0.000000000000000E+000  0.000000000000000E+000  0.000000000000000E+000
  0.000000000000000E+000  0.000000000000000E+000  0.000000000000000E+000
  0.000000000000000E+000  0.000000000000000E+000  0.000000000000000E+000
  0.000000000000000E+000  0.000000000000000E+000  0.000000000000000E+000
  0.000000000000000E+000  0.000000000000000E+000  0.000000000000000E+000
  0.000000000000000E+000  0.000000000000000E+000  0.000000000000000E+000
  0.000000000000000E+000  0.000000000000000E+000  0.000000000000000E+000
  0.000000000000000E+000  0.000000000000000E+000  0.000000000000000E+000
  0.000000000000000E+000  0.000000000000000E+000  0.000000000000000E+000
  0.000000000000000E+000  0.000000000000000E+000  0.000000000000000E+000
  0.000000000000000E+000  0.000000000000000E+000  0.000000000000000E+000
  0.000000000000000E+000  0.000000000000000E+000  0.000000000000000E+000
  0.000000000000000E+000  0.000000000000000E+000  0.000000000000000E+000
  0.000000000000000E+000  0.000000000000000E+000  0.000000000000000E+000
  0.000000000000000E+000  0.000000000000000E+000  0.000000000000000E+000
  0.000000000000000E+000  0.000000000000000E+000  0.000000000000000E+000
  0.000000000000000E+000  0.000000000000000E+000  0.000000000000000E+000
  0.000000000000000E+000  0.000000000000000E+000  0.000000000000000E+000
  0.000000000000000E+000  0.000000000000000E+000  0.000000000000000E+000
  0.000000000000000E+000  0.000000000000000E+000  0.000000000000000E+000
  0.000000000000000E+000  0.000000000000000E+000  0.000000000000000E+000
  0.000000000000000E+000  0.000000000000000E+000  0.000000000000000E+000
  0.000000000000000E+000  0.000000000000000E+000  0.000000000000000E+000
  0.000000000000000E+000  0.000000000000000E+000  0.000000000000000E+000
  0.000000000000000E+000  0.000000000000000E+000  0.000000000000000E+000
  0.000000000000000E+000  0.000000000000000E+000  0.000000000000000E+000
  0.000000000000000E+000  0.000000000000000E+000  0.000000000000000E+000
  0.000000000000000E+000  0.000000000000000E+000  0.000000000000000E+000