 Title = "Wing and Wake"
 VARIABLES = "X" "Y" "Z" "GAM" "skew"
 Zone I=   11 J=   26 K=1  T="Blade"
 DATAPACKING=BLOCK
 VARLOCATION=([4]=CELLCENTERED,[5]=CELLCENTERED)
  0.267785360491355       0.253214560899091       0.238643761306827     
  0.224072961714563       0.209502162122299       0.194931362530035     
  0.180360562937771       0.165789763345506       0.151218963753242     
  0.136648164160978       0.122077364568714       0.270191324242871     
  0.255620524650607       0.241049725058343       0.226478925466079     
  0.211908125873815       0.197337326281550       0.182766526689286     
  0.168195727097022       0.153624927504758       0.139054127912494     
  0.124483328320230       0.277371272011804       0.262800472419540     
  0.248229672827276       0.233658873235011       0.219088073642747     
  0.204517274050483       0.189946474458219       0.175375674865955     
  0.160804875273691       0.146234075681426       0.131663276089162     
  0.289211971732744       0.274641172140480       0.260070372548216     
  0.245499572955952       0.230928773363688       0.216357973771423     
  0.201787174179159       0.187216374586895       0.172645574994631     
  0.158074775402367       0.143503975810103       0.305526688497802     
  0.290955888905538       0.276385089313274       0.261814289721010     
  0.247243490128746       0.232672690536482       0.218101890944218     
  0.203531091351953       0.188960291759689       0.174389492167425     
  0.159818692575161       0.326058129477654       0.311487329885389     
  0.296916530293125       0.282345730700861       0.267774931108597     
  0.253204131516333       0.238633331924069       0.224062532331805     
  0.209491732739541       0.194920933147276       0.180350133555012     
  0.350482501583157       0.335911701990893       0.321340902398629     
  0.306770102806365       0.292199303214101       0.277628503621837     
  0.263057704029572       0.248486904437308       0.233916104845044     
  0.219345305252780       0.204774505660516       0.378414617875797     
  0.363843818283533       0.349273018691269       0.334702219099005     
  0.320131419506741       0.305560619914476       0.290989820322213     
  0.276419020729948       0.261848221137684       0.247277421545420     
  0.232706621953156       0.409413972195800       0.394843172603537     
  0.380272373011273       0.365701573419009       0.351130773826744     
  0.336559974234480       0.321989174642216       0.307418375049952     
  0.292847575457688       0.278276775865424       0.263705976273160     
  0.442991686207425       0.428420886615161       0.413850087022897     
  0.399279287430633       0.384708487838369       0.370137688246105     
  0.355566888653840       0.340996089061576       0.326425289469312     
  0.311854489877048       0.297283690284784       0.478618219302353     
  0.464047419710089       0.449476620117825       0.434905820525560     
  0.420335020933296       0.405764221341032       0.391193421748768     
  0.376622622156503       0.362051822564240       0.347481022971976     
  0.332910223379711       0.515731719771417       0.501160920179153     
  0.486590120586888       0.472019320994625       0.457448521402361     
  0.442877721810096       0.428306922217832       0.413736122625568     
  0.399165323033303       0.384594523441040       0.370023723848776     
  0.553746885541690       0.539176085949427       0.524605286357162     
  0.510034486764898       0.495463687172634       0.480892887580370     
  0.466322087988106       0.451751288395842       0.437180488803578     
  0.422609689211314       0.408038889619049       0.592064194739817     
  0.577493395147553       0.562922595555289       0.548351795963025     
  0.533780996370760       0.519210196778496       0.504639397186232     
  0.490068597593968       0.475497798001704       0.460926998409440     
  0.446356198817176       0.630079360510091       0.615508560917826     
  0.600937761325562       0.586366961733299       0.571796162141034     
  0.557225362548770       0.542654562956506       0.528083763364242     
  0.513512963771977       0.498942164179713       0.484371364587450     
  0.667192860979155       0.652622061386890       0.638051261794627     
  0.623480462202363       0.608909662610098       0.594338863017834     
  0.579768063425570       0.565197263833306       0.550626464241042     
  0.536055664648777       0.521484865056514       0.702819394074083     
  0.688248594481819       0.673677794889554       0.659106995297290     
  0.644536195705026       0.629965396112762       0.615394596520498     
  0.600823796928233       0.586252997335970       0.571682197743705     
  0.557111398151442       0.736397108085707       0.721826308493442     
  0.707255508901179       0.692684709308914       0.678113909716650     
  0.663543110124386       0.648972310532122       0.634401510939857     
  0.619830711347593       0.605259911755330       0.590689112163065     
  0.767396462405710       0.752825662813446       0.738254863221182     
  0.723684063628919       0.709113264036654       0.694542464444390     
  0.679971664852125       0.665400865259861       0.650830065667597     
  0.636259266075333       0.621688466483069       0.795328578698350     
  0.780757779106087       0.766186979513822       0.751616179921558     
  0.737045380329295       0.722474580737029       0.707903781144766     
  0.693332981552502       0.678762181960237       0.664191382367973     
  0.649620582775708       0.819752950803854       0.805182151211589     
  0.790611351619327       0.776040552027061       0.761469752434798     
  0.746898952842533       0.732328153250270       0.717757353658005     
  0.703186554065741       0.688615754473476       0.674044954881213     
  0.840284391783705       0.825713592191442       0.811142792599177     
  0.796571993006914       0.782001193414649       0.767430393822384     
  0.752859594230120       0.738288794637855       0.723717995045593     
  0.709147195453329       0.694576395861064       0.856599108548765     
  0.842028308956499       0.827457509364235       0.812886709771971     
  0.798315910179706       0.783745110587443       0.769174310995179     
  0.754603511402914       0.740032711810650       0.725461912218387     
  0.710891112626122       0.868439808269704       0.853869008677440     
  0.839298209085176       0.824727409492912       0.810156609900648     
  0.795585810308383       0.781015010716120       0.766444211123855     
  0.751873411531591       0.737302611939327       0.722731812347063     
  0.875619756038635       0.861048956446373       0.846478156854108     
  0.831907357261843       0.817336557669580       0.802765758077315     
  0.788194958485051       0.773624158892786       0.759053359300523     
  0.744482559708260       0.729911760115994       0.878025719790152     
  0.863454920197887       0.848884120605624       0.834313321013359     
  0.819742521421095       0.805171721828833       0.790600922236567     
  0.776030122644303       0.761459323052039       0.746888523459774     
  0.732317723867512     
 -2.470532407195356E-002 -3.686417463587720E-002 -4.902302519980103E-002
 -6.118187576372491E-002 -7.334072632764874E-002 -8.549957689157263E-002
 -9.765842745549634E-002 -0.109817278019420      -0.121976128583344     
 -0.134134979147268      -0.146293829711192      -2.758855842583259E-002
 -3.974740898975657E-002 -5.190625955368020E-002 -6.406511011760403E-002
 -7.622396068152797E-002 -8.838281124545164E-002 -0.100541661809376     
 -0.112700512373299      -0.124859362937223      -0.137018213501147     
 -0.149177064065071      -3.619279115934828E-002 -4.835164172327216E-002
 -6.051049228719589E-002 -7.266934285111978E-002 -8.482819341504355E-002
 -9.698704397896728E-002 -0.109145894542891      -0.121304745106815     
 -0.133463595670739      -0.145622446234663      -0.157781296798587     
 -5.038232838237418E-002 -6.254117894629765E-002 -7.470002951022175E-002
 -8.685888007414545E-002 -9.901773063806911E-002 -0.111176581201993     
 -0.123335431765917      -0.135494282329841      -0.147653132893764     
 -0.159811983457688      -0.171970834021612      -6.993339261648338E-002
 -8.209224318040727E-002 -9.425109374433109E-002 -0.106409944308255     
 -0.118568794872179      -0.130727645436103      -0.142886496000026     
 -0.155045346563950      -0.167204197127874      -0.179363047691798     
 -0.191521898255722      -9.453765189946532E-002 -0.106696502463389     
 -0.118855353027313      -0.131014203591237      -0.143173054155161     
 -0.155331904719085      -0.167490755283008      -0.179649605846932     
 -0.191808456410856      -0.203967306974780      -0.216126157538703     
 -0.123807082364555      -0.135965932928478      -0.148124783492402     
 -0.160283634056326      -0.172442484620250      -0.184601335184174     
 -0.196760185748097      -0.208919036312022      -0.221077886875945     
 -0.233236737439869      -0.245395588003793      -0.157280087608607     
 -0.169438938172531      -0.181597788736455      -0.193756639300379     
 -0.205915489864302      -0.218074340428226      -0.230233190992150     
 -0.242392041556074      -0.254550892119998      -0.266709742683922     
 -0.278868593247846      -0.194428778343120      -0.206587628907044     
 -0.218746479470967      -0.230905330034892      -0.243064180598815     
 -0.255223031162739      -0.267381881726663      -0.279540732290586     
 -0.291699582854511      -0.303858433418434      -0.316017283982358     
 -0.234667297523658      -0.246826148087581      -0.258984998651505     
 -0.271143849215429      -0.283302699779353      -0.295461550343276     
 -0.307620400907200      -0.319779251471124      -0.331938102035048     
 -0.344096952598972      -0.356255803162895      -0.277361059665416     
 -0.289519910229340      -0.301678760793264      -0.313837611357187     
 -0.325996461921112      -0.338155312485035      -0.350314163048959     
 -0.362473013612883      -0.374631864176807      -0.386790714740731     
 -0.398949565304654      -0.321836758635403      -0.333995609199327     
 -0.346154459763251      -0.358313310327175      -0.370472160891099     
 -0.382631011455023      -0.394789862018946      -0.406948712582871     
 -0.419107563146794      -0.431266413710718      -0.443425264274642     
 -0.367392986092368      -0.379551836656292      -0.391710687220216     
 -0.403869537784139      -0.416028388348063      -0.428187238911987     
 -0.440346089475911      -0.452504940039835      -0.464663790603759     
 -0.476822641167682      -0.488981491731607      -0.413311293115342     
 -0.425470143679267      -0.437628994243191      -0.449787844807114     
 -0.461946695371037      -0.474105545934961      -0.486264396498886     
 -0.498423247062809      -0.510582097626733      -0.522740948190657     
 -0.534899798754580      -0.458867520572307      -0.471026371136231     
 -0.483185221700155      -0.495344072264079      -0.507502922828002     
 -0.519661773391926      -0.531820623955850      -0.543979474519774     
 -0.556138325083698      -0.568297175647621      -0.580456026211546     
 -0.503343219542295      -0.515502070106218      -0.527660920670142     
 -0.539819771234066      -0.551978621797990      -0.564137472361913     
 -0.576296322925837      -0.588455173489762      -0.600614024053685     
 -0.612772874617609      -0.624931725181533      -0.546036981684054     
 -0.558195832247977      -0.570354682811901      -0.582513533375825     
 -0.594672383939748      -0.606831234503672      -0.618990085067597     
 -0.631148935631520      -0.643307786195444      -0.655466636759368     
 -0.667625487323292      -0.586275500864591      -0.598434351428514     
 -0.610593201992438      -0.622752052556363      -0.634910903120285     
 -0.647069753684210      -0.659228604248133      -0.671387454812057     
 -0.683546305375981      -0.695705155939905      -0.707864006503828     
 -0.623424191599103      -0.635583042163026      -0.647741892726951     
 -0.659900743290876      -0.672059593854798      -0.684218444418722     
 -0.696377294982647      -0.708536145546570      -0.720694996110494     
 -0.732853846674417      -0.745012697238342      -0.656897196843155     
 -0.669056047407080      -0.681214897971004      -0.693373748534927     
 -0.705532599098851      -0.717691449662775      -0.729850300226699     
 -0.742009150790623      -0.754168001354546      -0.766326851918470     
 -0.778485702482394      -0.686166627308245      -0.698325477872169     
 -0.710484328436093      -0.722643179000016      -0.734802029563940     
 -0.746960880127864      -0.759119730691788      -0.771278581255712     
 -0.783437431819635      -0.795596282383559      -0.807755132947484     
 -0.710770886591226      -0.722929737155152      -0.735088587719075     
 -0.747247438282999      -0.759406288846922      -0.771565139410845     
 -0.783723989974770      -0.795882840538694      -0.808041691102618     
 -0.820200541666542      -0.832359392230466      -0.730321950825337     
 -0.742480801389260      -0.754639651953184      -0.766798502517108     
 -0.778957353081032      -0.791116203644955      -0.803275054208879     
 -0.815433904772803      -0.827592755336726      -0.839751605900652     
 -0.851910456464574      -0.744511488048362      -0.756670338612287     
 -0.768829189176210      -0.780988039740136      -0.793146890304058     
 -0.805305740867982      -0.817464591431905      -0.829623441995829     
 -0.841782292559753      -0.853941143123678      -0.866099993687600     
 -0.753115720781878      -0.765274571345802      -0.777433421909725     
 -0.789592272473649      -0.801751123037573      -0.813909973601497     
 -0.826068824165420      -0.838227674729343      -0.850386525293268     
 -0.862545375857192      -0.874704226421115      -0.755998955135757     
 -0.768157805699680      -0.780316656263605      -0.792475506827528     
 -0.804634357391452      -0.816793207955376      -0.828952058519299     
 -0.841110909083225      -0.853269759647148      -0.865428610211070     
 -0.877587460774996     
  1.660316899342888E-002  1.494285209408599E-002  1.328253519474311E-002
  1.162221829540022E-002  9.961901396057328E-003  8.301584496714441E-003
  6.641267597371552E-003  4.980950698028665E-003  3.320633798685776E-003
  1.660316899342887E-003  0.000000000000000E+000  1.660316899342888E-002
  1.494285209408599E-002  1.328253519474311E-002  1.162221829540022E-002
  9.961901396057328E-003  8.301584496714441E-003  6.641267597371552E-003
  4.980950698028665E-003  3.320633798685776E-003  1.660316899342887E-003
  0.000000000000000E+000  1.660316899342888E-002  1.494285209408599E-002
  1.328253519474311E-002  1.162221829540022E-002  9.961901396057328E-003
  8.301584496714441E-003  6.641267597371552E-003  4.980950698028665E-003
  3.320633798685776E-003  1.660316899342887E-003  0.000000000000000E+000
  1.660316899342888E-002  1.494285209408599E-002  1.328253519474311E-002
  1.162221829540022E-002  9.961901396057328E-003  8.301584496714441E-003
  6.641267597371552E-003  4.980950698028665E-003  3.320633798685776E-003
  1.660316899342887E-003  0.000000000000000E+000  1.660316899342888E-002
  1.494285209408599E-002  1.328253519474311E-002  1.162221829540022E-002
  9.961901396057328E-003  8.301584496714441E-003  6.641267597371552E-003
  4.980950698028665E-003  3.320633798685776E-003  1.660316899342887E-003
  0.000000000000000E+000  1.660316899342888E-002  1.494285209408599E-002
  1.328253519474311E-002  1.162221829540022E-002  9.961901396057328E-003
  8.301584496714441E-003  6.641267597371552E-003  4.980950698028665E-003
  3.320633798685776E-003  1.660316899342887E-003  0.000000000000000E+000
  1.660316899342888E-002  1.494285209408599E-002  1.328253519474311E-002
  1.162221829540022E-002  9.961901396057328E-003  8.301584496714441E-003
  6.641267597371552E-003  4.980950698028665E-003  3.320633798685776E-003
  1.660316899342887E-003  0.000000000000000E+000  1.660316899342888E-002
  1.494285209408599E-002  1.328253519474311E-002  1.162221829540022E-002
  9.961901396057328E-003  8.301584496714441E-003  6.641267597371552E-003
  4.980950698028665E-003  3.320633798685776E-003  1.660316899342887E-003
  0.000000000000000E+000  1.660316899342888E-002  1.494285209408599E-002
  1.328253519474311E-002  1.162221829540022E-002  9.961901396057328E-003
  8.301584496714441E-003  6.641267597371552E-003  4.980950698028665E-003
  3.320633798685776E-003  1.660316899342887E-003  0.000000000000000E+000
  1.660316899342888E-002  1.494285209408599E-002  1.328253519474311E-002
  1.162221829540022E-002  9.961901396057328E-003  8.301584496714441E-003
  6.641267597371552E-003  4.980950698028665E-003  3.320633798685776E-003
  1.660316899342887E-003  0.000000000000000E+000  1.660316899342888E-002
  1.494285209408599E-002  1.328253519474311E-002  1.162221829540022E-002
  9.961901396057328E-003  8.301584496714441E-003  6.641267597371552E-003
  4.980950698028665E-003  3.320633798685776E-003  1.660316899342887E-003
  0.000000000000000E+000  1.660316899342888E-002  1.494285209408599E-002
  1.328253519474311E-002  1.162221829540022E-002  9.961901396057328E-003
  8.301584496714441E-003  6.641267597371552E-003  4.980950698028665E-003
  3.320633798685776E-003  1.660316899342887E-003  0.000000000000000E+000
  1.660316899342888E-002  1.494285209408599E-002  1.328253519474311E-002
  1.162221829540022E-002  9.961901396057328E-003  8.301584496714441E-003
  6.641267597371552E-003  4.980950698028665E-003  3.320633798685776E-003
  1.660316899342887E-003  0.000000000000000E+000  1.660316899342888E-002
  1.494285209408599E-002  1.328253519474311E-002  1.162221829540022E-002
  9.961901396057328E-003  8.301584496714441E-003  6.641267597371552E-003
  4.980950698028665E-003  3.320633798685776E-003  1.660316899342887E-003
  0.000000000000000E+000  1.660316899342888E-002  1.494285209408599E-002
  1.328253519474311E-002  1.162221829540022E-002  9.961901396057328E-003
  8.301584496714441E-003  6.641267597371552E-003  4.980950698028665E-003
  3.320633798685776E-003  1.660316899342887E-003  0.000000000000000E+000
  1.660316899342888E-002  1.494285209408599E-002  1.328253519474311E-002
  1.162221829540022E-002  9.961901396057328E-003  8.301584496714441E-003
  6.641267597371552E-003  4.980950698028665E-003  3.320633798685776E-003
  1.660316899342887E-003  0.000000000000000E+000  1.660316899342888E-002
  1.494285209408599E-002  1.328253519474311E-002  1.162221829540022E-002
  9.961901396057328E-003  8.301584496714441E-003  6.641267597371552E-003
  4.980950698028665E-003  3.320633798685776E-003  1.660316899342887E-003
  0.000000000000000E+000  1.660316899342888E-002  1.494285209408599E-002
  1.328253519474311E-002  1.162221829540022E-002  9.961901396057328E-003
  8.301584496714441E-003  6.641267597371552E-003  4.980950698028665E-003
  3.320633798685776E-003  1.660316899342887E-003  0.000000000000000E+000
  1.660316899342888E-002  1.494285209408599E-002  1.328253519474311E-002
  1.162221829540022E-002  9.961901396057328E-003  8.301584496714441E-003
  6.641267597371552E-003  4.980950698028665E-003  3.320633798685776E-003
  1.660316899342887E-003  0.000000000000000E+000  1.660316899342888E-002
  1.494285209408599E-002  1.328253519474311E-002  1.162221829540022E-002
  9.961901396057328E-003  8.301584496714441E-003  6.641267597371552E-003
  4.980950698028665E-003  3.320633798685776E-003  1.660316899342887E-003
  0.000000000000000E+000  1.660316899342888E-002  1.494285209408599E-002
  1.328253519474311E-002  1.162221829540022E-002  9.961901396057328E-003
  8.301584496714441E-003  6.641267597371552E-003  4.980950698028665E-003
  3.320633798685776E-003  1.660316899342887E-003  0.000000000000000E+000
  1.660316899342888E-002  1.494285209408599E-002  1.328253519474311E-002
  1.162221829540022E-002  9.961901396057328E-003  8.301584496714441E-003
  6.641267597371552E-003  4.980950698028665E-003  3.320633798685776E-003
  1.660316899342887E-003  0.000000000000000E+000  1.660316899342888E-002
  1.494285209408599E-002  1.328253519474311E-002  1.162221829540022E-002
  9.961901396057328E-003  8.301584496714441E-003  6.641267597371552E-003
  4.980950698028665E-003  3.320633798685776E-003  1.660316899342887E-003
  0.000000000000000E+000  1.660316899342888E-002  1.494285209408599E-002
  1.328253519474311E-002  1.162221829540022E-002  9.961901396057328E-003
  8.301584496714441E-003  6.641267597371552E-003  4.980950698028665E-003
  3.320633798685776E-003  1.660316899342887E-003  0.000000000000000E+000
  1.660316899342888E-002  1.494285209408599E-002  1.328253519474311E-002
  1.162221829540022E-002  9.961901396057328E-003  8.301584496714441E-003
  6.641267597371552E-003  4.980950698028665E-003  3.320633798685776E-003
  1.660316899342887E-003  0.000000000000000E+000  1.660316899342888E-002
  1.494285209408599E-002  1.328253519474311E-002  1.162221829540022E-002
  9.961901396057328E-003  8.301584496714441E-003  6.641267597371552E-003
  4.980950698028665E-003  3.320633798685776E-003  1.660316899342887E-003
  0.000000000000000E+000
  5.942389315982058E-002  8.751403586373074E-002  0.110469538380452     
  0.130748632023148       0.148958988850923       0.165062642216886     
  0.178976073889342       0.190563023858634       0.199653885784239     
  0.206399952415684       9.733662405437850E-002  0.145510430638522     
  0.184414229913208       0.218642532879486       0.249291553952282     
  0.276341925573521       0.299708730072877       0.319218994688014     
  0.334734210177524       0.347003290117900       0.125170343046851     
  0.191696396060949       0.245022698537383       0.291651828184170     
  0.333225167871836       0.369802321354178       0.401386287366781     
  0.427762744675665       0.448627906858481       0.464019472857667     
  0.139625879533768       0.217542326077949       0.280504487587855     
  0.335490153757230       0.384322402457118       0.427070680112815     
  0.463723512250825       0.494045191407509       0.517615980910688     
  0.533942045894853       0.142241824198535       0.223851710425372     
  0.290706568154519       0.349259744258160       0.401148895464289     
  0.446425410850596       0.484934279930989       0.516451822011041     
  0.540481788891647       0.556082656303020       0.138518931565136     
  0.218490456167976       0.284268960999147       0.341894637424705     
  0.392828943077480       0.437229703953961       0.474862143235107     
  0.505394172541550       0.528357879544238       0.542709971191315     
  0.137124746855668       0.214658192092730       0.277563260671426     
  0.332127876910088       0.380046242198372       0.421731484200993     
  0.457119685170228       0.485940203812674       0.507687393856451     
  0.521209536598499       0.145216001443920       0.224069249663198     
  0.286309685981681       0.339322532323957       0.385376449077907     
  0.425261998840924       0.459160394908100       0.486918693460787     
  0.508066581616136       0.521397702812667       0.165152538752087     
  0.251161379545663       0.317000262863085       0.371854233102546     
  0.418788840152413       0.459055114174629       0.493138097544508     
  0.521080838504743       0.542506547115705       0.556197098137128     
  0.195208005567740       0.293572116840749       0.366918011611749     
  0.426777467216611       0.477191552764555       0.519945854559372     
  0.555856654667488       0.585185829640977       0.607690061036518     
  0.622160845182423       0.232381292516404       0.346839626184716     
  0.430552587021586       0.497774008825962       0.553629232379933     
  0.600479089439089       0.639493772441601       0.671164860611121     
  0.695378610698616       0.710943726821655       0.274246701886174     
  0.407311118634368       0.503331659436585       0.579520619628551     
  0.642165518771257       0.694232331907094       0.737251260447025     
  0.771940826814589       0.798319987422447       0.815203153234486     
  0.319383776333351       0.472792014421132       0.582451527131502     
  0.668699624162442       0.739040124241191       0.797065587959998     
  0.844679447051805       0.882830425128699       0.911662063120471     
  0.929985570184203       0.367556168511960       0.542810097460079     
  0.667186674734465       0.764318397474799       0.842989780369055     
  0.907458689633384       0.960020591745749        1.00186572194281     
   1.03327181300031        1.05305561927675       0.420177335550625     
  0.619222816920425       0.759543867845823       0.868377235493219     
  0.955914033575515        1.02715263152866        1.08483482570784     
   1.13043051027652        1.16438206503240        1.18554002021264     
  0.480915860772673       0.706934431853846       0.864952475456205     
  0.986462681744490        1.08334917215430        1.16151753393446     
   1.22427525745027        1.27345973066760        1.30973994716364     
   1.33205700190595       0.556342552175138       0.814379124408302     
  0.992397471212003        1.12751781971892        1.23392726533698     
   1.31877601092831        1.38613965418192        1.43836551234873     
   1.47645477347274        1.49952412843825       0.654384052482279     
  0.950711422684154        1.15065606021916        1.29944029094623     
   1.41458991819608        1.50500896816786        1.57580020712085     
   1.62995835554924        1.66891916716682        1.69208919667316     
  0.767258945285242        1.10391131594378        1.32461723259722     
   1.48476588211090        1.60603918529619        1.69947100198898     
   1.77138396024560        1.82552401957509        1.86382944227567     
   1.88612214829074       0.852203711163932        1.21600911279898     
   1.44802647530684        1.61195698439567        1.73303780245849     
   1.82420883390295        1.89289510618555        1.94350719879389     
   1.97844861514173        1.99811227669845       0.877518048565315     
   1.24084379241252        1.46562886038089        1.62010010218004     
   1.73142867366170        1.81343518317793        1.87391896167205     
   1.91742052138044        1.94641939966453        1.96174005173173     
  0.840825733854651        1.17189672619667        1.36860930072433     
   1.50002197502801        1.59290422290036        1.66031529650493     
   1.70933882057862        1.74394243388236        1.76618217394946     
   1.77681083920501       0.741994099390861        1.00928296183438     
   1.16115247068130        1.26073732353657        1.33055963375418     
   1.38102685336051        1.41762506300630        1.44340218275520     
   1.46000594360718        1.46820743739456       0.575194895734598     
  0.756515666115045       0.857748604885204       0.924161519978490     
  0.970851897448287        1.00470536499495        1.02936883738018     
   1.04693983876593        1.05882626663329        1.06709644434065     
  0.351542230035606       0.453044673784818       0.510207974776476     
  0.547909430639209       0.574504308166941       0.593832666249517     
  0.607937936111412       0.617978011960781       0.624620189960005     
  0.628195176027855     
  0.000000000000000E+000  0.000000000000000E+000  0.000000000000000E+000
  0.000000000000000E+000  0.000000000000000E+000  0.000000000000000E+000
  0.000000000000000E+000  0.000000000000000E+000  0.000000000000000E+000
  0.000000000000000E+000  0.000000000000000E+000  0.000000000000000E+000
  0.000000000000000E+000  0.000000000000000E+000  0.000000000000000E+000
  0.000000000000000E+000  0.000000000000000E+000  0.000000000000000E+000
  0.000000000000000E+000  0.000000000000000E+000  0.000000000000000E+000
  0.000000000000000E+000  0.000000000000000E+000  0.000000000000000E+000
  0.000000000000000E+000  0.000000000000000E+000  0.000000000000000E+000
  0.000000000000000E+000  0.000000000000000E+000  0.000000000000000E+000
  0.000000000000000E+000  0.000000000000000E+000  0.000000000000000E+000
  0.000000000000000E+000  0.000000000000000E+000  0.000000000000000E+000
  0.000000000000000E+000  0.000000000000000E+000  0.000000000000000E+000
  0.000000000000000E+000  0.000000000000000E+000  0.000000000000000E+000
  0.000000000000000E+000  0.000000000000000E+000  0.000000000000000E+000
  0.000000000000000E+000  0.000000000000000E+000  0.000000000000000E+000
  0.000000000000000E+000  0.000000000000000E+000  0.000000000000000E+000
  0.000000000000000E+000  0.000000000000000E+000  0.000000000000000E+000
  0.000000000000000E+000  0.000000000000000E+000  0.000000000000000E+000
  0.000000000000000E+000  0.000000000000000E+000  0.000000000000000E+000
  0.000000000000000E+000  0.000000000000000E+000  0.000000000000000E+000
  0.000000000000000E+000  0.000000000000000E+000  0.000000000000000E+000
  0.000000000000000E+000  0.000000000000000E+000  0.000000000000000E+000
  0.000000000000000E+000  0.000000000000000E+000  0.000000000000000E+000
  0.000000000000000E+000  0.000000000000000E+000  0.000000000000000E+000
  0.000000000000000E+000  0.000000000000000E+000  0.000000000000000E+000
  0.000000000000000E+000  0.000000000000000E+000  0.000000000000000E+000
  0.000000000000000E+000  0.000000000000000E+000  0.000000000000000E+000
  0.000000000000000E+000  0.000000000000000E+000  0.000000000000000E+000
  0.000000000000000E+000  0.000000000000000E+000  0.000000000000000E+000
  0.000000000000000E+000  0.000000000000000E+000  0.000000000000000E+000
  0.000000000000000E+000  0.000000000000000E+000  0.000000000000000E+000
  0.000000000000000E+000  0.000000000000000E+000  0.000000000000000E+000
  0.000000000000000E+000  0.000000000000000E+000  0.000000000000000E+000
  0.000000000000000E+000  0.000000000000000E+000  0.000000000000000E+000
  0.000000000000000E+000  0.000000000000000E+000  0.000000000000000E+000
  0.000000000000000E+000  0.000000000000000E+000  0.000000000000000E+000
  0.000000000000000E+000  0.000000000000000E+000  0.000000000000000E+000
  0.000000000000000E+000  0.000000000000000E+000  0.000000000000000E+000