 Title = "Wing and Wake"
 VARIABLES = "X" "Y" "Z" "GAM" "skew"
 Zone I=   11 J=   26 K=1  T="Blade"
 DATAPACKING=BLOCK
 VARLOCATION=([4]=CELLCENTERED,[5]=CELLCENTERED)
 -7.968364787752280E-002 -6.287325538868836E-002 -4.606286289985354E-002
 -2.925247041101856E-002 -1.244207792218374E-002  4.368314566651259E-003
  2.117870705548603E-002  3.798909954432080E-002  5.479949203315568E-002
  7.160988452199042E-002  8.842027701082540E-002 -7.794101539083202E-002
 -6.113062290199730E-002 -4.432023041316278E-002 -2.750983792432793E-002
 -1.069944543549297E-002  6.110947053341740E-003  2.292133954217667E-002
  3.973173203101130E-002  5.654212451984644E-002  7.335251700868090E-002
  9.016290949751612E-002 -7.274060028607364E-002 -5.593020779723872E-002
 -3.911981530840425E-002 -2.230942281956911E-002 -5.499030330734342E-003
  1.131136215810052E-002  2.812175464693542E-002  4.493214713577008E-002
  6.174253962460507E-002  7.855293211343981E-002  9.536332460227438E-002
 -6.416441621602607E-002 -4.735402372719155E-002 -3.054363123835660E-002
 -1.373323874952180E-002  3.077153739312832E-003  1.988754622814771E-002
  3.669793871698282E-002  5.350833120581735E-002  7.031872369465218E-002
  8.712911618348709E-002  0.103939508672322      -5.234771472663904E-002
 -3.553732223780440E-002 -1.872692974896945E-002 -1.916537260134334E-003
  1.489385522870023E-002  3.170424771753522E-002  4.851464020636990E-002
  6.532503269520469E-002  8.213542518403949E-002  9.894581767287432E-002
  0.115756210161709      -3.747685225935488E-002 -2.066645977052009E-002
 -3.856067281685384E-003  1.295432520714943E-002  2.976471769598442E-002
  4.657511018481907E-002  6.338550267365392E-002  8.019589516248872E-002
  9.700628765132364E-002  0.113816680140159       0.130627072628994     
 -1.978635119870551E-002 -2.975958709870838E-003  1.383443377896402E-002
  3.064482626779900E-002  4.745521875663388E-002  6.426561124546863E-002
  8.107600373430297E-002  9.788639622313859E-002  0.114696788711973     
  0.131507181200808       0.148317573689642       4.447986857896884E-004
  1.725519117462414E-002  3.406558366345935E-002  5.087597615229408E-002
  6.768636864112891E-002  8.449676112996406E-002  0.101307153618799     
  0.118117546107633       0.134927938596468       0.151738331085303     
  0.168548723574138       2.289754007494934E-002  3.970793256378399E-002
  5.651832505261851E-002  7.332871754145358E-002  9.013911003028806E-002
  0.106949502519123       0.123759895007958       0.140570287496792     
  0.157380679985628       0.174191072474462       0.191001464963297     
  4.721777982444759E-002  6.402817231328262E-002  8.083856480211714E-002
  9.764895729095185E-002  0.114459349779787       0.131269742268621     
  0.148080134757457       0.164890527246291       0.181700919735126     
  0.198511312223961       0.215321704712795       7.302197322522895E-002
  8.983236571406344E-002  0.106642758202899       0.123453150691734     
  0.140263543180568       0.157073935669403       0.173884328158238     
  0.190694720647073       0.207505113135908       0.224315505624743     
  0.241125898113577       9.990317273268452E-002  0.116713565221520     
  0.133523957710355       0.150334350199190       0.167144742688025     
  0.183955135176860       0.200765527665694       0.217575920154529     
  0.234386312643363       0.251196705132198       0.268007097621033     
  0.127437445772533       0.144247838261369       0.161058230750202     
  0.177868623239038       0.194679015727872       0.211489408216707     
  0.228299800705542       0.245110193194377       0.261920585683212     
  0.278730978172046       0.295541370660882       0.155190560410757     
  0.172000952899592       0.188811345388427       0.205621737877262     
  0.222432130366096       0.239242522854931       0.256052915343766     
  0.272863307832602       0.289673700321436       0.306484092810271     
  0.323294485299106       0.182724833450605       0.199535225939440     
  0.216345618428275       0.233156010917110       0.249966403405944     
  0.266776795894779       0.283587188383614       0.300397580872449     
  0.317207973361284       0.334018365850118       0.350828758338954     
  0.209606032958062       0.226416425446897       0.243226817935731     
  0.260037210424567       0.276847602913401       0.293657995402235     
  0.310468387891070       0.327278780379906       0.344089172868740     
  0.360899565357575       0.377709957846410       0.235410226358843     
  0.252220618847678       0.269031011336512       0.285841403825348     
  0.302651796314182       0.319462188803016       0.336272581291853     
  0.353082973780687       0.369893366269520       0.386703758758357     
  0.403514151247191       0.259730466108341       0.276540858597176     
  0.293351251086012       0.310161643574847       0.326972036063681     
  0.343782428552516       0.360592821041350       0.377403213530185     
  0.394213606019021       0.411023998507855       0.427834390996689     
  0.282183207497500       0.298993599986335       0.315803992475171     
  0.332614384964006       0.349424777452839       0.366235169941674     
  0.383045562430510       0.399855954919344       0.416666347408180     
  0.433476739897014       0.450287132385848       0.302414357381995     
  0.319224749870831       0.336035142359666       0.352845534848500     
  0.369655927337335       0.386466319826171       0.403276712315005     
  0.420087104803840       0.436897497292674       0.453707889781509     
  0.470518282270343       0.320104858442644       0.336915250931481     
  0.353725643420315       0.370536035909149       0.387346428397983     
  0.404156820886819       0.420967213375655       0.437777605864489     
  0.454587998353323       0.471398390842158       0.488208783330993     
  0.334975720909928       0.351786113398764       0.368596505887599     
  0.385406898376433       0.402217290865267       0.419027683354105     
  0.435838075842937       0.452648468331774       0.469458860820607     
  0.486269253309443       0.503079645798279       0.346792422399316     
  0.363602814888152       0.380413207376986       0.397223599865822     
  0.414033992354656       0.430844384843490       0.447654777332325     
  0.464465169821160       0.481275562309994       0.498085954798829     
  0.514896347287665       0.355368606469364       0.372178998958200     
  0.388989391447033       0.405799783935869       0.422610176424703     
  0.439420568913540       0.456230961402371       0.473041353891207     
  0.489851746380043       0.506662138868877       0.523472531357712     
  0.360569021574122       0.377379414062957       0.394189806551793     
  0.411000199040627       0.427810591529462       0.444620984018294     
  0.461431376507131       0.478241768995966       0.495052161484800     
  0.511862553973635       0.528672946462470       0.362311654060814     
  0.379122046549648       0.395932439038483       0.412742831527317     
  0.429553224016152       0.446363616504987       0.463174008993821     
  0.479984401482658       0.496794793971493       0.513605186460325     
  0.530415578949163     
  0.256846001705138       0.248039381912898       0.239232762120657     
  0.230426142328417       0.221619522536177       0.212812902743936     
  0.204006282951696       0.195199663159456       0.186393043367216     
  0.177586423574975       0.168779803782735       0.260172401249589     
  0.251365781457349       0.242559161665109       0.233752541872869     
  0.224945922080628       0.216139302288388       0.207332682496148     
  0.198526062703907       0.189719442911667       0.180912823119427     
  0.172106203327187       0.270099140575032       0.261292520782793     
  0.252485900990552       0.243679281198312       0.234872661406071     
  0.226066041613831       0.217259421821591       0.208452802029351     
  0.199646182237110       0.190839562444870       0.182032942652630     
  0.286469669072359       0.277663049280118       0.268856429487879     
  0.260049809695638       0.251243189903398       0.242436570111158     
  0.233629950318917       0.224823330526677       0.216016710734437     
  0.207210090942196       0.198403471149956       0.309025813727887     
  0.300219193935646       0.291412574143405       0.282605954351165     
  0.273799334558925       0.264992714766684       0.256186094974444     
  0.247379475182204       0.238572855389963       0.229766235597723     
  0.220959615805483       0.337411850666008       0.328605230873767     
  0.319798611081527       0.310991991289287       0.302185371497047     
  0.293378751704806       0.284572131912566       0.275765512120326     
  0.266958892328085       0.258152272535845       0.249345652743605     
  0.371180115127214       0.362373495334973       0.353566875542733     
  0.344760255750493       0.335953635958253       0.327147016166013     
  0.318340396373772       0.309533776581532       0.300727156789291     
  0.291920536997052       0.283113917204810       0.409798061408769     
  0.400991441616528       0.392184821824288       0.383378202032048     
  0.374571582239808       0.365764962447567       0.356958342655327     
  0.348151722863087       0.339345103070846       0.330538483278606     
  0.321731863486366       0.452656661428567       0.443850041636327     
  0.435043421844087       0.426236802051847       0.417430182259607     
  0.408623562467366       0.399816942675126       0.391010322882885     
  0.382203703090645       0.373397083298405       0.364590463506165     
  0.499080009461813       0.490273389669572       0.481466769877331     
  0.472660150085091       0.463853530292851       0.455046910500611     
  0.446240290708371       0.437433670916130       0.428627051123890     
  0.419820431331650       0.411013811539409       0.548335981578055     
  0.539529361785815       0.530722741993575       0.521916122201335     
  0.513109502409093       0.504302882616853       0.495496262824614     
  0.486689643032371       0.477883023240133       0.469076403447893     
  0.460269783655652       0.599647781672931       0.590841161880692     
  0.582034542088449       0.573227922296210       0.564421302503970     
  0.555614682711729       0.546808062919489       0.538001443127249     
  0.529194823335008       0.520388203542768       0.511581583750528     
  0.652206192006759       0.643399572214521       0.634592952422280     
  0.625786332630039       0.616979712837797       0.608173093045559     
  0.599366473253320       0.590559853461078       0.581753233668837     
  0.572946613876597       0.564139994084357       0.705182335051706     
  0.696375715259466       0.687569095467226       0.678762475674985     
  0.669955855882744       0.661149236090503       0.652342616298263     
  0.643535996506024       0.634729376713783       0.625922756921543     
  0.617116137129303       0.757740745385535       0.748934125593294     
  0.740127505801053       0.731320886008815       0.722514266216574     
  0.713707646424333       0.704901026632092       0.696094406839853     
  0.687287787047613       0.678481167255371       0.669674547463132     
  0.809052545480410       0.800245925688170       0.791439305895931     
  0.782632686103691       0.773826066311449       0.765019446519208     
  0.756212826726968       0.747406206934730       0.738599587142489     
  0.729792967350247       0.720986347558008       0.858308517596653     
  0.849501897804414       0.840695278012171       0.831888658219932     
  0.823082038427692       0.814275418635452       0.805468798843211     
  0.796662179050970       0.787855559258732       0.779048939466490     
  0.770242319674251       0.904731865629897       0.895925245837658     
  0.887118626045418       0.878312006253177       0.869505386460937     
  0.860698766668697       0.851892146876456       0.843085527084215     
  0.834278907291975       0.825472287499736       0.816665667707495     
  0.947590465649697       0.938783845857456       0.929977226065217     
  0.921170606272977       0.912363986480736       0.903557366688495     
  0.894750746896256       0.885944127104015       0.877137507311774     
  0.868330887519534       0.859524267727294       0.986208411931251     
  0.977401792139013       0.968595172346770       0.959788552554531     
  0.950981932762291       0.942175312970050       0.933368693177810     
  0.924562073385569       0.915755453593328       0.906948833801088     
  0.898142214008848        1.01997667639246        1.01117005660022     
   1.00236343680798       0.993556817015736       0.984750197223495     
  0.975943577431256       0.967136957639016       0.958330337846777     
  0.949523718054534       0.940717098262294       0.931910478470053     
   1.04836271333058        1.03955609353834        1.03074947374610     
   1.02194285395386        1.01313623416162        1.00432961436938     
  0.995522994577137       0.986716374784895       0.977909754992659     
  0.969103135200418       0.960296515408177        1.07091885798611     
   1.06211223819387        1.05330561840163        1.04449899860938     
   1.03569237881714        1.02688575902491        1.01807913923266     
   1.00927251944042        1.00046589964818       0.991659279855944     
  0.982852660063702        1.08728938648343        1.07848276669119     
   1.06967614689895        1.06086952710671        1.05206290731447     
   1.04325628752223        1.03444966772999        1.02564304793775     
   1.01683642814551        1.00802980835327       0.999223188561029     
   1.09721612580888        1.08840950601664        1.07960288622439     
   1.07079626643216        1.06198964663991        1.05318302684767     
   1.04437640705543        1.03556978726319        1.02676316747095     
   1.01795654767871        1.00914992788647        1.10054252535333     
   1.09173590556109        1.08292928576885        1.07412266597661     
   1.06531604618437        1.05650942639213        1.04770280659988     
   1.03889618680765        1.03008956701541        1.02128294722316     
   1.01247632743093     
  1.660316899342888E-002  1.494285209408599E-002  1.328253519474311E-002
  1.162221829540022E-002  9.961901396057328E-003  8.301584496714441E-003
  6.641267597371552E-003  4.980950698028665E-003  3.320633798685776E-003
  1.660316899342887E-003  0.000000000000000E+000  1.660316899342888E-002
  1.494285209408599E-002  1.328253519474311E-002  1.162221829540022E-002
  9.961901396057328E-003  8.301584496714441E-003  6.641267597371552E-003
  4.980950698028665E-003  3.320633798685776E-003  1.660316899342887E-003
  0.000000000000000E+000  1.660316899342888E-002  1.494285209408599E-002
  1.328253519474311E-002  1.162221829540022E-002  9.961901396057328E-003
  8.301584496714441E-003  6.641267597371552E-003  4.980950698028665E-003
  3.320633798685776E-003  1.660316899342887E-003  0.000000000000000E+000
  1.660316899342888E-002  1.494285209408599E-002  1.328253519474311E-002
  1.162221829540022E-002  9.961901396057328E-003  8.301584496714441E-003
  6.641267597371552E-003  4.980950698028665E-003  3.320633798685776E-003
  1.660316899342887E-003  0.000000000000000E+000  1.660316899342888E-002
  1.494285209408599E-002  1.328253519474311E-002  1.162221829540022E-002
  9.961901396057328E-003  8.301584496714441E-003  6.641267597371552E-003
  4.980950698028665E-003  3.320633798685776E-003  1.660316899342887E-003
  0.000000000000000E+000  1.660316899342888E-002  1.494285209408599E-002
  1.328253519474311E-002  1.162221829540022E-002  9.961901396057328E-003
  8.301584496714441E-003  6.641267597371552E-003  4.980950698028665E-003
  3.320633798685776E-003  1.660316899342887E-003  0.000000000000000E+000
  1.660316899342888E-002  1.494285209408599E-002  1.328253519474311E-002
  1.162221829540022E-002  9.961901396057328E-003  8.301584496714441E-003
  6.641267597371552E-003  4.980950698028665E-003  3.320633798685776E-003
  1.660316899342887E-003  0.000000000000000E+000  1.660316899342888E-002
  1.494285209408599E-002  1.328253519474311E-002  1.162221829540022E-002
  9.961901396057328E-003  8.301584496714441E-003  6.641267597371552E-003
  4.980950698028665E-003  3.320633798685776E-003  1.660316899342887E-003
  0.000000000000000E+000  1.660316899342888E-002  1.494285209408599E-002
  1.328253519474311E-002  1.162221829540022E-002  9.961901396057328E-003
  8.301584496714441E-003  6.641267597371552E-003  4.980950698028665E-003
  3.320633798685776E-003  1.660316899342887E-003  0.000000000000000E+000
  1.660316899342888E-002  1.494285209408599E-002  1.328253519474311E-002
  1.162221829540022E-002  9.961901396057328E-003  8.301584496714441E-003
  6.641267597371552E-003  4.980950698028665E-003  3.320633798685776E-003
  1.660316899342887E-003  0.000000000000000E+000  1.660316899342888E-002
  1.494285209408599E-002  1.328253519474311E-002  1.162221829540022E-002
  9.961901396057328E-003  8.301584496714441E-003  6.641267597371552E-003
  4.980950698028665E-003  3.320633798685776E-003  1.660316899342887E-003
  0.000000000000000E+000  1.660316899342888E-002  1.494285209408599E-002
  1.328253519474311E-002  1.162221829540022E-002  9.961901396057328E-003
  8.301584496714441E-003  6.641267597371552E-003  4.980950698028665E-003
  3.320633798685776E-003  1.660316899342887E-003  0.000000000000000E+000
  1.660316899342888E-002  1.494285209408599E-002  1.328253519474311E-002
  1.162221829540022E-002  9.961901396057328E-003  8.301584496714441E-003
  6.641267597371552E-003  4.980950698028665E-003  3.320633798685776E-003
  1.660316899342887E-003  0.000000000000000E+000  1.660316899342888E-002
  1.494285209408599E-002  1.328253519474311E-002  1.162221829540022E-002
  9.961901396057328E-003  8.301584496714441E-003  6.641267597371552E-003
  4.980950698028665E-003  3.320633798685776E-003  1.660316899342887E-003
  0.000000000000000E+000  1.660316899342888E-002  1.494285209408599E-002
  1.328253519474311E-002  1.162221829540022E-002  9.961901396057328E-003
  8.301584496714441E-003  6.641267597371552E-003  4.980950698028665E-003
  3.320633798685776E-003  1.660316899342887E-003  0.000000000000000E+000
  1.660316899342888E-002  1.494285209408599E-002  1.328253519474311E-002
  1.162221829540022E-002  9.961901396057328E-003  8.301584496714441E-003
  6.641267597371552E-003  4.980950698028665E-003  3.320633798685776E-003
  1.660316899342887E-003  0.000000000000000E+000  1.660316899342888E-002
  1.494285209408599E-002  1.328253519474311E-002  1.162221829540022E-002
  9.961901396057328E-003  8.301584496714441E-003  6.641267597371552E-003
  4.980950698028665E-003  3.320633798685776E-003  1.660316899342887E-003
  0.000000000000000E+000  1.660316899342888E-002  1.494285209408599E-002
  1.328253519474311E-002  1.162221829540022E-002  9.961901396057328E-003
  8.301584496714441E-003  6.641267597371552E-003  4.980950698028665E-003
  3.320633798685776E-003  1.660316899342887E-003  0.000000000000000E+000
  1.660316899342888E-002  1.494285209408599E-002  1.328253519474311E-002
  1.162221829540022E-002  9.961901396057328E-003  8.301584496714441E-003
  6.641267597371552E-003  4.980950698028665E-003  3.320633798685776E-003
  1.660316899342887E-003  0.000000000000000E+000  1.660316899342888E-002
  1.494285209408599E-002  1.328253519474311E-002  1.162221829540022E-002
  9.961901396057328E-003  8.301584496714441E-003  6.641267597371552E-003
  4.980950698028665E-003  3.320633798685776E-003  1.660316899342887E-003
  0.000000000000000E+000  1.660316899342888E-002  1.494285209408599E-002
  1.328253519474311E-002  1.162221829540022E-002  9.961901396057328E-003
  8.301584496714441E-003  6.641267597371552E-003  4.980950698028665E-003
  3.320633798685776E-003  1.660316899342887E-003  0.000000000000000E+000
  1.660316899342888E-002  1.494285209408599E-002  1.328253519474311E-002
  1.162221829540022E-002  9.961901396057328E-003  8.301584496714441E-003
  6.641267597371552E-003  4.980950698028665E-003  3.320633798685776E-003
  1.660316899342887E-003  0.000000000000000E+000  1.660316899342888E-002
  1.494285209408599E-002  1.328253519474311E-002  1.162221829540022E-002
  9.961901396057328E-003  8.301584496714441E-003  6.641267597371552E-003
  4.980950698028665E-003  3.320633798685776E-003  1.660316899342887E-003
  0.000000000000000E+000  1.660316899342888E-002  1.494285209408599E-002
  1.328253519474311E-002  1.162221829540022E-002  9.961901396057328E-003
  8.301584496714441E-003  6.641267597371552E-003  4.980950698028665E-003
  3.320633798685776E-003  1.660316899342887E-003  0.000000000000000E+000
  1.660316899342888E-002  1.494285209408599E-002  1.328253519474311E-002
  1.162221829540022E-002  9.961901396057328E-003  8.301584496714441E-003
  6.641267597371552E-003  4.980950698028665E-003  3.320633798685776E-003
  1.660316899342887E-003  0.000000000000000E+000  1.660316899342888E-002
  1.494285209408599E-002  1.328253519474311E-002  1.162221829540022E-002
  9.961901396057328E-003  8.301584496714441E-003  6.641267597371552E-003
  4.980950698028665E-003  3.320633798685776E-003  1.660316899342887E-003
  0.000000000000000E+000
  2.862308832730461E-002  4.545196740019287E-002  6.068352103148280E-002
  7.346195123187962E-002  8.357539999308077E-002  9.067697480803880E-002
  9.418557332301507E-002  9.450692143936228E-002  9.235727441152741E-002
  8.876924899037299E-002  4.395263355212281E-002  7.136913751967425E-002
  9.581583403926359E-002  0.116483175352508       0.133104202414451     
  0.145063663384265       0.151273461425261       0.152402870703487     
  0.149632141455849       0.144769199413341       4.823887027129760E-002
  8.198680231225458E-002  0.111557164930618       0.136935864787306     
  0.158075772693354       0.173992132483719       0.183297078922622     
  0.186586489726164       0.185274858647763       0.180909161437204     
  4.360260073532936E-002  7.741515662538399E-002  0.107794983771716     
  0.134721495622356       0.157821167786367       0.176004710538050     
  0.188167678229409       0.194625091947808       0.196482734065078     
  0.194529126870927       3.915773092233612E-002  7.010285307047817E-002
  9.899226139990905E-002  0.125597845448223       0.149173688292907     
  0.168759598767849       0.183668136425260       0.193926303579104     
  0.199814008746284       0.201436939699277       4.439175236125215E-002
  7.563351967835399E-002  0.103988892650717       0.130161343236378     
  0.153808024512755       0.174409214764157       0.191612924094944     
  0.205239507252419       0.214999227347776       0.220308811349302     
  6.130544693415280E-002  9.861461277282806E-002  0.130250211534794     
  0.158513294359288       0.183880680634265       0.206368626257135     
  0.225845329742680       0.242081296111307       0.254686546296224     
  0.262821429165343       8.913715841414308E-002  0.138011831968856     
  0.176885380251591       0.210253598953199       0.239522173205780     
  0.265212861458927       0.287471976526292       0.306215912830643     
  0.321120189843880       0.331241920948544       0.125902171328356     
  0.190820369625085       0.240143291719061       0.281058545090214     
  0.316054859862677       0.346211757157644       0.372000430845322     
  0.393541430749997       0.410604184594094       0.422204714401508     
  0.168788668344452       0.252878908005328       0.314981817073592     
  0.365297702023446       0.407486217995216       0.443225181852579     
  0.473336709708916       0.498157450986294       0.517567373188053     
  0.530555102989067       0.215914034743960       0.321334537212636     
  0.397830725407746       0.458851532499731       0.509301745171727     
  0.551492807680758       0.586623149907603       0.615254232387811     
  0.637372628132560       0.651927725193448       0.266296821592610     
  0.394649007903498       0.486702656329966       0.559351681736423     
  0.618827060031939       0.668114875301221       0.708801575141703     
  0.741677149447846       0.766838290391063       0.783188781877236     
  0.319245205300082       0.471745522017801       0.580211226500211     
  0.665151230124956       0.734187405815783       0.791011070048926     
  0.837613208102306       0.875021900279264       0.903452972919136     
  0.921769423352834       0.374178661786273       0.551730606804235     
  0.677213103756427       0.774881851140360       0.853804155408431     
  0.918408571640573       0.971110391256371        1.01319017394136     
   1.04499321065204        1.06535624302186       0.430835729817196     
  0.634157854788586       0.777084323093353       0.887740981492001     
  0.976689838623038        1.04913244735421        1.10793840110330     
   1.15466379719244        1.18980517473522        1.21219668332559     
  0.489507800345062       0.719411238636558       0.880213104036702     
   1.00404882096326        1.10303721041983        1.18319668814269     
   1.24790248879848        1.29903818935897        1.33729876778625     
   1.36156988666482       0.551913405578357       0.809984842023508     
  0.989478390890340        1.12678774605815        1.23573291971420     
   1.32326281339212        1.39335531466649        1.44832625436562     
   1.48917650409898        1.51495188932969       0.628092817573870     
  0.919031142466742        1.11909170746735        1.27030097869811     
   1.38885196756952        1.48298847006104        1.55750367325610     
   1.61528968502559        1.65779287689627        1.68439777092512     
  0.757049401643772        1.09255339425463        1.31594307262746     
   1.48144155280139        1.60931725044769        1.70955976504567     
   1.78801105508057        1.84829021638343        1.89236246181092     
   1.91994414290386       0.939635454273915        1.33168870291474     
   1.58057654930108        1.75894107576278        1.89309302563590     
   1.99612389077151        2.07560783597557        2.13613350178855     
   2.18025720822208        2.20814263165480        1.02864098652998     
   1.44610339333332        1.70208243117260        1.87881250436546     
   2.00796684632347        2.10498010463430        2.17841774608305     
   2.23328296417026        2.27233443204905        2.29626764914552     
  0.996410248015922        1.38593484519207        1.61677081960775     
   1.77168252441904        1.88248142047400        1.96440915273039     
   2.02560216613456        2.07057037623248        2.10160556356631     
   2.11929749878602       0.873982067532402        1.18999255618009     
   1.37028245483035        1.48941901127693        1.57405152992241     
   1.63641367653740        1.68288194531983        1.71695051203995     
   1.74044109905958        1.75395604783728       0.672425741620679     
  0.887020358859129        1.00781650793004        1.08784716509177     
   1.14491579654419        1.18712320755485        1.21872130489208     
   1.24211946047837        1.25889150266609        1.27127346377859     
  0.409575819394145       0.529804319898981       0.598145489657169     
  0.643695047081330       0.676298390095609       0.700473727004636     
  0.718603807031936       0.732016712262254       0.741447136239629     
  0.747156333031001     
  0.000000000000000E+000  0.000000000000000E+000  0.000000000000000E+000
  0.000000000000000E+000  0.000000000000000E+000  0.000000000000000E+000
  0.000000000000000E+000  0.000000000000000E+000  0.000000000000000E+000
  0.000000000000000E+000  0.000000000000000E+000  0.000000000000000E+000
  0.000000000000000E+000  0.000000000000000E+000  0.000000000000000E+000
  0.000000000000000E+000  0.000000000000000E+000  0.000000000000000E+000
  0.000000000000000E+000  0.000000000000000E+000  0.000000000000000E+000
  0.000000000000000E+000  0.000000000000000E+000  0.000000000000000E+000
  0.000000000000000E+000  0.000000000000000E+000  0.000000000000000E+000
  0.000000000000000E+000  0.000000000000000E+000  0.000000000000000E+000
  0.000000000000000E+000  0.000000000000000E+000  0.000000000000000E+000
  0.000000000000000E+000  0.000000000000000E+000  0.000000000000000E+000
  0.000000000000000E+000  0.000000000000000E+000  0.000000000000000E+000
  0.000000000000000E+000  0.000000000000000E+000  0.000000000000000E+000
  0.000000000000000E+000  0.000000000000000E+000  0.000000000000000E+000
  0.000000000000000E+000  0.000000000000000E+000  0.000000000000000E+000
  0.000000000000000E+000  0.000000000000000E+000  0.000000000000000E+000
  0.000000000000000E+000  0.000000000000000E+000  0.000000000000000E+000
  0.000000000000000E+000  0.000000000000000E+000  0.000000000000000E+000
  0.000000000000000E+000  0.000000000000000E+000  0.000000000000000E+000
  0.000000000000000E+000  0.000000000000000E+000  0.000000000000000E+000
  0.000000000000000E+000  0.000000000000000E+000  0.000000000000000E+000
  0.000000000000000E+000  0.000000000000000E+000  0.000000000000000E+000
  0.000000000000000E+000  0.000000000000000E+000  0.000000000000000E+000
  0.000000000000000E+000  0.000000000000000E+000  0.000000000000000E+000
  0.000000000000000E+000  0.000000000000000E+000  0.000000000000000E+000
  0.000000000000000E+000  0.000000000000000E+000  0.000000000000000E+000
  0.000000000000000E+000  0.000000000000000E+000  0.000000000000000E+000
  0.000000000000000E+000  0.000000000000000E+000  0.000000000000000E+000
  0.000000000000000E+000  0.000000000000000E+000  0.000000000000000E+000
  0.000000000000000E+000  0.000000000000000E+000  0.000000000000000E+000
  0.000000000000000E+000  0.000000000000000E+000  0.000000000000000E+000
  0.000000000000000E+000  0.000000000000000E+000  0.000000000000000E+000
  0.000000000000000E+000  0.000000000000000E+000  0.000000000000000E+000
  0.000000000000000E+000  0.000000000000000E+000  0.000000000000000E+000
  0.000000000000000E+000  0.000000000000000E+000  0.000000000000000E+000
  0.000000000000000E+000  0.000000000000000E+000  0.000000000000000E+000
  0.000000000000000E+000  0.000000000000000E+000  0.000000000000000E+000
  0.000000000000000E+000  0.000000000000000E+000  0.000000000000000E+000