 Title = "Wing and Wake"
 VARIABLES = "X" "Y" "Z" "GAM" "skew"
 Zone I=   11 J=   26 K=1  T="Blade"
 DATAPACKING=BLOCK
 VARLOCATION=([4]=CELLCENTERED,[5]=CELLCENTERED)
  0.125297612489713       0.130955238122944       0.136612863756175     
  0.142270489389406       0.147928115022637       0.153585740655867     
  0.159243366289098       0.164900991922329       0.170558617555560     
  0.176216243188791       0.181873868822022       0.128882076630790     
  0.134539702264021       0.140197327897252       0.145854953530483     
  0.151512579163713       0.157170204796944       0.162827830430175     
  0.168485456063406       0.174143081696637       0.179800707329868     
  0.185458332963098       0.139578939913260       0.145236565546491     
  0.150894191179722       0.156551816812952       0.162209442446183     
  0.167867068079414       0.173524693712645       0.179182319345876     
  0.184839944979107       0.190497570612338       0.196155196245569     
  0.157219506413163       0.162877132046394       0.168534757679625     
  0.174192383312856       0.179850008946086       0.185507634579317     
  0.191165260212548       0.196822885845779       0.202480511479010     
  0.208138137112241       0.213795762745471       0.181525573858831     
  0.187183199492062       0.192840825125293       0.198498450758524     
  0.204156076391755       0.209813702024986       0.215471327658217     
  0.221128953291447       0.226786578924678       0.232444204557909     
  0.238101830191140       0.212113821046906       0.217771446680137     
  0.223429072313368       0.229086697946598       0.234744323579830     
  0.240401949213061       0.246059574846291       0.251717200479522     
  0.257374826112753       0.263032451745984       0.268690077379215     
  0.248501853046698       0.254159478679929       0.259817104313160     
  0.265474729946391       0.271132355579622       0.276789981212852     
  0.282447606846083       0.288105232479314       0.293762858112545     
  0.299420483745776       0.305078109379006       0.290115808856414     
  0.295773434489645       0.301431060122876       0.307088685756107     
  0.312746311389337       0.318403937022568       0.324061562655799     
  0.329719188289030       0.335376813922261       0.341034439555492     
  0.346692065188723       0.336299411533962       0.341957037167194     
  0.347614662800424       0.353272288433655       0.358929914066886     
  0.364587539700117       0.370245165333348       0.375902790966578     
  0.381560416599809       0.387218042233040       0.392875667866271     
  0.386324318076372       0.391981943709602       0.397639569342833     
  0.403297194976064       0.408954820609295       0.414612446242526     
  0.420270071875756       0.425927697508987       0.431585323142218     
  0.437242948775450       0.442900574408680       0.439401605824036     
  0.445059231457267       0.450716857090499       0.456374482723729     
  0.462032108356960       0.467689733990191       0.473347359623422     
  0.479004985256652       0.484662610889883       0.490320236523114     
  0.495977862156345       0.494694214242342       0.500351839875574     
  0.506009465508804       0.511667091142034       0.517324716775266     
  0.522982342408497       0.528639968041727       0.534297593674958     
  0.539955219308189       0.545612844941420       0.551270470574651     
  0.551330145866328       0.556987771499560       0.562645397132790     
  0.568303022766021       0.573960648399252       0.579618274032483     
  0.585275899665714       0.590933525298944       0.596591150932176     
  0.602248776565406       0.607906402198638       0.608416218221620     
  0.614073843854851       0.619731469488082       0.625389095121313     
  0.631046720754543       0.636704346387774       0.642361972021005     
  0.648019597654236       0.653677223287466       0.659334848920698     
  0.664992474553928       0.665052149845606       0.670709775478837     
  0.676367401112068       0.682025026745299       0.687682652378529     
  0.693340278011760       0.698997903644991       0.704655529278223     
  0.710313154911453       0.715970780544684       0.721628406177915     
  0.720344758263912       0.726002383897143       0.731660009530374     
  0.737317635163605       0.742975260796835       0.748632886430066     
  0.754290512063296       0.759948137696529       0.765605763329759     
  0.771263388962989       0.776921014596221       0.773422046011577     
  0.779079671644808       0.784737297278039       0.790394922911269     
  0.796052548544500       0.801710174177731       0.807367799810963     
  0.813025425444193       0.818683051077424       0.824340676710654     
  0.829998302343886       0.823446952553986       0.829104578187216     
  0.834762203820448       0.840419829453679       0.846077455086908     
  0.851735080720140       0.857392706353370       0.863050331986601     
  0.868707957619832       0.874365583253064       0.880023208886294     
  0.869630555231534       0.875288180864764       0.880945806497996     
  0.886603432131228       0.892261057764458       0.897918683397688     
  0.903576309030919       0.909233934664150       0.914891560297381     
  0.920549185930611       0.926206811563843       0.911244511041250     
  0.916902136674482       0.922559762307712       0.928217387940943     
  0.933875013574174       0.939532639207404       0.945190264840636     
  0.950847890473867       0.956505516107096       0.962163141740328     
  0.967820767373558       0.947632543041042       0.953290168674273     
  0.958947794307505       0.964605419940734       0.970263045573965     
  0.975920671207195       0.981578296840428       0.987235922473659     
  0.992893548106888       0.998551173740119        1.00420879937335     
  0.978220790229116       0.983878415862349       0.989536041495579     
  0.995193667128810        1.00085129276204        1.00650891839527     
   1.01216654402850        1.01782416966173        1.02348179529496     
   1.02913942092819        1.03479704656143        1.00252685767479     
   1.00818448330802        1.01384210894125        1.01949973457448     
   1.02515736020771        1.03081498584094        1.03647261147417     
   1.04213023710740        1.04778786274063        1.05344548837386     
   1.05910311400709        1.02016742417469        1.02582504980792     
   1.03148267544115        1.03714030107438        1.04279792670761     
   1.04845555234084        1.05411317797407        1.05977080360730     
   1.06542842924054        1.07108605487377        1.07674368050700     
   1.03086428745716        1.03652191309039        1.04217953872362     
   1.04783716435685        1.05349478999008        1.05915241562331     
   1.06481004125654        1.07046766688977        1.07612529252300     
   1.08178291815624        1.08744054378947        1.03444875159824     
   1.04010637723147        1.04576400286470        1.05142162849793     
   1.05707925413116        1.06273687976439        1.06839450539762     
   1.07405213103085        1.07970975666408        1.08536738229731     
   1.09102500793055     
  0.237949281644982       0.219834726171884       0.201720170698785     
  0.183605615225687       0.165491059752588       0.147376504279489     
  0.129261948806391       0.111147393333292       9.303283786019392E-002
  7.491828238709521E-002  5.680372691399668E-002  0.239068798833028     
  0.220954243359930       0.202839687886831       0.184725132413733     
  0.166610576940634       0.148496021467536       0.130381465994437     
  0.112266910521339       9.415235504824006E-002  7.603779957514155E-002
  5.792324410204302E-002  0.242409694942345       0.224295139469246     
  0.206180583996148       0.188066028523049       0.169951473049950     
  0.151836917576852       0.133722362103753       0.115607806630655     
  9.749325115755635E-002  7.937869568445793E-002  6.126414021135929E-002
  0.247919282045533       0.229804726572434       0.211690171099336     
  0.193575615626237       0.175461060153139       0.157346504680040     
  0.139231949206941       0.121117393733843       0.103002838260744     
  8.488828278764581E-002  6.677372731454724E-002  0.255510670662707     
  0.237396115189608       0.219281559716510       0.201167004243411     
  0.183052448770313       0.164937893297214       0.146823337824116     
  0.128708782351017       0.110594226877918       9.247967140481990E-002
  7.436511593172145E-002  0.265064140060499       0.246949584587400     
  0.228835029114301       0.210720473641203       0.192605918168105     
  0.174491362695006       0.156376807221908       0.138262251748809     
  0.120147696275710       0.102033140802612       8.391858532951323E-002
  0.276429026319539       0.258314470846441       0.240199915373342     
  0.222085359900244       0.203970804427145       0.185856248954047     
  0.167741693480948       0.149627138007850       0.131512582534751     
  0.113398027061653       9.528347158855403E-002  0.289426098394470     
  0.271311542921371       0.253196987448273       0.235082431975174     
  0.216967876502076       0.198853321028977       0.180738765555879     
  0.162624210082780       0.144509654609681       0.126395099136583     
  0.108280543663484       0.303850384694593       0.285735829221495     
  0.267621273748396       0.249506718275298       0.231392162802199     
  0.213277607329101       0.195163051856002       0.177048496382904     
  0.158933940909805       0.140819385436707       0.122704829963608     
  0.319474405608307       0.301359850135208       0.283245294662109     
  0.265130739189011       0.247016183715912       0.228901628242814     
  0.210787072769716       0.192672517296617       0.174557961823518     
  0.156443406350420       0.138328850877321       0.336051760992463     
  0.317937205519364       0.299822650046266       0.281708094573167     
  0.263593539100068       0.245478983626970       0.227364428153871     
  0.209249872680772       0.191135317207674       0.173020761734576     
  0.154906206261477       0.353321016049821       0.335206460576723     
  0.317091905103623       0.298977349630525       0.280862794157427     
  0.262748238684328       0.244633683211229       0.226519127738131     
  0.208404572265032       0.190290016791934       0.172175461318836     
  0.371009824311973       0.352895268838875       0.334780713365777     
  0.316666157892678       0.298551602419579       0.280437046946481     
  0.262322491473383       0.244207936000284       0.226093380527185     
  0.207978825054087       0.189864269580988       0.388839222705846     
  0.370724667232747       0.352610111759649       0.334495556286550     
  0.316381000813451       0.298266445340352       0.280151889867254     
  0.262037334394156       0.243922778921057       0.225808223447958     
  0.207693667974860       0.406528030967999       0.388413475494900     
  0.370298920021801       0.352184364548703       0.334069809075605     
  0.315955253602506       0.297840698129407       0.279726142656309     
  0.261611587183210       0.243497031710112       0.225382476237013     
  0.423797286025356       0.405682730552258       0.387568175079160     
  0.369453619606062       0.351339064132962       0.333224508659864     
  0.315109953186766       0.296995397713667       0.278880842240569     
  0.260766286767469       0.242651731294371       0.440374641409513     
  0.422260085936415       0.404145530463315       0.386030974990217     
  0.367916419517119       0.349801864044020       0.331687308570921     
  0.313572753097823       0.295458197624725       0.277343642151625     
  0.259229086678528       0.455998662323226       0.437884106850127     
  0.419769551377030       0.401654995903930       0.383540440430831     
  0.365425884957733       0.347311329484634       0.329196774011536     
  0.311082218538437       0.292967663065339       0.274853107592241     
  0.470422948623350       0.452308393150251       0.434193837677152     
  0.416079282204054       0.397964726730956       0.379850171257857     
  0.361735615784758       0.343621060311660       0.325506504838561     
  0.307391949365463       0.289277393892365       0.483420020698280     
  0.465305465225182       0.447190909752083       0.429076354278985     
  0.410961798805887       0.392847243332787       0.374732687859689     
  0.356618132386590       0.338503576913492       0.320389021440393     
  0.302274465967294       0.494784906957320       0.476670351484221     
  0.458555796011125       0.440441240538025       0.422326685064927     
  0.404212129591828       0.386097574118730       0.367983018645631     
  0.349868463172532       0.331753907699434       0.313639352226335     
  0.504338376355113       0.486223820882014       0.468109265408915     
  0.449994709935818       0.431880154462719       0.413765598989620     
  0.395651043516521       0.377536488043422       0.359421932570325     
  0.341307377097226       0.323192821624127       0.511929764972288     
  0.493815209499188       0.475700654026090       0.457586098552991     
  0.439471543079892       0.421356987606795       0.403242432133696     
  0.385127876660597       0.367013321187498       0.348898765714400     
  0.330784210241301       0.517439352075476       0.499324796602376     
  0.481210241129278       0.463095685656179       0.444981130183081     
  0.426866574709982       0.408752019236884       0.390637463763784     
  0.372522908290687       0.354408352817588       0.336293797344489     
  0.520780248184790       0.502665692711693       0.484551137238593     
  0.466436581765494       0.448322026292397       0.430207470819298     
  0.412092915346199       0.393978359873101       0.375863804400002     
  0.357749248926904       0.339634693453805       0.521899765372837     
  0.503785209899739       0.485670654426640       0.467556098953541     
  0.449441543480443       0.431326988007346       0.413212432534246     
  0.395097877061147       0.376983321588049       0.358868766114950     
  0.340754210641852     
  1.660316899342888E-002  1.494285209408599E-002  1.328253519474311E-002
  1.162221829540022E-002  9.961901396057328E-003  8.301584496714441E-003
  6.641267597371552E-003  4.980950698028665E-003  3.320633798685776E-003
  1.660316899342887E-003  0.000000000000000E+000  1.660316899342888E-002
  1.494285209408599E-002  1.328253519474311E-002  1.162221829540022E-002
  9.961901396057328E-003  8.301584496714441E-003  6.641267597371552E-003
  4.980950698028665E-003  3.320633798685776E-003  1.660316899342887E-003
  0.000000000000000E+000  1.660316899342888E-002  1.494285209408599E-002
  1.328253519474311E-002  1.162221829540022E-002  9.961901396057328E-003
  8.301584496714441E-003  6.641267597371552E-003  4.980950698028665E-003
  3.320633798685776E-003  1.660316899342887E-003  0.000000000000000E+000
  1.660316899342888E-002  1.494285209408599E-002  1.328253519474311E-002
  1.162221829540022E-002  9.961901396057328E-003  8.301584496714441E-003
  6.641267597371552E-003  4.980950698028665E-003  3.320633798685776E-003
  1.660316899342887E-003  0.000000000000000E+000  1.660316899342888E-002
  1.494285209408599E-002  1.328253519474311E-002  1.162221829540022E-002
  9.961901396057328E-003  8.301584496714441E-003  6.641267597371552E-003
  4.980950698028665E-003  3.320633798685776E-003  1.660316899342887E-003
  0.000000000000000E+000  1.660316899342888E-002  1.494285209408599E-002
  1.328253519474311E-002  1.162221829540022E-002  9.961901396057328E-003
  8.301584496714441E-003  6.641267597371552E-003  4.980950698028665E-003
  3.320633798685776E-003  1.660316899342887E-003  0.000000000000000E+000
  1.660316899342888E-002  1.494285209408599E-002  1.328253519474311E-002
  1.162221829540022E-002  9.961901396057328E-003  8.301584496714441E-003
  6.641267597371552E-003  4.980950698028665E-003  3.320633798685776E-003
  1.660316899342887E-003  0.000000000000000E+000  1.660316899342888E-002
  1.494285209408599E-002  1.328253519474311E-002  1.162221829540022E-002
  9.961901396057328E-003  8.301584496714441E-003  6.641267597371552E-003
  4.980950698028665E-003  3.320633798685776E-003  1.660316899342887E-003
  0.000000000000000E+000  1.660316899342888E-002  1.494285209408599E-002
  1.328253519474311E-002  1.162221829540022E-002  9.961901396057328E-003
  8.301584496714441E-003  6.641267597371552E-003  4.980950698028665E-003
  3.320633798685776E-003  1.660316899342887E-003  0.000000000000000E+000
  1.660316899342888E-002  1.494285209408599E-002  1.328253519474311E-002
  1.162221829540022E-002  9.961901396057328E-003  8.301584496714441E-003
  6.641267597371552E-003  4.980950698028665E-003  3.320633798685776E-003
  1.660316899342887E-003  0.000000000000000E+000  1.660316899342888E-002
  1.494285209408599E-002  1.328253519474311E-002  1.162221829540022E-002
  9.961901396057328E-003  8.301584496714441E-003  6.641267597371552E-003
  4.980950698028665E-003  3.320633798685776E-003  1.660316899342887E-003
  0.000000000000000E+000  1.660316899342888E-002  1.494285209408599E-002
  1.328253519474311E-002  1.162221829540022E-002  9.961901396057328E-003
  8.301584496714441E-003  6.641267597371552E-003  4.980950698028665E-003
  3.320633798685776E-003  1.660316899342887E-003  0.000000000000000E+000
  1.660316899342888E-002  1.494285209408599E-002  1.328253519474311E-002
  1.162221829540022E-002  9.961901396057328E-003  8.301584496714441E-003
  6.641267597371552E-003  4.980950698028665E-003  3.320633798685776E-003
  1.660316899342887E-003  0.000000000000000E+000  1.660316899342888E-002
  1.494285209408599E-002  1.328253519474311E-002  1.162221829540022E-002
  9.961901396057328E-003  8.301584496714441E-003  6.641267597371552E-003
  4.980950698028665E-003  3.320633798685776E-003  1.660316899342887E-003
  0.000000000000000E+000  1.660316899342888E-002  1.494285209408599E-002
  1.328253519474311E-002  1.162221829540022E-002  9.961901396057328E-003
  8.301584496714441E-003  6.641267597371552E-003  4.980950698028665E-003
  3.320633798685776E-003  1.660316899342887E-003  0.000000000000000E+000
  1.660316899342888E-002  1.494285209408599E-002  1.328253519474311E-002
  1.162221829540022E-002  9.961901396057328E-003  8.301584496714441E-003
  6.641267597371552E-003  4.980950698028665E-003  3.320633798685776E-003
  1.660316899342887E-003  0.000000000000000E+000  1.660316899342888E-002
  1.494285209408599E-002  1.328253519474311E-002  1.162221829540022E-002
  9.961901396057328E-003  8.301584496714441E-003  6.641267597371552E-003
  4.980950698028665E-003  3.320633798685776E-003  1.660316899342887E-003
  0.000000000000000E+000  1.660316899342888E-002  1.494285209408599E-002
  1.328253519474311E-002  1.162221829540022E-002  9.961901396057328E-003
  8.301584496714441E-003  6.641267597371552E-003  4.980950698028665E-003
  3.320633798685776E-003  1.660316899342887E-003  0.000000000000000E+000
  1.660316899342888E-002  1.494285209408599E-002  1.328253519474311E-002
  1.162221829540022E-002  9.961901396057328E-003  8.301584496714441E-003
  6.641267597371552E-003  4.980950698028665E-003  3.320633798685776E-003
  1.660316899342887E-003  0.000000000000000E+000  1.660316899342888E-002
  1.494285209408599E-002  1.328253519474311E-002  1.162221829540022E-002
  9.961901396057328E-003  8.301584496714441E-003  6.641267597371552E-003
  4.980950698028665E-003  3.320633798685776E-003  1.660316899342887E-003
  0.000000000000000E+000  1.660316899342888E-002  1.494285209408599E-002
  1.328253519474311E-002  1.162221829540022E-002  9.961901396057328E-003
  8.301584496714441E-003  6.641267597371552E-003  4.980950698028665E-003
  3.320633798685776E-003  1.660316899342887E-003  0.000000000000000E+000
  1.660316899342888E-002  1.494285209408599E-002  1.328253519474311E-002
  1.162221829540022E-002  9.961901396057328E-003  8.301584496714441E-003
  6.641267597371552E-003  4.980950698028665E-003  3.320633798685776E-003
  1.660316899342887E-003  0.000000000000000E+000  1.660316899342888E-002
  1.494285209408599E-002  1.328253519474311E-002  1.162221829540022E-002
  9.961901396057328E-003  8.301584496714441E-003  6.641267597371552E-003
  4.980950698028665E-003  3.320633798685776E-003  1.660316899342887E-003
  0.000000000000000E+000  1.660316899342888E-002  1.494285209408599E-002
  1.328253519474311E-002  1.162221829540022E-002  9.961901396057328E-003
  8.301584496714441E-003  6.641267597371552E-003  4.980950698028665E-003
  3.320633798685776E-003  1.660316899342887E-003  0.000000000000000E+000
  1.660316899342888E-002  1.494285209408599E-002  1.328253519474311E-002
  1.162221829540022E-002  9.961901396057328E-003  8.301584496714441E-003
  6.641267597371552E-003  4.980950698028665E-003  3.320633798685776E-003
  1.660316899342887E-003  0.000000000000000E+000  1.660316899342888E-002
  1.494285209408599E-002  1.328253519474311E-002  1.162221829540022E-002
  9.961901396057328E-003  8.301584496714441E-003  6.641267597371552E-003
  4.980950698028665E-003  3.320633798685776E-003  1.660316899342887E-003
  0.000000000000000E+000
  3.966011670343035E-002  5.934605035492518E-002  7.569410521183760E-002
  9.034841317901252E-002  0.103704751682794       0.115780712977512     
  0.126381232394941       0.135286590631313       0.142414449975251     
  0.147721220474030       6.547511616463034E-002  9.930566212268516E-002
  0.127097017178838       0.151882507572512       0.174376642998395     
  0.194640250741570       0.212399499873872       0.227366643446551     
  0.239512184243147       0.249108392981773       8.604182328061498E-002
  0.133257803790097       0.171760270172951       0.205825788836730     
  0.236520258628201       0.264004353492754       0.288039657798595     
  0.308353685814039       0.324820516412535       0.337061593284554     
  9.994264386876302E-002  0.156699149926927       0.203174395257085     
  0.244127104798191       0.280798711892035       0.313416111120446     
  0.341809854674537       0.365706866770726       0.384865723567932     
  0.398431391682209       0.109192730641302       0.171726528693143     
  0.223009357973482       0.268079546520027       0.308279895263512     
  0.343902925844248       0.374869574451883       0.400885537535549     
  0.421406618090747       0.435255252399909       0.117541016803254     
  0.184046534907171       0.238143987748708       0.285383658643290     
  0.327323458090557       0.364362677942481       0.396449856620771     
  0.423290867948487       0.444303218628067       0.458158160553432     
  0.129335164406117       0.200493038163603       0.257272483230485     
  0.306150144227587       0.349085035465131       0.386721580722691     
  0.419160976953803       0.446162864754233       0.467114176470516     
  0.480682407377104       0.147492724889462       0.225829523955728     
  0.286721355125018       0.338095928349853       0.382536359727146     
  0.421039737329865       0.453905148783072       0.481021809774832     
  0.501901451106149       0.515291830237753       0.172858296341593     
  0.261677395676611       0.328927781888743       0.384481283220237     
  0.431720990103109       0.472087831827251       0.506173788267126     
  0.534079178250829       0.555465912220132       0.569130671582414     
  0.204955191751179       0.307520324026925       0.383497248135337     
  0.445131806007859       0.496763531852282       0.540345407807600     
  0.576796677509345       0.606448166027362       0.629102716374592     
  0.643586350099648       0.242902413604692       0.362153149882863     
  0.449059367862551       0.518585252856171       0.576143367288846     
  0.624251893057182       0.664179371461109       0.696483127404785     
  0.721097719843438       0.736853288629732       0.285882249766137     
  0.424355939400741       0.524076891420004       0.603025914238788     
  0.667795628142600       0.721513742880834       0.765813570102558     
  0.801483804218463       0.828580365177808       0.845910284332573     
  0.333206644684305       0.493044915733264       0.607138363374646     
  0.696743138292683       0.769723550802143       0.829866311696130     
  0.879192624541698       0.918725424103847       0.948644875791696     
  0.967734353078385       0.384581269200349       0.567682825257288     
  0.697455895757045       0.798692480919454       0.880632929868166     
  0.947775197932460        1.00255859922091        1.04626180098125     
   1.07920430308487        1.10015894048796       0.440480493821524     
  0.648793426493804       0.795469405795410       0.909159343874533     
   1.00060902713173        1.07510670142442        1.13556655607119     
   1.18356306444279        1.21958774137565        1.24243237472612     
  0.502370528802150       0.738275871257847       0.903178527073809     
   1.03005703338518        1.13136925415731        1.21331754983237     
   1.27938959111406        1.33153770253062        1.37049005895111     
   1.39512103940849       0.573797089389486       0.840638059274744     
   1.02526728814102        1.16585582303528        1.27697920816770     
   1.36599469270594        1.43712050442369        1.49281673741820     
   1.53416635333099        1.56023998411366       0.664008910391626     
  0.966902839771381        1.17265214814755        1.32672121819784     
   1.44670939523790        1.54157577451131        1.61649300343151     
   1.67454998468183        1.71729271007794        1.74414308083843     
  0.781973109032462        1.12616364462683        1.35296447001142     
   1.51876580885100        1.64548200504737        1.74414442203095     
   1.82106144753479        1.88001944065092        1.92304457856011     
   1.94994726792036       0.889081160605024        1.26743994842983     
   1.50901837851922        1.68076665212918        1.80894603591872     
   1.90678225762727        1.98178161172717        2.03841066135855     
   2.07912914854069        2.10420748074258       0.924071981414572     
   1.30616765578950        1.54300326936049        1.70669068603621     
   1.82581756390606        1.91478581634299        1.98164220453026     
   2.03104317549885        2.06551786732048        2.08575059247518     
  0.883320763403951        1.23203433772412        1.44016829511224     
   1.58020749415453        1.68021343514580        1.75382143980750     
   1.80838210768288        1.84798120595128        1.87470008679276     
   1.88914738716151       0.775207048385291        1.05631794611583     
   1.21721055185215        1.32364521538179        1.39911196087529     
   1.45445497333689        1.49536813932409        1.52499088243340     
   1.54498491414515        1.55599779435399       0.598216037973961     
  0.788779563051923       0.896141947989035       0.967265635081331     
   1.01785802665440        1.05508467354322        1.08272935177976     
   1.10295334021907        1.11718914283812        1.12750948795198     
  0.364922961736142       0.471623352156116       0.532287011831693     
  0.572699099937050       0.601546902548371       0.622824841675953     
  0.638652219251088       0.650220816558176       0.658203188663654     
  0.662881642590340     
  0.000000000000000E+000  0.000000000000000E+000  0.000000000000000E+000
  0.000000000000000E+000  0.000000000000000E+000  0.000000000000000E+000
  0.000000000000000E+000  0.000000000000000E+000  0.000000000000000E+000
  0.000000000000000E+000  0.000000000000000E+000  0.000000000000000E+000
  0.000000000000000E+000  0.000000000000000E+000  0.000000000000000E+000
  0.000000000000000E+000  0.000000000000000E+000  0.000000000000000E+000
  0.000000000000000E+000  0.000000000000000E+000  0.000000000000000E+000
  0.000000000000000E+000  0.000000000000000E+000  0.000000000000000E+000
  0.000000000000000E+000  0.000000000000000E+000  0.000000000000000E+000
  0.000000000000000E+000  0.000000000000000E+000  0.000000000000000E+000
  0.000000000000000E+000  0.000000000000000E+000  0.000000000000000E+000
  0.000000000000000E+000  0.000000000000000E+000  0.000000000000000E+000
  0.000000000000000E+000  0.000000000000000E+000  0.000000000000000E+000
  0.000000000000000E+000  0.000000000000000E+000  0.000000000000000E+000
  0.000000000000000E+000  0.000000000000000E+000  0.000000000000000E+000
  0.000000000000000E+000  0.000000000000000E+000  0.000000000000000E+000
  0.000000000000000E+000  0.000000000000000E+000  0.000000000000000E+000
  0.000000000000000E+000  0.000000000000000E+000  0.000000000000000E+000
  0.000000000000000E+000  0.000000000000000E+000  0.000000000000000E+000
  0.000000000000000E+000  0.000000000000000E+000  0.000000000000000E+000
  0.000000000000000E+000  0.000000000000000E+000  0.000000000000000E+000
  0.000000000000000E+000  0.000000000000000E+000  0.000000000000000E+000
  0.000000000000000E+000  0.000000000000000E+000  0.000000000000000E+000
  0.000000000000000E+000  0.000000000000000E+000  0.000000000000000E+000
  0.000000000000000E+000  0.000000000000000E+000  0.000000000000000E+000
  0.000000000000000E+000  0.000000000000000E+000  0.000000000000000E+000
  0.000000000000000E+000  0.000000000000000E+000  0.000000000000000E+000
  0.000000000000000E+000  0.000000000000000E+000  0.000000000000000E+000
  0.000000000000000E+000  0.000000000000000E+000  0.000000000000000E+000
  0.000000000000000E+000  0.000000000000000E+000  0.000000000000000E+000
  0.000000000000000E+000  0.000000000000000E+000  0.000000000000000E+000
  0.000000000000000E+000  0.000000000000000E+000  0.000000000000000E+000
  0.000000000000000E+000  0.000000000000000E+000  0.000000000000000E+000
  0.000000000000000E+000  0.000000000000000E+000  0.000000000000000E+000
  0.000000000000000E+000  0.000000000000000E+000  0.000000000000000E+000
  0.000000000000000E+000  0.000000000000000E+000  0.000000000000000E+000
  0.000000000000000E+000  0.000000000000000E+000  0.000000000000000E+000
  0.000000000000000E+000  0.000000000000000E+000  0.000000000000000E+000
  0.000000000000000E+000  0.000000000000000E+000  0.000000000000000E+000