 Title = "Wing and Wake"
 VARIABLES = "X" "Y" "Z" "GAM" "skew"
 Zone I=   11 J=   26 K=1  T="Blade"
 DATAPACKING=BLOCK
 VARLOCATION=([4]=CELLCENTERED,[5]=CELLCENTERED)
  0.112554063063470       9.473726901147490E-002  7.692047495947893E-002
  5.910368090748291E-002  4.128688685548700E-002  2.347009280349057E-002
  5.653298751494850E-003 -1.216349530050102E-002 -2.998028935249693E-002
 -4.779708340449289E-002 -6.561387745648882E-002  0.111260910878260     
  9.344411682626426E-002  7.562732277426890E-002  5.781052872227303E-002
  3.999373467027682E-002  2.217694061828099E-002  4.360146566284996E-003
 -1.345664748571080E-002 -3.127344153770708E-002 -4.909023558970261E-002
 -6.690702964169885E-002  0.107401848105083       8.958505405308746E-002
  7.176826000109170E-002  5.395146594909543E-002  3.613467189709949E-002
  1.831787784510360E-002  5.010837931073887E-004 -1.731571025888814E-002
 -3.513250431088442E-002 -5.294929836288023E-002 -7.076609241487603E-002
  0.101037734469163       8.322094041716799E-002  6.540414636517168E-002
  4.758735231317592E-002  2.977055826118001E-002  1.195376420918409E-002
 -5.863029842812248E-003 -2.367982389480778E-002 -4.149661794680355E-002
 -5.931341199879971E-002 -7.713020605079528E-002  9.226893584427767E-002
  7.445214179228198E-002  5.663534774028578E-002  3.881855368828943E-002
  2.100175963629395E-002  3.184965584297706E-003 -1.463182846769811E-002
 -3.244862251969394E-002 -5.026541657168970E-002 -6.808221062368582E-002
 -8.589900467568153E-002  8.123374142296624E-002  6.341694737097024E-002
  4.560015331897447E-002  2.778335926697857E-002  9.966565214982423E-003
 -7.850228837013693E-003 -2.566702288900961E-002 -4.348381694100503E-002
 -6.130061099300119E-002 -7.911740504499735E-002 -9.693419909699363E-002
  6.810618281335873E-002  5.028938876136284E-002  3.247259470936720E-002
  1.465580065737105E-002 -3.160993394625190E-003 -2.097778744662104E-002
 -3.879458149861643E-002 -5.661137555061326E-002 -7.442816960260912E-002
 -9.224496365460451E-002 -0.110061757706600       5.309328945675235E-002
  3.527649540475653E-002  1.745970135276048E-002 -3.570926992356265E-004
 -1.817388675123126E-002 -3.599068080322766E-002 -5.380747485522364E-002
 -7.162426890721940E-002 -8.944106295921522E-002 -0.107257857011211     
 -0.125074651063207       3.643182364964771E-002  1.861502959765200E-002
  7.982355456563174E-004 -1.701855850633965E-002 -3.483535255833563E-002
 -5.265214661033140E-002 -7.046894066232759E-002 -8.828573471432283E-002
 -0.106102528766319      -0.123919322818315      -0.141736116870311     
  1.838454666090218E-002  5.677526089056205E-004 -1.724904144308976E-002
 -3.506583549508586E-002 -5.288262954708186E-002 -7.069942359907702E-002
 -8.851621765107377E-002 -0.106333011703069      -0.124149805755066     
 -0.141966599807061      -0.159783393859057      -7.639251704529145E-004
 -1.858071922244888E-002 -3.639751327444545E-002 -5.421430732644164E-002
 -7.203110137843691E-002 -8.984789543043303E-002 -0.107664689482428     
 -0.125481483534425      -0.143298277586421      -0.161115071638417     
 -0.178931865690413      -2.071160900489336E-002 -3.852840305689080E-002
 -5.634519710888659E-002 -7.416199116088222E-002 -9.197878521287850E-002
 -0.109795579264875      -0.127612373316870      -0.145429167368866     
 -0.163245961420862      -0.181062755472858      -0.198879549524853     
 -4.114391795218358E-002 -5.896071200418064E-002 -7.677750605617552E-002
 -9.459430010817220E-002 -0.112411094160168      -0.130227888212163     
 -0.148044682264160      -0.165861476316156      -0.183678270368152     
 -0.201495064420146      -0.219311858472143      -6.173862229455242E-002
 -7.955541634654852E-002 -9.737221039854513E-002 -0.115189004450540     
 -0.133005798502536      -0.150822592554533      -0.168639386606529     
 -0.186456180658525      -0.204272974710520      -0.222089768762517     
 -0.239906562814512      -8.217093124184201E-002 -9.998772529383829E-002
 -0.117804519345834      -0.135621313397830      -0.153438107449825     
 -0.171254901501822      -0.189071695553818      -0.206888489605814     
 -0.224705283657810      -0.242522077709805      -0.260338871761802     
 -0.102118615076284      -0.119935409128280      -0.137752203180276     
 -0.155568997232272      -0.173385791284268      -0.191202585336263     
 -0.209019379388258      -0.226836173440256      -0.244652967492251     
 -0.262469761544248      -0.280286555596243      -0.121267086907639     
 -0.139083880959634      -0.156900675011630      -0.174717469063627     
 -0.192534263115623      -0.210351057167618      -0.228167851219615     
 -0.245984645271610      -0.263801439323605      -0.281618233375602     
 -0.299435027427598      -0.139314363896385      -0.157131157948380     
 -0.174947952000377      -0.192764746052373      -0.210581540104369     
 -0.228398334156365      -0.246215128208361      -0.264031922260357     
 -0.281848716312354      -0.299665510364349      -0.317482304416343     
 -0.155975829703488      -0.173792623755485      -0.191609417807481     
 -0.209426211859478      -0.227243005911471      -0.245059799963468     
 -0.262876594015465      -0.280693388067460      -0.298510182119457     
 -0.316326976171452      -0.334143770223447      -0.170988723060095     
 -0.188805517112091      -0.206622311164087      -0.224439105216083     
 -0.242255899268079      -0.260072693320075      -0.277889487372071     
 -0.295706281424067      -0.313523075476062      -0.331339869528059     
 -0.349156663580053      -0.184116281669701      -0.201933075721699     
 -0.219749869773695      -0.237566663825689      -0.255383457877686     
 -0.273200251929681      -0.291017045981678      -0.308833840033674     
 -0.326650634085670      -0.344467428137665      -0.362284222189661     
 -0.195151476091013      -0.212968270143010      -0.230785064195007     
 -0.248601858247002      -0.266418652298997      -0.284235446350995     
 -0.302052240402989      -0.319869034454987      -0.337685828506981     
 -0.355502622558978      -0.373319416610976      -0.203920274715899     
 -0.221737068767896      -0.239553862819892      -0.257370656871888     
 -0.275187450923884      -0.293004244975879      -0.310821039027874     
 -0.328637833079871      -0.346454627131867      -0.364271421183864     
 -0.382088215235859      -0.210284388351819      -0.228101182403816     
 -0.245917976455811      -0.263734770507808      -0.281551564559804     
 -0.299368358611803      -0.317185152663793      -0.335001946715790     
 -0.352818740767788      -0.370635534819782      -0.388452328871780     
 -0.214143451124997      -0.231960245176993      -0.249777039228991     
 -0.267593833280985      -0.285410627332981      -0.303227421384975     
 -0.321044215436973      -0.338861009488969      -0.356677803540964     
 -0.374494597592960      -0.392311391644956      -0.215436603310207     
 -0.233253397362203      -0.251070191414199      -0.268886985466195     
 -0.286703779518190      -0.304520573570186      -0.322337367622182     
 -0.340154161674180      -0.357970955726174      -0.375787749778169     
 -0.393604543830168     
 -0.244235409428872      -0.237700296767065      -0.231165184105257     
 -0.224630071443451      -0.218094958781643      -0.211559846119835     
 -0.205024733458029      -0.198489620796222      -0.191954508134415     
 -0.185419395472607      -0.178884282810800      -0.247760953264776     
 -0.241225840602969      -0.234690727941162      -0.228155615279355     
 -0.221620502617548      -0.215085389955740      -0.208550277293933     
 -0.202015164632126      -0.195480051970319      -0.188944939308511     
 -0.182409826646704      -0.258281984840139      -0.251746872178332     
 -0.245211759516525      -0.238676646854717      -0.232141534192910     
 -0.225606421531103      -0.219071308869296      -0.212536196207488     
 -0.206001083545681      -0.199465970883874      -0.192930858222067     
 -0.275632581202057      -0.269097468540250      -0.262562355878443     
 -0.256027243216636      -0.249492130554828      -0.242957017893021     
 -0.236421905231214      -0.229886792569406      -0.223351679907600     
 -0.216816567245792      -0.210281454583985      -0.299539113081160     
 -0.293004000419352      -0.286468887757544      -0.279933775095738     
 -0.273398662433931      -0.266863549772123      -0.260328437110316     
 -0.253793324448509      -0.247258211786701      -0.240723099124894     
 -0.234187986463087      -0.329624560188643      -0.323089447526835     
 -0.316554334865027      -0.310019222203221      -0.303484109541414     
 -0.296948996879606      -0.290413884217798      -0.283878771555992     
 -0.277343658894185      -0.270808546232377      -0.264273433570570     
 -0.365414457051446      -0.358879344389638      -0.352344231727832     
 -0.345809119066025      -0.339274006404217      -0.332738893742410     
 -0.326203781080603      -0.319668668418796      -0.313133555756987     
 -0.306598443095181      -0.300063330433373      -0.406344375616195     
 -0.399809262954389      -0.393274150292582      -0.386739037630775     
 -0.380203924968968      -0.373668812307160      -0.367133699645353     
 -0.360598586983547      -0.354063474321738      -0.347528361659931     
 -0.340993248998125      -0.451768826616777      -0.445233713954971     
 -0.438698601293163      -0.432163488631357      -0.425628375969549     
 -0.419093263307742      -0.412558150645935      -0.406023037984127     
 -0.399487925322320      -0.392952812660514      -0.386417699998706     
 -0.500971439325661      -0.494436326663853      -0.487901214002045     
 -0.481366101340239      -0.474830988678432      -0.468295876016624     
 -0.461760763354818      -0.455225650693010      -0.448690538031203     
 -0.442155425369396      -0.435620312707589      -0.553176259148210     
 -0.546641146486402      -0.540106033824595      -0.533570921162789     
 -0.527035808500980      -0.520500695839173      -0.513965583177367     
 -0.507430470515558      -0.500895357853753      -0.494360245191946     
 -0.487825132530137      -0.607559984890175      -0.601024872228369     
 -0.594489759566559      -0.587954646904753      -0.581419534242947     
 -0.574884421581140      -0.568349308919332      -0.561814196257525     
 -0.555279083595717      -0.548743970933910      -0.542208858272103     
 -0.663264952709341      -0.656729840047537      -0.650194727385728     
 -0.643659614723922      -0.637124502062113      -0.630589389400308     
 -0.624054276738501      -0.617519164076693      -0.610984051414885     
 -0.604448938753077      -0.597913826091271      -0.719412661986671     
 -0.712877549324863      -0.706342436663057      -0.699807324001249     
 -0.693272211339442      -0.686737098677634      -0.680201986015826     
 -0.673666873354022      -0.667131760692214      -0.660596648030406     
 -0.654061535368599      -0.775117629805839      -0.768582517144032     
 -0.762047404482224      -0.755512291820418      -0.748977179158610     
 -0.742442066496803      -0.735906953834995      -0.729371841173189     
 -0.722836728511382      -0.716301615849574      -0.709766503187768     
 -0.829501355547805      -0.822966242885997      -0.816431130224191     
 -0.809896017562384      -0.803360904900574      -0.796825792238768     
 -0.790290679576961      -0.783755566915156      -0.777220454253347     
 -0.770685341591538      -0.764150228929733      -0.881706175370353     
 -0.875171062708547      -0.868635950046738      -0.862100837384931     
 -0.855565724723124      -0.849030612061318      -0.842495499399510     
 -0.835960386737702      -0.829425274075896      -0.822890161414088     
 -0.816355048752282      -0.930908788079235      -0.924373675417429     
 -0.917838562755622      -0.911303450093814      -0.904768337432007     
 -0.898233224770201      -0.891698112108393      -0.885162999446585     
 -0.878627886784778      -0.872092774122973      -0.865557661461163     
 -0.976333239079817      -0.969798126418010      -0.963263013756204     
 -0.956727901094398      -0.950192788432589      -0.943657675770781     
 -0.937122563108974      -0.930587450447168      -0.924052337785360     
 -0.917517225123553      -0.910982112461745       -1.01726315764457     
  -1.01072804498276       -1.00419293232095      -0.997657819659147     
 -0.991122706997341      -0.984587594335533      -0.978052481673725     
 -0.971517369011917      -0.964982256350109      -0.958447143688304     
 -0.951912031026496       -1.05305305450737       -1.04651794184556     
  -1.03998282918376       -1.03344771652195       -1.02691260386014     
  -1.02037749119833       -1.01384237853653       -1.00730726587472     
  -1.00077215321291      -0.994237040551105      -0.987701927889298     
  -1.08313850161485       -1.07660338895305       -1.07006827629124     
  -1.06353316362943       -1.05699805096762       -1.05046293830582     
  -1.04392782564401       -1.03739271298220       -1.03085760032040     
  -1.02432248765859       -1.01778737499678       -1.10704503349396     
  -1.10050992083215       -1.09397480817034       -1.08743969550853     
  -1.08090458284673       -1.07436947018492       -1.06783435752311     
  -1.06129924486131       -1.05476413219950       -1.04822901953769     
  -1.04169390687588       -1.12439562985588       -1.11786051719407     
  -1.11132540453226       -1.10479029187045       -1.09825517920865     
  -1.09172006654684       -1.08518495388503       -1.07864984122322     
  -1.07211472856142       -1.06557961589961       -1.05904450323780     
  -1.13491666143124       -1.12838154876943       -1.12184643610762     
  -1.11531132344582       -1.10877621078401       -1.10224109812220     
  -1.09570598546039       -1.08917087279859       -1.08263576013678     
  -1.07610064747497       -1.06956553481316       -1.13844220526714     
  -1.13190709260533       -1.12537197994353       -1.11883686728172     
  -1.11230175461991       -1.10576664195811       -1.09923152929630     
  -1.09269641663449       -1.08616130397268       -1.07962619131087     
  -1.07309107864907     
  1.660316899342888E-002  1.494285209408599E-002  1.328253519474311E-002
  1.162221829540022E-002  9.961901396057328E-003  8.301584496714441E-003
  6.641267597371552E-003  4.980950698028665E-003  3.320633798685776E-003
  1.660316899342887E-003  0.000000000000000E+000  1.660316899342888E-002
  1.494285209408599E-002  1.328253519474311E-002  1.162221829540022E-002
  9.961901396057328E-003  8.301584496714441E-003  6.641267597371552E-003
  4.980950698028665E-003  3.320633798685776E-003  1.660316899342887E-003
  0.000000000000000E+000  1.660316899342888E-002  1.494285209408599E-002
  1.328253519474311E-002  1.162221829540022E-002  9.961901396057328E-003
  8.301584496714441E-003  6.641267597371552E-003  4.980950698028665E-003
  3.320633798685776E-003  1.660316899342887E-003  0.000000000000000E+000
  1.660316899342888E-002  1.494285209408599E-002  1.328253519474311E-002
  1.162221829540022E-002  9.961901396057328E-003  8.301584496714441E-003
  6.641267597371552E-003  4.980950698028665E-003  3.320633798685776E-003
  1.660316899342887E-003  0.000000000000000E+000  1.660316899342888E-002
  1.494285209408599E-002  1.328253519474311E-002  1.162221829540022E-002
  9.961901396057328E-003  8.301584496714441E-003  6.641267597371552E-003
  4.980950698028665E-003  3.320633798685776E-003  1.660316899342887E-003
  0.000000000000000E+000  1.660316899342888E-002  1.494285209408599E-002
  1.328253519474311E-002  1.162221829540022E-002  9.961901396057328E-003
  8.301584496714441E-003  6.641267597371552E-003  4.980950698028665E-003
  3.320633798685776E-003  1.660316899342887E-003  0.000000000000000E+000
  1.660316899342888E-002  1.494285209408599E-002  1.328253519474311E-002
  1.162221829540022E-002  9.961901396057328E-003  8.301584496714441E-003
  6.641267597371552E-003  4.980950698028665E-003  3.320633798685776E-003
  1.660316899342887E-003  0.000000000000000E+000  1.660316899342888E-002
  1.494285209408599E-002  1.328253519474311E-002  1.162221829540022E-002
  9.961901396057328E-003  8.301584496714441E-003  6.641267597371552E-003
  4.980950698028665E-003  3.320633798685776E-003  1.660316899342887E-003
  0.000000000000000E+000  1.660316899342888E-002  1.494285209408599E-002
  1.328253519474311E-002  1.162221829540022E-002  9.961901396057328E-003
  8.301584496714441E-003  6.641267597371552E-003  4.980950698028665E-003
  3.320633798685776E-003  1.660316899342887E-003  0.000000000000000E+000
  1.660316899342888E-002  1.494285209408599E-002  1.328253519474311E-002
  1.162221829540022E-002  9.961901396057328E-003  8.301584496714441E-003
  6.641267597371552E-003  4.980950698028665E-003  3.320633798685776E-003
  1.660316899342887E-003  0.000000000000000E+000  1.660316899342888E-002
  1.494285209408599E-002  1.328253519474311E-002  1.162221829540022E-002
  9.961901396057328E-003  8.301584496714441E-003  6.641267597371552E-003
  4.980950698028665E-003  3.320633798685776E-003  1.660316899342887E-003
  0.000000000000000E+000  1.660316899342888E-002  1.494285209408599E-002
  1.328253519474311E-002  1.162221829540022E-002  9.961901396057328E-003
  8.301584496714441E-003  6.641267597371552E-003  4.980950698028665E-003
  3.320633798685776E-003  1.660316899342887E-003  0.000000000000000E+000
  1.660316899342888E-002  1.494285209408599E-002  1.328253519474311E-002
  1.162221829540022E-002  9.961901396057328E-003  8.301584496714441E-003
  6.641267597371552E-003  4.980950698028665E-003  3.320633798685776E-003
  1.660316899342887E-003  0.000000000000000E+000  1.660316899342888E-002
  1.494285209408599E-002  1.328253519474311E-002  1.162221829540022E-002
  9.961901396057328E-003  8.301584496714441E-003  6.641267597371552E-003
  4.980950698028665E-003  3.320633798685776E-003  1.660316899342887E-003
  0.000000000000000E+000  1.660316899342888E-002  1.494285209408599E-002
  1.328253519474311E-002  1.162221829540022E-002  9.961901396057328E-003
  8.301584496714441E-003  6.641267597371552E-003  4.980950698028665E-003
  3.320633798685776E-003  1.660316899342887E-003  0.000000000000000E+000
  1.660316899342888E-002  1.494285209408599E-002  1.328253519474311E-002
  1.162221829540022E-002  9.961901396057328E-003  8.301584496714441E-003
  6.641267597371552E-003  4.980950698028665E-003  3.320633798685776E-003
  1.660316899342887E-003  0.000000000000000E+000  1.660316899342888E-002
  1.494285209408599E-002  1.328253519474311E-002  1.162221829540022E-002
  9.961901396057328E-003  8.301584496714441E-003  6.641267597371552E-003
  4.980950698028665E-003  3.320633798685776E-003  1.660316899342887E-003
  0.000000000000000E+000  1.660316899342888E-002  1.494285209408599E-002
  1.328253519474311E-002  1.162221829540022E-002  9.961901396057328E-003
  8.301584496714441E-003  6.641267597371552E-003  4.980950698028665E-003
  3.320633798685776E-003  1.660316899342887E-003  0.000000000000000E+000
  1.660316899342888E-002  1.494285209408599E-002  1.328253519474311E-002
  1.162221829540022E-002  9.961901396057328E-003  8.301584496714441E-003
  6.641267597371552E-003  4.980950698028665E-003  3.320633798685776E-003
  1.660316899342887E-003  0.000000000000000E+000  1.660316899342888E-002
  1.494285209408599E-002  1.328253519474311E-002  1.162221829540022E-002
  9.961901396057328E-003  8.301584496714441E-003  6.641267597371552E-003
  4.980950698028665E-003  3.320633798685776E-003  1.660316899342887E-003
  0.000000000000000E+000  1.660316899342888E-002  1.494285209408599E-002
  1.328253519474311E-002  1.162221829540022E-002  9.961901396057328E-003
  8.301584496714441E-003  6.641267597371552E-003  4.980950698028665E-003
  3.320633798685776E-003  1.660316899342887E-003  0.000000000000000E+000
  1.660316899342888E-002  1.494285209408599E-002  1.328253519474311E-002
  1.162221829540022E-002  9.961901396057328E-003  8.301584496714441E-003
  6.641267597371552E-003  4.980950698028665E-003  3.320633798685776E-003
  1.660316899342887E-003  0.000000000000000E+000  1.660316899342888E-002
  1.494285209408599E-002  1.328253519474311E-002  1.162221829540022E-002
  9.961901396057328E-003  8.301584496714441E-003  6.641267597371552E-003
  4.980950698028665E-003  3.320633798685776E-003  1.660316899342887E-003
  0.000000000000000E+000  1.660316899342888E-002  1.494285209408599E-002
  1.328253519474311E-002  1.162221829540022E-002  9.961901396057328E-003
  8.301584496714441E-003  6.641267597371552E-003  4.980950698028665E-003
  3.320633798685776E-003  1.660316899342887E-003  0.000000000000000E+000
  1.660316899342888E-002  1.494285209408599E-002  1.328253519474311E-002
  1.162221829540022E-002  9.961901396057328E-003  8.301584496714441E-003
  6.641267597371552E-003  4.980950698028665E-003  3.320633798685776E-003
  1.660316899342887E-003  0.000000000000000E+000  1.660316899342888E-002
  1.494285209408599E-002  1.328253519474311E-002  1.162221829540022E-002
  9.961901396057328E-003  8.301584496714441E-003  6.641267597371552E-003
  4.980950698028665E-003  3.320633798685776E-003  1.660316899342887E-003
  0.000000000000000E+000
  6.121741150828163E-002  8.263307829645201E-002  9.772816125292771E-002
  0.109726981830141       0.118075639303061       0.121571371790020     
  0.120683149256812       0.116254119299920       0.108897524091554     
  0.100253756162778       9.577671161438077E-002  0.131789083396445     
  0.156688493345331       0.176441741642328       0.190121049859312     
  0.195934469726711       0.194991933979764       0.188451353490023     
  0.177086650806142       0.163936073017009       0.106729725477970     
  0.152668959989482       0.185108127502161       0.211058212762843     
  0.229020208111241       0.237143517858175       0.237802457087454     
  0.231833269989358       0.219508487700409       0.204421031846592     
  8.860238664572562E-002  0.135063996184045       0.171622055032357     
  0.201491734684708       0.222415802991864       0.233954299572189     
  0.238374066162314       0.235849641655763       0.226259878149567     
  0.212600819556528       5.870972529160409E-002  9.776569331199070E-002
  0.132844140967902       0.162821415124767       0.185700678754963     
  0.201585242506792       0.211159572029527       0.213881535519697     
  0.209530528774623       0.200001883987832       4.056953144957459E-002
  7.159500750383475E-002  0.101429352637188       0.128888154353020     
  0.152211138987547       0.170590893568925       0.183602057982421     
  0.190746631990526       0.191809563114774       0.187489528794283     
  4.426258913755927E-002  7.489911512191368E-002  0.102647123226139     
  0.127914106207338       0.150053890366253       0.168474697315670     
  0.182738936818011       0.192450626304361       0.197377702958616     
  0.197533013121216       6.653230355773725E-002  0.104923412598782     
  0.136133729547243       0.162838675273273       0.185692244619849     
  0.204894895999907       0.220478001077670       0.232332746938569     
  0.240214928080048       0.243671681952446       0.100339559838239     
  0.152475502657000       0.192013254649610       0.224438378731804     
  0.251632995122698       0.274448578692839       0.293266069370422     
  0.308154804677569       0.318910069750062       0.324868542022627     
  0.141818890217360       0.212197136144217       0.263807400516044     
  0.305199900217917       0.339457962424666       0.368009935193640     
  0.391547816235622       0.410329432955173       0.424224632987966     
  0.432443714420604       0.189143036784153       0.281011381918505     
  0.347242714286355       0.399665217465649       0.442613240471408     
  0.478133899844426       0.507274083188694       0.530509433707683     
  0.547811060321663       0.558300434573745       0.240843849223835     
  0.356403841167268       0.438858882832848       0.503558459173799     
  0.556178259634684       0.599437186287814       0.634769448551400     
  0.662880370683202       0.683848900192514       0.696719736838643     
  0.295627618138420       0.436351395929556       0.536056390651216     
  0.613803565585316       0.676689997741489       0.728152656492092     
  0.770037291169912       0.803291982110604       0.828110825451825     
  0.843471373829649       0.352509141046031       0.519347029076266     
  0.636929498423039       0.728169119587433       0.801640934925895     
  0.861537284880548       0.910139471574657       0.948650218921566     
  0.977389097046155       0.995283148174935       0.410948550406878     
  0.604544821727190       0.740382258345452       0.845337872790833     
  0.929510393696036       0.997875651675515        1.05317774733631     
   1.09689861324768        1.12950452772825        1.14989477396890     
  0.470978796614460       0.691993705537128       0.846445169480766     
  0.965275959290887        1.06015330604095        1.13686931789786     
   1.19867101211288        1.24736801342686        1.28361946220830     
   1.30635021039860       0.533900962378668       0.783728354231509     
  0.957588858996434        1.09063573100894        1.19620506088408     
   1.28099861572060        1.34885280172893        1.40199979986835     
   1.44139760847133        1.46610506697589       0.609732157882773     
  0.893148300706660        1.08853813914482        1.23649272826473     
   1.35264408004020        1.44495367114238        1.51806022200015     
   1.57477022350992        1.61648444375337        1.64257328399422     
  0.744547908771182        1.07466038108804        1.29497035495489     
   1.45884990083132        1.58591117590009        1.68576776337014     
   1.76411065205596        1.82450679397417        1.86890027375117     
   1.89695779132351       0.947303552064743        1.34042181708849     
   1.58959218522765        1.76859306666828        1.90337648070801     
   2.00709359233063        2.08736480695714        2.14881714652701     
   2.19403966119669        2.22316223861332        1.05144202641291     
   1.47571884941348        1.73503872628980        1.91402900830561     
   2.04488215454320        2.14322369304976        2.21778563270470     
   2.27370676311361        2.31385040809757        2.33895702973236     
   1.02315878659555        1.42162711743645        1.65703949498778     
   1.81474086302095        1.92742762512397        2.01072582190178     
   2.07299063818225        2.11887689475538        2.15077818896314     
   2.16934250874283       0.898275328693284        1.22227637796023     
   1.40665006363238        1.52824135656238        1.61450893153552     
   1.67804654223198        1.72542165450659        1.76024514490909     
   1.78441611351445        1.79857846351297       0.691128581297468     
  0.911282483161765        1.03492470768022        1.11668222678837     
   1.17490607822130        1.21794535296935        1.25018533004468     
   1.27411711577569        1.29137437070126        1.30426762919875     
  0.420943969325827       0.544298285197625       0.614262677231715     
  0.660805949897087       0.694077566121659       0.718735614876004     
  0.737238369875945       0.750959342745042       0.760663017996250     
  0.766626319948224     
  0.000000000000000E+000  0.000000000000000E+000  0.000000000000000E+000
  0.000000000000000E+000  0.000000000000000E+000  0.000000000000000E+000
  0.000000000000000E+000  0.000000000000000E+000  0.000000000000000E+000
  0.000000000000000E+000  0.000000000000000E+000  0.000000000000000E+000
  0.000000000000000E+000  0.000000000000000E+000  0.000000000000000E+000
  0.000000000000000E+000  0.000000000000000E+000  0.000000000000000E+000
  0.000000000000000E+000  0.000000000000000E+000  0.000000000000000E+000
  0.000000000000000E+000  0.000000000000000E+000  0.000000000000000E+000
  0.000000000000000E+000  0.000000000000000E+000  0.000000000000000E+000
  0.000000000000000E+000  0.000000000000000E+000  0.000000000000000E+000
  0.000000000000000E+000  0.000000000000000E+000  0.000000000000000E+000
  0.000000000000000E+000  0.000000000000000E+000  0.000000000000000E+000
  0.000000000000000E+000  0.000000000000000E+000  0.000000000000000E+000
  0.000000000000000E+000  0.000000000000000E+000  0.000000000000000E+000
  0.000000000000000E+000  0.000000000000000E+000  0.000000000000000E+000
  0.000000000000000E+000  0.000000000000000E+000  0.000000000000000E+000
  0.000000000000000E+000  0.000000000000000E+000  0.000000000000000E+000
  0.000000000000000E+000  0.000000000000000E+000  0.000000000000000E+000
  0.000000000000000E+000  0.000000000000000E+000  0.000000000000000E+000
  0.000000000000000E+000  0.000000000000000E+000  0.000000000000000E+000
  0.000000000000000E+000  0.000000000000000E+000  0.000000000000000E+000
  0.000000000000000E+000  0.000000000000000E+000  0.000000000000000E+000
  0.000000000000000E+000  0.000000000000000E+000  0.000000000000000E+000
  0.000000000000000E+000  0.000000000000000E+000  0.000000000000000E+000
  0.000000000000000E+000  0.000000000000000E+000  0.000000000000000E+000
  0.000000000000000E+000  0.000000000000000E+000  0.000000000000000E+000
  0.000000000000000E+000  0.000000000000000E+000  0.000000000000000E+000
  0.000000000000000E+000  0.000000000000000E+000  0.000000000000000E+000
  0.000000000000000E+000  0.000000000000000E+000  0.000000000000000E+000
  0.000000000000000E+000  0.000000000000000E+000  0.000000000000000E+000
  0.000000000000000E+000  0.000000000000000E+000  0.000000000000000E+000
  0.000000000000000E+000  0.000000000000000E+000  0.000000000000000E+000
  0.000000000000000E+000  0.000000000000000E+000  0.000000000000000E+000
  0.000000000000000E+000  0.000000000000000E+000  0.000000000000000E+000
  0.000000000000000E+000  0.000000000000000E+000  0.000000000000000E+000
  0.000000000000000E+000  0.000000000000000E+000  0.000000000000000E+000
  0.000000000000000E+000  0.000000000000000E+000  0.000000000000000E+000
  0.000000000000000E+000  0.000000000000000E+000  0.000000000000000E+000
  0.000000000000000E+000  0.000000000000000E+000  0.000000000000000E+000