 Title = "Wing and Wake"
 VARIABLES = "X" "Y" "Z" "GAM" "skew"
 Zone I=   11 J=   26 K=1  T="Blade"
 DATAPACKING=BLOCK
 VARLOCATION=([4]=CELLCENTERED,[5]=CELLCENTERED)
 -0.252285006089730      -0.235065329354737      -0.217845652619743     
 -0.200625975884750      -0.183406299149757      -0.166186622414762     
 -0.148966945679769      -0.131747268944776      -0.114527592209782     
 -9.730791547478850E-002 -8.008823873979527E-002 -0.253863426462838     
 -0.236643749727845      -0.219424072992852      -0.202204396257859     
 -0.184984719522865      -0.167765042787872      -0.150545366052878     
 -0.133325689317884      -0.116106012582891      -9.888633584789740E-002
 -8.166665911290402E-002 -0.258573794949979      -0.241354118214985     
 -0.224134441479992      -0.206914764744998      -0.189695088010004     
 -0.172475411275011      -0.155255734540017      -0.138036057805024     
 -0.120816381070031      -0.103596704335037      -8.637702760004368E-002
 -0.266341826226269      -0.249122149491276      -0.231902472756283     
 -0.214682796021289      -0.197463119286295      -0.180243442551302     
 -0.163023765816308      -0.145804089081315      -0.128584412346322     
 -0.111364735611328      -9.414505887633447E-002 -0.277045013798088     
 -0.259825337063094      -0.242605660328100      -0.225385983593106     
 -0.208166306858113      -0.190946630123119      -0.173726953388126     
 -0.156507276653132      -0.139287599918139      -0.122067923183145     
 -0.104848246448152      -0.290514562003650      -0.273294885268656     
 -0.256075208533663      -0.238855531798669      -0.221635855063676     
 -0.204416178328682      -0.187196501593688      -0.169976824858696     
 -0.152757148123702      -0.135537471388708      -0.118317794653714     
 -0.306538048021438      -0.289318371286444      -0.272098694551451     
 -0.254879017816457      -0.237659341081464      -0.220439664346470     
 -0.203219987611477      -0.186000310876483      -0.168780634141489     
 -0.151560957406496      -0.134341280671502      -0.324862771904983     
 -0.307643095169991      -0.290423418434997      -0.273203741700003     
 -0.255984064965010      -0.238764388230016      -0.221544711495023     
 -0.204325034760030      -0.187105358025036      -0.169885681290042     
 -0.152666004555049      -0.345199741811984      -0.327980065076991     
 -0.310760388341997      -0.293540711607005      -0.276321034872011     
 -0.259101358137017      -0.241881681402024      -0.224662004667030     
 -0.207442327932037      -0.190222651197043      -0.173002974462050     
 -0.367228231578291      -0.350008554843297      -0.332788878108303     
 -0.315569201373310      -0.298349524638317      -0.281129847903324     
 -0.263910171168330      -0.246690494433336      -0.229470817698343     
 -0.212251140963350      -0.195031464228356      -0.390600838761106     
 -0.373381162026112      -0.356161485291118      -0.338941808556125     
 -0.321722131821131      -0.304502455086137      -0.287282778351145     
 -0.270063101616150      -0.252843424881158      -0.235623748146164     
 -0.218404071411170      -0.414948963383037      -0.397729286648043     
 -0.380509609913047      -0.363289933178056      -0.346070256443062     
 -0.328850579708069      -0.311630902973075      -0.294411226238082     
 -0.277191549503088      -0.259971872768095      -0.242752196033101     
 -0.439888620973930      -0.422668944238938      -0.405449267503944     
 -0.388229590768950      -0.371009914033956      -0.353790237298964     
 -0.336570560563971      -0.319350883828976      -0.302131207093982     
 -0.284911530358989      -0.267691853623996      -0.465026498235352     
 -0.447806821500359      -0.430587144765365      -0.413367468030371     
 -0.396147791295378      -0.378928114560384      -0.361708437825390     
 -0.344488761090398      -0.327269084355405      -0.310049407620410     
 -0.292829730885417      -0.489966155826247      -0.472746479091253     
 -0.455526802356259      -0.438307125621267      -0.421087448886273     
 -0.403867772151280      -0.386648095416286      -0.369428418681292     
 -0.352208741946299      -0.334989065211305      -0.317769388476312     
 -0.514314280448177      -0.497094603713184      -0.479874926978191     
 -0.462655250243197      -0.445435573508203      -0.428215896773210     
 -0.410996220038217      -0.393776543303224      -0.376556866568229     
 -0.359337189833235      -0.342117513098243      -0.537686887630992     
 -0.520467210895999      -0.503247534161005      -0.486027857426010     
 -0.468808180691017      -0.451588503956025      -0.434368827221030     
 -0.417149150486037      -0.399929473751045      -0.382709797016050     
 -0.365490120281058      -0.559715377397297      -0.542495700662305     
 -0.525276023927311      -0.508056347192317      -0.490836670457324     
 -0.473616993722331      -0.456397316987337      -0.439177640252343     
 -0.421957963517349      -0.404738286782357      -0.387518610047363     
 -0.580052347304299      -0.562832670569305      -0.545612993834312     
 -0.528393317099319      -0.511173640364326      -0.493953963629332     
 -0.476734286894337      -0.459514610159345      -0.442294933424350     
 -0.425075256689357      -0.407855579954364      -0.598377071187845     
 -0.581157394452853      -0.563937717717857      -0.546718040982866     
 -0.529498364247872      -0.512278687512878      -0.495059010777885     
 -0.477839334042890      -0.460619657307897      -0.443399980572904     
 -0.426180303837911      -0.614400557205633      -0.597180880470639     
 -0.579961203735648      -0.562741527000653      -0.545521850265659     
 -0.528302173530666      -0.511082496795673      -0.493862820060679     
 -0.476643143325685      -0.459423466590691      -0.442203789855698     
 -0.627870105411197      -0.610650428676203      -0.593430751941208     
 -0.576211075206216      -0.558991398471221      -0.541771721736229     
 -0.524552045001234      -0.507332368266239      -0.490112691531250     
 -0.472893014796255      -0.455673338061261      -0.638573292983015     
 -0.621353616248020      -0.604133939513027      -0.586914262778032     
 -0.569694586043038      -0.552474909308047      -0.535255232573054     
 -0.518035555838060      -0.500815879103066      -0.483596202368073     
 -0.466376525633078      -0.646341324259305      -0.629121647524311     
 -0.611901970789318      -0.594682294054323      -0.577462617319331     
 -0.560242940584336      -0.543023263849345      -0.525803587114350     
 -0.508583910379357      -0.491364233644363      -0.474144556909368     
 -0.651051692746443      -0.633832016011451      -0.616612339276456     
 -0.599392662541464      -0.582172985806469      -0.564953309071475     
 -0.547733632336483      -0.530513955601489      -0.513294278866494     
 -0.496074602131502      -0.478854925396509      -0.652630113119552     
 -0.635410436384558      -0.618190759649564      -0.600971082914572     
 -0.583751406179578      -0.566531729444586      -0.549312052709592     
 -0.532092375974597      -0.514872699239605      -0.497653022504610     
 -0.480433345769618     
  9.312157662587836E-002  0.101098329156581       0.109075081687284     
  0.117051834217987       0.125028586748690       0.133005339279392     
  0.140982091810095       0.148958844340798       0.156935596871501     
  0.164912349402204       0.172889101932907       9.652896434064626E-002
  0.104505716871349       0.112482469402052       0.120459221932755     
  0.128435974463458       0.136412726994160       0.144389479524863     
  0.152366232055566       0.160342984586269       0.168319737116971     
  0.176296489647675       0.106697390945213       0.114674143475916     
  0.122650896006619       0.130627648537321       0.138604401068024     
  0.146581153598727       0.154557906129430       0.162534658660133     
  0.170511411190836       0.178488163721539       0.186464916252241     
  0.123466494277702       0.131443246808404       0.139419999339108     
  0.147396751869810       0.155373504400513       0.163350256931216     
  0.171327009461919       0.179303761992621       0.187280514523324     
  0.195257267054027       0.203234019584730       0.146571815561182     
  0.154548568091884       0.162525320622587       0.170502073153290     
  0.178478825683993       0.186455578214696       0.194432330745399     
  0.202409083276101       0.210385835806804       0.218362588337507     
  0.226339340868210       0.175648970076562       0.183625722607265     
  0.191602475137967       0.199579227668670       0.207555980199373     
  0.215532732730076       0.223509485260779       0.231486237791482     
  0.239462990322185       0.247439742852888       0.255416495383591     
  0.210239393727286       0.218216146257988       0.226192898788691     
  0.234169651319395       0.242146403850097       0.250123156380800     
  0.258099908911503       0.266076661442206       0.274053413972908     
  0.282030166503611       0.290006919034314       0.249797574869063     
  0.257774327399767       0.265751079930469       0.273727832461172     
  0.281704584991875       0.289681337522578       0.297658090053281     
  0.305634842583984       0.313611595114686       0.321588347645389     
  0.329565100176093       0.293699657354377       0.301676409885081     
  0.309653162415783       0.317629914946486       0.325606667477189     
  0.333583420007892       0.341560172538595       0.349536925069297     
  0.357513677600000       0.365490430130704       0.373467182661406     
  0.341253279116601       0.349230031647303       0.357206784178006     
  0.365183536708709       0.373160289239412       0.381137041770115     
  0.389113794300819       0.397090546831520       0.405067299362224     
  0.413044051892927       0.421020804423629       0.391708491133387     
  0.399685243664090       0.407661996194793       0.415638748725497     
  0.423615501256198       0.431592253786901       0.439569006317604     
  0.447545758848307       0.455522511379011       0.463499263909714     
  0.471476016440416       0.444269584570748       0.452246337101453     
  0.460223089632153       0.468199842162857       0.476176594693560     
  0.484153347224264       0.492130099754966       0.500106852285669     
  0.508083604816371       0.516060357347074       0.524037109877777     
  0.498107639586702       0.506084392117408       0.514061144648108     
  0.522037897178813       0.530014649709514       0.537991402240218     
  0.545968154770922       0.553944907301624       0.561921659832327     
  0.569898412363028       0.577875164893732       0.552373597892354     
  0.560350350423057       0.568327102953761       0.576303855484463     
  0.584280608015165       0.592257360545869       0.600234113076571     
  0.608210865607276       0.616187618137978       0.624164370668681     
  0.632141123199383       0.606211652908309       0.614188405439012     
  0.622165157969714       0.630141910500418       0.638118663031120     
  0.646095415561823       0.654072168092526       0.662048920623230     
  0.670025673153933       0.678002425684634       0.685979178215339     
  0.658772746345672       0.666749498876374       0.674726251407078     
  0.682703003937781       0.690679756468482       0.698656508999185     
  0.706633261529887       0.714610014060593       0.722586766591295     
  0.730563519121996       0.738540271652700       0.709227958362457     
  0.717204710893160       0.725181463423862       0.733158215954565     
  0.741134968485269       0.749111721015972       0.757088473546675     
  0.765065226077377       0.773041978608080       0.781018731138783     
  0.788995483669486       0.756781580124680       0.764758332655384     
  0.772735085186087       0.780711837716790       0.788688590247492     
  0.796665342778196       0.804642095308898       0.812618847839601     
  0.820595600370303       0.828572352901008       0.836549105431708     
  0.800683662609993       0.808660415140697       0.816637167671400     
  0.824613920202104       0.832590672732805       0.840567425263508     
  0.848544177794211       0.856520930324915       0.864497682855618     
  0.872474435386319       0.880451187917022       0.840241843751771     
  0.848218596282476       0.856195348813177       0.864172101343881     
  0.872148853874585       0.880125606405288       0.888102358935989     
  0.896079111466692       0.904055863997393       0.912032616528099     
  0.920009369058800       0.874832267402493       0.882809019933199     
  0.890785772463904       0.898762524994603       0.906739277525306     
  0.914716030056010       0.922692782586714       0.930669535117417     
  0.938646287648119       0.946623040178820       0.954599792709523     
  0.903909421917876       0.911886174448580       0.919862926979282     
  0.927839679509985       0.935816432040686       0.943793184571393     
  0.951769937102092       0.959746689632796       0.967723442163501     
  0.975700194694204       0.983676947224908       0.927014743201357     
  0.934991495732059       0.942968248262762       0.950945000793464     
  0.958921753324168       0.966898505854870       0.974875258385572     
  0.982852010916277       0.990828763446979       0.998805515977683     
   1.00678226850838       0.943783846533845       0.951760599064548     
  0.959737351595252       0.967714104125954       0.975690856656657     
  0.983667609187364       0.991644361718061       0.999621114248764     
   1.00759786677947        1.01557461931017        1.02355137184087     
  0.953952273138411       0.961929025669115       0.969905778199819     
  0.977882530730521       0.985859283261224       0.993836035791923     
   1.00181278832263        1.00978954085333        1.01776629338403     
   1.02574304591474        1.03371979844544       0.957359660853180     
  0.965336413383881       0.973313165914584       0.981289918445288     
  0.989266670975989       0.997243423506694        1.00522017603740     
   1.01319692856810        1.02117368109880        1.02915043362950     
   1.03712718616021     
  1.660316899342888E-002  1.494285209408599E-002  1.328253519474311E-002
  1.162221829540022E-002  9.961901396057328E-003  8.301584496714441E-003
  6.641267597371552E-003  4.980950698028665E-003  3.320633798685776E-003
  1.660316899342887E-003  0.000000000000000E+000  1.660316899342888E-002
  1.494285209408599E-002  1.328253519474311E-002  1.162221829540022E-002
  9.961901396057328E-003  8.301584496714441E-003  6.641267597371552E-003
  4.980950698028665E-003  3.320633798685776E-003  1.660316899342887E-003
  0.000000000000000E+000  1.660316899342888E-002  1.494285209408599E-002
  1.328253519474311E-002  1.162221829540022E-002  9.961901396057328E-003
  8.301584496714441E-003  6.641267597371552E-003  4.980950698028665E-003
  3.320633798685776E-003  1.660316899342887E-003  0.000000000000000E+000
  1.660316899342888E-002  1.494285209408599E-002  1.328253519474311E-002
  1.162221829540022E-002  9.961901396057328E-003  8.301584496714441E-003
  6.641267597371552E-003  4.980950698028665E-003  3.320633798685776E-003
  1.660316899342887E-003  0.000000000000000E+000  1.660316899342888E-002
  1.494285209408599E-002  1.328253519474311E-002  1.162221829540022E-002
  9.961901396057328E-003  8.301584496714441E-003  6.641267597371552E-003
  4.980950698028665E-003  3.320633798685776E-003  1.660316899342887E-003
  0.000000000000000E+000  1.660316899342888E-002  1.494285209408599E-002
  1.328253519474311E-002  1.162221829540022E-002  9.961901396057328E-003
  8.301584496714441E-003  6.641267597371552E-003  4.980950698028665E-003
  3.320633798685776E-003  1.660316899342887E-003  0.000000000000000E+000
  1.660316899342888E-002  1.494285209408599E-002  1.328253519474311E-002
  1.162221829540022E-002  9.961901396057328E-003  8.301584496714441E-003
  6.641267597371552E-003  4.980950698028665E-003  3.320633798685776E-003
  1.660316899342887E-003  0.000000000000000E+000  1.660316899342888E-002
  1.494285209408599E-002  1.328253519474311E-002  1.162221829540022E-002
  9.961901396057328E-003  8.301584496714441E-003  6.641267597371552E-003
  4.980950698028665E-003  3.320633798685776E-003  1.660316899342887E-003
  0.000000000000000E+000  1.660316899342888E-002  1.494285209408599E-002
  1.328253519474311E-002  1.162221829540022E-002  9.961901396057328E-003
  8.301584496714441E-003  6.641267597371552E-003  4.980950698028665E-003
  3.320633798685776E-003  1.660316899342887E-003  0.000000000000000E+000
  1.660316899342888E-002  1.494285209408599E-002  1.328253519474311E-002
  1.162221829540022E-002  9.961901396057328E-003  8.301584496714441E-003
  6.641267597371552E-003  4.980950698028665E-003  3.320633798685776E-003
  1.660316899342887E-003  0.000000000000000E+000  1.660316899342888E-002
  1.494285209408599E-002  1.328253519474311E-002  1.162221829540022E-002
  9.961901396057328E-003  8.301584496714441E-003  6.641267597371552E-003
  4.980950698028665E-003  3.320633798685776E-003  1.660316899342887E-003
  0.000000000000000E+000  1.660316899342888E-002  1.494285209408599E-002
  1.328253519474311E-002  1.162221829540022E-002  9.961901396057328E-003
  8.301584496714441E-003  6.641267597371552E-003  4.980950698028665E-003
  3.320633798685776E-003  1.660316899342887E-003  0.000000000000000E+000
  1.660316899342888E-002  1.494285209408599E-002  1.328253519474311E-002
  1.162221829540022E-002  9.961901396057328E-003  8.301584496714441E-003
  6.641267597371552E-003  4.980950698028665E-003  3.320633798685776E-003
  1.660316899342887E-003  0.000000000000000E+000  1.660316899342888E-002
  1.494285209408599E-002  1.328253519474311E-002  1.162221829540022E-002
  9.961901396057328E-003  8.301584496714441E-003  6.641267597371552E-003
  4.980950698028665E-003  3.320633798685776E-003  1.660316899342887E-003
  0.000000000000000E+000  1.660316899342888E-002  1.494285209408599E-002
  1.328253519474311E-002  1.162221829540022E-002  9.961901396057328E-003
  8.301584496714441E-003  6.641267597371552E-003  4.980950698028665E-003
  3.320633798685776E-003  1.660316899342887E-003  0.000000000000000E+000
  1.660316899342888E-002  1.494285209408599E-002  1.328253519474311E-002
  1.162221829540022E-002  9.961901396057328E-003  8.301584496714441E-003
  6.641267597371552E-003  4.980950698028665E-003  3.320633798685776E-003
  1.660316899342887E-003  0.000000000000000E+000  1.660316899342888E-002
  1.494285209408599E-002  1.328253519474311E-002  1.162221829540022E-002
  9.961901396057328E-003  8.301584496714441E-003  6.641267597371552E-003
  4.980950698028665E-003  3.320633798685776E-003  1.660316899342887E-003
  0.000000000000000E+000  1.660316899342888E-002  1.494285209408599E-002
  1.328253519474311E-002  1.162221829540022E-002  9.961901396057328E-003
  8.301584496714441E-003  6.641267597371552E-003  4.980950698028665E-003
  3.320633798685776E-003  1.660316899342887E-003  0.000000000000000E+000
  1.660316899342888E-002  1.494285209408599E-002  1.328253519474311E-002
  1.162221829540022E-002  9.961901396057328E-003  8.301584496714441E-003
  6.641267597371552E-003  4.980950698028665E-003  3.320633798685776E-003
  1.660316899342887E-003  0.000000000000000E+000  1.660316899342888E-002
  1.494285209408599E-002  1.328253519474311E-002  1.162221829540022E-002
  9.961901396057328E-003  8.301584496714441E-003  6.641267597371552E-003
  4.980950698028665E-003  3.320633798685776E-003  1.660316899342887E-003
  0.000000000000000E+000  1.660316899342888E-002  1.494285209408599E-002
  1.328253519474311E-002  1.162221829540022E-002  9.961901396057328E-003
  8.301584496714441E-003  6.641267597371552E-003  4.980950698028665E-003
  3.320633798685776E-003  1.660316899342887E-003  0.000000000000000E+000
  1.660316899342888E-002  1.494285209408599E-002  1.328253519474311E-002
  1.162221829540022E-002  9.961901396057328E-003  8.301584496714441E-003
  6.641267597371552E-003  4.980950698028665E-003  3.320633798685776E-003
  1.660316899342887E-003  0.000000000000000E+000  1.660316899342888E-002
  1.494285209408599E-002  1.328253519474311E-002  1.162221829540022E-002
  9.961901396057328E-003  8.301584496714441E-003  6.641267597371552E-003
  4.980950698028665E-003  3.320633798685776E-003  1.660316899342887E-003
  0.000000000000000E+000  1.660316899342888E-002  1.494285209408599E-002
  1.328253519474311E-002  1.162221829540022E-002  9.961901396057328E-003
  8.301584496714441E-003  6.641267597371552E-003  4.980950698028665E-003
  3.320633798685776E-003  1.660316899342887E-003  0.000000000000000E+000
  1.660316899342888E-002  1.494285209408599E-002  1.328253519474311E-002
  1.162221829540022E-002  9.961901396057328E-003  8.301584496714441E-003
  6.641267597371552E-003  4.980950698028665E-003  3.320633798685776E-003
  1.660316899342887E-003  0.000000000000000E+000  1.660316899342888E-002
  1.494285209408599E-002  1.328253519474311E-002  1.162221829540022E-002
  9.961901396057328E-003  8.301584496714441E-003  6.641267597371552E-003
  4.980950698028665E-003  3.320633798685776E-003  1.660316899342887E-003
  0.000000000000000E+000
  1.544600290043560E-002  3.470607616266540E-002  5.835997025411506E-002
  8.747802338247752E-002  0.122357170547953       0.160976746375591     
  0.200109570958095       0.235012873025313       0.260852344124616     
  0.275023538679002       2.666754633247096E-002  5.900456076000617E-002
  9.850424536708412E-002  0.146566631101651       0.203775440916555     
  0.267441118406066       0.332337101937758       0.390925873188324     
  0.435422672610129       0.461394897022578       3.795674717049552E-002
  8.148018981833657E-002  0.133891480616643       0.196165446088863     
  0.268986604298876       0.350807841767160       0.435545717446686     
  0.513378057074525       0.574917417693162       0.611595258972067     
  4.635016361974395E-002  9.648427163895056E-002  0.155907499199291     
  0.225243406561282       0.305116007864895       0.394572517845892     
  0.487810705768370       0.574472645398730       0.644517676896634     
  0.689279958170358       4.970419040809684E-002  0.100867492029217     
  0.160884665767923       0.230650357785333       0.310186111288541     
  0.397702695935418       0.488234979095165       0.574857826305207     
  0.649400187459646       0.699450645476634       4.985524863202453E-002
  9.847469069698706E-002  0.154507658249913       0.218694138244914     
  0.290607371007696       0.368731688228530       0.450418363018529     
  0.532312579872706       0.608111943281854       0.664492832135704     
  5.345263226094993E-002  9.978406755196220E-002  0.150453005864087     
  0.206578046438036       0.267959120904565       0.334075416560427     
  0.404285968521702       0.475641542982876       0.543125765642725     
  0.597948799768791       6.874765306645277E-002  0.117383702681199     
  0.165343676800905       0.215366998869135       0.268118881364502     
  0.323729591417788       0.381904705052190       0.441258603872500     
  0.498395683355708       0.546553901213352       0.101423462785709     
  0.161161116138397       0.213017571308224       0.262346024718123     
  0.310993674073662       0.359717394401881       0.408626099881601     
  0.456946356903376       0.502471000140882       0.540167590254959     
  0.148774568639058       0.227610074170978       0.289916182024965     
  0.344313319422332       0.393830981197241       0.439756203221249     
  0.482505664858739       0.521780224852315       0.556425960351833     
  0.583560820497030       0.202594614491707       0.304304662351890     
  0.380451143890689       0.443358319096679       0.497446209719701     
  0.544707171773762       0.586038042423059       0.621639624219328     
  0.651025910371303       0.672348161537884       0.257850363120941     
  0.383746410060777       0.475318752064580       0.548712792920023     
  0.609826517451915       0.661429221600941       0.704922975557716     
  0.740913261720980       0.769293309676711       0.788646739348127     
  0.313299025885347       0.463893624706620       0.571699658171516     
  0.656697279358784       0.726273921809517       0.783975175506753     
  0.831678430439307       0.870313570050257       0.900005642387229     
  0.919492608525225       0.369116544152317       0.544808658626318     
  0.669358399979646       0.766596138701612       0.845404738208114     
  0.910102788447235       0.963024595220555        1.00538779347417     
   1.03748846473001        1.05811245557510       0.425715608233037     
  0.626935695177398       0.768598985840043       0.878433914036370     
  0.966833846411138        1.03890232765278        1.09744096619983     
   1.14395409634653        1.17890147990161        1.20109681807891     
  0.483618214529189       0.710980576004426       0.870159645526771     
  0.992853809212780        1.09099760752466        1.17050320490290     
   1.23467499039443        1.28534551565515        1.32317237901894     
   1.34703004678441       0.544393538555720       0.799313047860346     
  0.976850803560847        1.11281732602286        1.22078592504682     
   1.30756693147849        1.37705020206242        1.43149283154117     
   1.47185639351587        1.49717404466210       0.617964359612637     
  0.905169955234735        1.10318017444719        1.25312920864217     
   1.37084531441321        1.46438366581296        1.53843213924658     
   1.59582223983177        1.63796536493412        1.66423364145245     
  0.748232825613871        1.08044984656035        1.30225429067645     
   1.46710325069962        1.59475589980777        1.69493408311143     
   1.77337869983542        1.83367812640820        1.87778921649889     
   1.90541645363093       0.945698701146703        1.33882325732761     
   1.58822094766966        1.76724592870011        1.90191512467166     
   2.00538472076310        2.08527698071309        2.14621903459103     
   2.19080078634850        2.21918430411816        1.04801382537624     
   1.47128816610079        1.73014135353480        1.90879803359721     
   2.03934006854484        2.13735460319511        2.21154827820051     
   2.26704096776264        2.30668112445275        2.33121388347282     
   1.01972888097733        1.41702920502859        1.65182901994945     
   1.80912673297448        1.92149491668715        2.00450416818826     
   2.06647792597840        2.11204960145528        2.14359637186532     
   2.16176159857728       0.895421361162943        1.21844128874434     
   1.40229322979127        1.52354915153111        1.60956369977669     
   1.67288193866818        1.72004463125647        1.75464558942883     
   1.77857131285060        1.79246021314842       0.689034494083935     
  0.908525452614965        1.03181337072947        1.11334304084962     
   1.17139713558344        1.21429145663428        1.24639244148552     
   1.27017928587588        1.28727618094444        1.29998193984712     
  0.419692056878362       0.542676314626500       0.612440356281654     
  0.658854087443312       0.692029213207622       0.716605036903817     
  0.735029140256014       0.748668511793314       0.758282857455901     
  0.764146182381418     
  0.000000000000000E+000  0.000000000000000E+000  0.000000000000000E+000
  0.000000000000000E+000  0.000000000000000E+000  0.000000000000000E+000
  0.000000000000000E+000  0.000000000000000E+000  0.000000000000000E+000
  0.000000000000000E+000  0.000000000000000E+000  0.000000000000000E+000
  0.000000000000000E+000  0.000000000000000E+000  0.000000000000000E+000
  0.000000000000000E+000  0.000000000000000E+000  0.000000000000000E+000
  0.000000000000000E+000  0.000000000000000E+000  0.000000000000000E+000
  0.000000000000000E+000  0.000000000000000E+000  0.000000000000000E+000
  0.000000000000000E+000  0.000000000000000E+000  0.000000000000000E+000
  0.000000000000000E+000  0.000000000000000E+000  0.000000000000000E+000
  0.000000000000000E+000  0.000000000000000E+000  0.000000000000000E+000
  0.000000000000000E+000  0.000000000000000E+000  0.000000000000000E+000
  0.000000000000000E+000  0.000000000000000E+000  0.000000000000000E+000
  0.000000000000000E+000  0.000000000000000E+000  0.000000000000000E+000
  0.000000000000000E+000  0.000000000000000E+000  0.000000000000000E+000
  0.000000000000000E+000  0.000000000000000E+000  0.000000000000000E+000
  0.000000000000000E+000  0.000000000000000E+000  0.000000000000000E+000
  0.000000000000000E+000  0.000000000000000E+000  0.000000000000000E+000
  0.000000000000000E+000  0.000000000000000E+000  0.000000000000000E+000
  0.000000000000000E+000  0.000000000000000E+000  0.000000000000000E+000
  0.000000000000000E+000  0.000000000000000E+000  0.000000000000000E+000
  0.000000000000000E+000  0.000000000000000E+000  0.000000000000000E+000
  0.000000000000000E+000  0.000000000000000E+000  0.000000000000000E+000
  0.000000000000000E+000  0.000000000000000E+000  0.000000000000000E+000
  0.000000000000000E+000  0.000000000000000E+000  0.000000000000000E+000
  0.000000000000000E+000  0.000000000000000E+000  0.000000000000000E+000
  0.000000000000000E+000  0.000000000000000E+000  0.000000000000000E+000
  0.000000000000000E+000  0.000000000000000E+000  0.000000000000000E+000
  0.000000000000000E+000  0.000000000000000E+000  0.000000000000000E+000
  0.000000000000000E+000  0.000000000000000E+000  0.000000000000000E+000
  0.000000000000000E+000  0.000000000000000E+000  0.000000000000000E+000
  0.000000000000000E+000  0.000000000000000E+000  0.000000000000000E+000
  0.000000000000000E+000  0.000000000000000E+000  0.000000000000000E+000
  0.000000000000000E+000  0.000000000000000E+000  0.000000000000000E+000
  0.000000000000000E+000  0.000000000000000E+000  0.000000000000000E+000
  0.000000000000000E+000  0.000000000000000E+000  0.000000000000000E+000
  0.000000000000000E+000  0.000000000000000E+000  0.000000000000000E+000
  0.000000000000000E+000  0.000000000000000E+000  0.000000000000000E+000
  0.000000000000000E+000  0.000000000000000E+000  0.000000000000000E+000