 Title = "Wing and Wake"
 VARIABLES = "X" "Y" "Z" "GAM" "skew"
 Zone I=   11 J=   26 K=1  T="Blade"
 DATAPACKING=BLOCK
 VARLOCATION=([4]=CELLCENTERED,[5]=CELLCENTERED)
  5.938442954567239E-002  6.954121133103394E-002  7.969799311639576E-002
  8.985477490175803E-002  0.100011556687120       0.110168338472482     
  0.120325120257844       0.130481902043206       0.140638683828568     
  0.150795465613929       0.160952247399292       6.255655956613763E-002
  7.271334135149948E-002  8.287012313686105E-002  9.302690492222312E-002
  0.103183686707585       0.113340468492947       0.123497250278309     
  0.133654032063671       0.143810813849033       0.153967595634394     
  0.164124377419757       7.202292324217117E-002  8.217970502753306E-002
  9.233648681289527E-002  0.102493268598257       0.112650050383619     
  0.122806832168981       0.132963613954343       0.143120395739704     
  0.153277177525067       0.163433959310429       0.173590741095790     
  8.763423036367171E-002  9.779101214903307E-002  0.107947793934396     
  0.118104575719757       0.128261357505119       0.138418139290481     
  0.148574921075843       0.158731702861205       0.168888484646567     
  0.179045266431929       0.189202048217290       0.109144281291589     
  0.119301063076951       0.129457844862313       0.139614626647675     
  0.149771408433037       0.159928190218399       0.170084972003761     
  0.180241753789122       0.190398535574484       0.200555317359846     
  0.210712099145208       0.136213849673309       0.146370631458671     
  0.156527413244032       0.166684195029395       0.176840976814757     
  0.186997758600119       0.197154540385480       0.207311322170842     
  0.217468103956204       0.227624885741566       0.237781667526929     
  0.168416032244875       0.178572814030237       0.188729595815599     
  0.198886377600961       0.209043159386323       0.219199941171685     
  0.229356722957046       0.239513504742409       0.249670286527771     
  0.259827068313132       0.269983850098494       0.205242981350483     
  0.215399763135845       0.225556544921207       0.235713326706569     
  0.245870108491931       0.256026890277293       0.266183672062655     
  0.276340453848018       0.286497235633379       0.296654017418740     
  0.306810799204103       0.246113914003384       0.256270695788746     
  0.266427477574108       0.276584259359470       0.286741041144832     
  0.296897822930193       0.307054604715556       0.317211386500917     
  0.327368168286280       0.337524950071642       0.347681731857003     
  0.290384271180529       0.300541052965891       0.310697834751253     
  0.320854616536615       0.331011398321977       0.341168180107338     
  0.351324961892702       0.361481743678063       0.371638525463426     
  0.381795307248787       0.391952089034149       0.337355882903407     
  0.347512664688769       0.357669446474131       0.367826228259494     
  0.377983010044854       0.388139791830217       0.398296573615579     
  0.408453355400940       0.418610137186303       0.428766918971665     
  0.438923700757026       0.386287978795665       0.396444760581029     
  0.406601542366389       0.416758324151752       0.426915105937114     
  0.437071887722477       0.447228669507838       0.457385451293200     
  0.467542233078561       0.477699014863923       0.487855796649285     
  0.436408870474467       0.446565652259832       0.456722434045192     
  0.466879215830555       0.477035997615915       0.487192779401278     
  0.497349561186641       0.507506342972002       0.517663124757364     
  0.527819906542724       0.537976688328087       0.486928121537269     
  0.497084903322631       0.507241685107994       0.517398466893355     
  0.527555248678716       0.537712030464079       0.547868812249440     
  0.558025594034804       0.568182375820165       0.578339157605528     
  0.588495939390888       0.537049013216071       0.547205795001434     
  0.557362576786795       0.567519358572158       0.577676140357518     
  0.587832922142881       0.597989703928243       0.608146485713606     
  0.618303267498968       0.628460049284328       0.638616831069691     
  0.585981109108332       0.596137890893693       0.606294672679055     
  0.616451454464418       0.626608236249778       0.636765018035140     
  0.646921799820501       0.657078581605866       0.667235363391226     
  0.677392145176588       0.687548926961951       0.632952720831208     
  0.643109502616570       0.653266284401931       0.663423066187294     
  0.673579847972656       0.683736629758018       0.693893411543380     
  0.704050193328741       0.714206975114103       0.724363756899465     
  0.734520538684828       0.677223078008353       0.687379859793715     
  0.697536641579078       0.707693423364440       0.717850205149802     
  0.728006986935164       0.738163768720525       0.748320550505887     
  0.758477332291250       0.768634114076613       0.778790895861972     
  0.718094010661253       0.728250792446616       0.738407574231978     
  0.748564356017342       0.758721137802701       0.768877919588063     
  0.779034701373426       0.789191483158789       0.799348264944151     
  0.809505046729511       0.819661828514872       0.754920959766861     
  0.765077741552226       0.775234523337585       0.785391305122948     
  0.795548086908310       0.805704868693673       0.815861650479034     
  0.826018432264396       0.836175214049756       0.846331995835121     
  0.856488777620480       0.787123142338426       0.797279924123791     
  0.807436705909154       0.817593487694512       0.827750269479876     
  0.837907051265237       0.848063833050601       0.858220614835963     
  0.868377396621325       0.878534178406684       0.888690960192046     
  0.814192710720148       0.824349492505510       0.834506274290872     
  0.844663056076234       0.854819837861594       0.864976619646960     
  0.875133401432318       0.885290183217682       0.895446965003044     
  0.905603746788407       0.915760528573770       0.835702761648066     
  0.845859543433428       0.856016325218790       0.866173107004151     
  0.876329888789514       0.886486670574875       0.896643452360236     
  0.906800234145600       0.916957015930960       0.927113797716324     
  0.937270579501684       0.851314068769567       0.861470850554929     
  0.871627632340291       0.881784414125653       0.891941195911015     
  0.902097977696380       0.912254759481736       0.922411541267098     
  0.932568323052463       0.942725104837823       0.952881886623186     
  0.860780432445600       0.870937214230962       0.881093996016327     
  0.891250777801687       0.901407559587048       0.911564341372406     
  0.921721123157772       0.931877904943134       0.942034686728494     
  0.952191468513856       0.962348250299218       0.863952562466065     
  0.874109344251426       0.884266126036788       0.894422907822150     
  0.904579689607510       0.914736471392874       0.924893253178236     
  0.935050034963600       0.945206816748960       0.955363598534320     
  0.965520380319687     
  0.262283895537868       0.246253124141635       0.230222352745402     
  0.214191581349169       0.198160809952936       0.182130038556702     
  0.166099267160469       0.150068495764236       0.134037724368002     
  0.118006952971769       0.101976181575536       0.264293694793082     
  0.248262923396849       0.232232152000616       0.216201380604383     
  0.200170609208150       0.184139837811916       0.168109066415683     
  0.152078295019450       0.136047523623217       0.120016752226983     
  0.103985980830750       0.270291396823875       0.254260625427642     
  0.238229854031409       0.222199082635175       0.206168311238942     
  0.190137539842709       0.174106768446475       0.158075997050242     
  0.142045225654009       0.126014454257776       0.109983682861542     
  0.280182414286366       0.264151642890133       0.248120871493900     
  0.232090100097666       0.216059328701433       0.200028557305200     
  0.183997785908966       0.167967014512733       0.151936243116500     
  0.135905471720267       0.119874700324033       0.293810759926565     
  0.277779988530332       0.261749217134098       0.245718445737865     
  0.229687674341632       0.213656902945398       0.197626131549165     
  0.181595360152932       0.165564588756699       0.149533817360465     
  0.133503045964232       0.310961506592547       0.294930735196313     
  0.278899963800079       0.262869192403847       0.246838421007613     
  0.230807649611380       0.214776878215146       0.198746106818914     
  0.182715335422680       0.166684564026447       0.150653792630214     
  0.331364176764029       0.315333405367795       0.299302633971563     
  0.283271862575330       0.267241091179096       0.251210319782863     
  0.235179548386630       0.219148776990396       0.203118005594162     
  0.187087234197930       0.171056462801696       0.354697008144444     
  0.338666236748211       0.322635465351977       0.306604693955744     
  0.290573922559511       0.274543151163278       0.258512379767045     
  0.242481608370812       0.226450836974578       0.210420065578345     
  0.194389294182112       0.380592028044563       0.364561256648331     
  0.348530485252097       0.332499713855864       0.316468942459631     
  0.300438171063398       0.284407399667164       0.268376628270931     
  0.252345856874698       0.236315085478465       0.220284314082232     
  0.408640856531629       0.392610085135395       0.376579313739162     
  0.360548542342929       0.344517770946696       0.328486999550463     
  0.312456228154230       0.296425456757996       0.280394685361763     
  0.264363913965530       0.248333142569297       0.438401146824842     
  0.422370375428608       0.406339604032374       0.390308832636142     
  0.374278061239907       0.358247289843674       0.342216518447442     
  0.326185747051207       0.310154975654976       0.294124204258742     
  0.278093432862508       0.469403561368340       0.453372789972107     
  0.437342018575871       0.421311247179639       0.405280475783406     
  0.389249704387173       0.373218932990939       0.357188161594707     
  0.341157390198473       0.325126618802240       0.309095847406007     
  0.501159173564827       0.485128402168596       0.469097630772362     
  0.453066859376129       0.437036087979894       0.421005316583662     
  0.404974545187430       0.388943773791196       0.372913002394962     
  0.356882230998729       0.340851459602496       0.533167178440087     
  0.517136407043853       0.501105635647621       0.485074864251387     
  0.469044092855154       0.453013321458920       0.436982550062686     
  0.420951778666454       0.404921007270222       0.388890235873987     
  0.372859464477754       0.564922790636576       0.548892019240343     
  0.532861247844109       0.516830476447877       0.500799705051643     
  0.484768933655409       0.468738162259176       0.452707390862943     
  0.436676619466710       0.420645848070477       0.404615076674244     
  0.595925205180074       0.579894433783840       0.563863662387608     
  0.547832890991375       0.531802119595140       0.515771348198907     
  0.499740576802675       0.483709805406442       0.467679034010208     
  0.451648262613973       0.435617491217742       0.625685495473286     
  0.609654724077054       0.593623952680819       0.577593181284585     
  0.561562409888352       0.545531638492121       0.529500867095885     
  0.513470095699653       0.497439324303421       0.481408552907186     
  0.465377781510954       0.653734323960350       0.637703552564118     
  0.621672781167885       0.605642009771651       0.589611238375418     
  0.573580466979185       0.557549695582952       0.541518924186718     
  0.525488152790484       0.509457381394253       0.493426609998019     
  0.679629343860471       0.663598572464237       0.647567801068004     
  0.631537029671772       0.615506258275539       0.599475486879305     
  0.583444715483071       0.567413944086839       0.551383172690605     
  0.535352401294372       0.519321629898138       0.702962175240886     
  0.686931403844655       0.670900632448419       0.654869861052187     
  0.638839089655955       0.622808318259720       0.606777546863487     
  0.590746775467253       0.574716004071020       0.558685232674788     
  0.542654461278554       0.723364845412368       0.707334074016135     
  0.691303302619904       0.675272531223669       0.659241759827435     
  0.643210988431202       0.627180217034971       0.611149445638737     
  0.595118674242503       0.579087902846268       0.563057131450035     
  0.740515592078351       0.724484820682117       0.708454049285883     
  0.692423277889651       0.676392506493416       0.660361735097185     
  0.644330963700950       0.628300192304716       0.612269420908486     
  0.596238649512252       0.580207878116018       0.754143937718551     
  0.738113166322316       0.722082394926083       0.706051623529848     
  0.690020852133616       0.673990080737384       0.657959309341150     
  0.641928537944918       0.625897766548683       0.609866995152450     
  0.593836223756216       0.764034955181041       0.748004183784807     
  0.731973412388575       0.715942640992340       0.699911869596109     
  0.683881098199874       0.667850326803642       0.651819555407408     
  0.635788784011175       0.619758012614941       0.603727241218707     
  0.770032657211832       0.754001885815599       0.737971114419366     
  0.721940343023133       0.705909571626899       0.689878800230665     
  0.673848028834433       0.657817257438200       0.641786486041965     
  0.625755714645732       0.609724943249499       0.772042456467046     
  0.756011685070812       0.739980913674579       0.723950142278347     
  0.707919370882112       0.691888599485881       0.675857828089648     
  0.659827056693413       0.643796285297181       0.627765513900946     
  0.611734742504715     
  1.660316899342888E-002  1.494285209408599E-002  1.328253519474311E-002
  1.162221829540022E-002  9.961901396057328E-003  8.301584496714441E-003
  6.641267597371552E-003  4.980950698028665E-003  3.320633798685776E-003
  1.660316899342887E-003  0.000000000000000E+000  1.660316899342888E-002
  1.494285209408599E-002  1.328253519474311E-002  1.162221829540022E-002
  9.961901396057328E-003  8.301584496714441E-003  6.641267597371552E-003
  4.980950698028665E-003  3.320633798685776E-003  1.660316899342887E-003
  0.000000000000000E+000  1.660316899342888E-002  1.494285209408599E-002
  1.328253519474311E-002  1.162221829540022E-002  9.961901396057328E-003
  8.301584496714441E-003  6.641267597371552E-003  4.980950698028665E-003
  3.320633798685776E-003  1.660316899342887E-003  0.000000000000000E+000
  1.660316899342888E-002  1.494285209408599E-002  1.328253519474311E-002
  1.162221829540022E-002  9.961901396057328E-003  8.301584496714441E-003
  6.641267597371552E-003  4.980950698028665E-003  3.320633798685776E-003
  1.660316899342887E-003  0.000000000000000E+000  1.660316899342888E-002
  1.494285209408599E-002  1.328253519474311E-002  1.162221829540022E-002
  9.961901396057328E-003  8.301584496714441E-003  6.641267597371552E-003
  4.980950698028665E-003  3.320633798685776E-003  1.660316899342887E-003
  0.000000000000000E+000  1.660316899342888E-002  1.494285209408599E-002
  1.328253519474311E-002  1.162221829540022E-002  9.961901396057328E-003
  8.301584496714441E-003  6.641267597371552E-003  4.980950698028665E-003
  3.320633798685776E-003  1.660316899342887E-003  0.000000000000000E+000
  1.660316899342888E-002  1.494285209408599E-002  1.328253519474311E-002
  1.162221829540022E-002  9.961901396057328E-003  8.301584496714441E-003
  6.641267597371552E-003  4.980950698028665E-003  3.320633798685776E-003
  1.660316899342887E-003  0.000000000000000E+000  1.660316899342888E-002
  1.494285209408599E-002  1.328253519474311E-002  1.162221829540022E-002
  9.961901396057328E-003  8.301584496714441E-003  6.641267597371552E-003
  4.980950698028665E-003  3.320633798685776E-003  1.660316899342887E-003
  0.000000000000000E+000  1.660316899342888E-002  1.494285209408599E-002
  1.328253519474311E-002  1.162221829540022E-002  9.961901396057328E-003
  8.301584496714441E-003  6.641267597371552E-003  4.980950698028665E-003
  3.320633798685776E-003  1.660316899342887E-003  0.000000000000000E+000
  1.660316899342888E-002  1.494285209408599E-002  1.328253519474311E-002
  1.162221829540022E-002  9.961901396057328E-003  8.301584496714441E-003
  6.641267597371552E-003  4.980950698028665E-003  3.320633798685776E-003
  1.660316899342887E-003  0.000000000000000E+000  1.660316899342888E-002
  1.494285209408599E-002  1.328253519474311E-002  1.162221829540022E-002
  9.961901396057328E-003  8.301584496714441E-003  6.641267597371552E-003
  4.980950698028665E-003  3.320633798685776E-003  1.660316899342887E-003
  0.000000000000000E+000  1.660316899342888E-002  1.494285209408599E-002
  1.328253519474311E-002  1.162221829540022E-002  9.961901396057328E-003
  8.301584496714441E-003  6.641267597371552E-003  4.980950698028665E-003
  3.320633798685776E-003  1.660316899342887E-003  0.000000000000000E+000
  1.660316899342888E-002  1.494285209408599E-002  1.328253519474311E-002
  1.162221829540022E-002  9.961901396057328E-003  8.301584496714441E-003
  6.641267597371552E-003  4.980950698028665E-003  3.320633798685776E-003
  1.660316899342887E-003  0.000000000000000E+000  1.660316899342888E-002
  1.494285209408599E-002  1.328253519474311E-002  1.162221829540022E-002
  9.961901396057328E-003  8.301584496714441E-003  6.641267597371552E-003
  4.980950698028665E-003  3.320633798685776E-003  1.660316899342887E-003
  0.000000000000000E+000  1.660316899342888E-002  1.494285209408599E-002
  1.328253519474311E-002  1.162221829540022E-002  9.961901396057328E-003
  8.301584496714441E-003  6.641267597371552E-003  4.980950698028665E-003
  3.320633798685776E-003  1.660316899342887E-003  0.000000000000000E+000
  1.660316899342888E-002  1.494285209408599E-002  1.328253519474311E-002
  1.162221829540022E-002  9.961901396057328E-003  8.301584496714441E-003
  6.641267597371552E-003  4.980950698028665E-003  3.320633798685776E-003
  1.660316899342887E-003  0.000000000000000E+000  1.660316899342888E-002
  1.494285209408599E-002  1.328253519474311E-002  1.162221829540022E-002
  9.961901396057328E-003  8.301584496714441E-003  6.641267597371552E-003
  4.980950698028665E-003  3.320633798685776E-003  1.660316899342887E-003
  0.000000000000000E+000  1.660316899342888E-002  1.494285209408599E-002
  1.328253519474311E-002  1.162221829540022E-002  9.961901396057328E-003
  8.301584496714441E-003  6.641267597371552E-003  4.980950698028665E-003
  3.320633798685776E-003  1.660316899342887E-003  0.000000000000000E+000
  1.660316899342888E-002  1.494285209408599E-002  1.328253519474311E-002
  1.162221829540022E-002  9.961901396057328E-003  8.301584496714441E-003
  6.641267597371552E-003  4.980950698028665E-003  3.320633798685776E-003
  1.660316899342887E-003  0.000000000000000E+000  1.660316899342888E-002
  1.494285209408599E-002  1.328253519474311E-002  1.162221829540022E-002
  9.961901396057328E-003  8.301584496714441E-003  6.641267597371552E-003
  4.980950698028665E-003  3.320633798685776E-003  1.660316899342887E-003
  0.000000000000000E+000  1.660316899342888E-002  1.494285209408599E-002
  1.328253519474311E-002  1.162221829540022E-002  9.961901396057328E-003
  8.301584496714441E-003  6.641267597371552E-003  4.980950698028665E-003
  3.320633798685776E-003  1.660316899342887E-003  0.000000000000000E+000
  1.660316899342888E-002  1.494285209408599E-002  1.328253519474311E-002
  1.162221829540022E-002  9.961901396057328E-003  8.301584496714441E-003
  6.641267597371552E-003  4.980950698028665E-003  3.320633798685776E-003
  1.660316899342887E-003  0.000000000000000E+000  1.660316899342888E-002
  1.494285209408599E-002  1.328253519474311E-002  1.162221829540022E-002
  9.961901396057328E-003  8.301584496714441E-003  6.641267597371552E-003
  4.980950698028665E-003  3.320633798685776E-003  1.660316899342887E-003
  0.000000000000000E+000  1.660316899342888E-002  1.494285209408599E-002
  1.328253519474311E-002  1.162221829540022E-002  9.961901396057328E-003
  8.301584496714441E-003  6.641267597371552E-003  4.980950698028665E-003
  3.320633798685776E-003  1.660316899342887E-003  0.000000000000000E+000
  1.660316899342888E-002  1.494285209408599E-002  1.328253519474311E-002
  1.162221829540022E-002  9.961901396057328E-003  8.301584496714441E-003
  6.641267597371552E-003  4.980950698028665E-003  3.320633798685776E-003
  1.660316899342887E-003  0.000000000000000E+000  1.660316899342888E-002
  1.494285209408599E-002  1.328253519474311E-002  1.162221829540022E-002
  9.961901396057328E-003  8.301584496714441E-003  6.641267597371552E-003
  4.980950698028665E-003  3.320633798685776E-003  1.660316899342887E-003
  0.000000000000000E+000
 -4.522111269877539E-003  1.752962913505244E-004  7.199007663198754E-003
  1.481550870824650E-002  2.241786042798570E-002  3.002160797353156E-002
  3.741136939940483E-002  4.428792580015532E-002  5.070231072483810E-002
  5.665531842146412E-002 -8.626483267435991E-003 -1.533592236643478E-003
  9.724929382714773E-003  2.218060509896662E-002  3.477437018347810E-002
  4.739462774190652E-002  5.969320489417205E-002  7.124748265278490E-002
  8.210885836812430E-002  9.242248678001114E-002 -1.447629605423115E-002
 -7.157881838686272E-003  6.406847107359492E-003  2.220906939300359E-002
  3.870081066511714E-002  5.534995350857534E-002  7.166000025322394E-002
  8.719239015051185E-002  0.101873238869195       0.115517471599627     
 -1.975745185786119E-002 -1.395591761659987E-002 -3.487441634567529E-004
  1.667398175959612E-002  3.514813107595365E-002  5.405798023268168E-002
  7.270923514075926E-002  9.067136882069336E-002  0.107722641812051     
  0.123183806880130      -2.038448158616986E-002 -1.571370154870920E-002
 -3.007874804774967E-003  1.366741129127192E-002  3.229920160110872E-002
  5.168168382058177E-002  7.099450689543139E-002  8.968848806376263E-002
  0.107389578612081       0.123264562973823      -1.218815478273268E-002
 -5.613248347367909E-003  7.395910861381048E-003  2.378268689382756E-002
  4.191572947183823E-002  6.073343234637969E-002  7.950599899677607E-002
  9.770778958222834E-002  0.114891645237806       0.130119246062096     
  7.360508731567420E-003  2.080592101860889E-002  3.716967355511646E-002
  5.515127218460789E-002  7.388387268576452E-002  9.270383537854153E-002
  0.111101875776788       0.128661027029600       0.144968065276772     
  0.159094841529873       3.769821624546931E-002  6.329666619454422E-002
  8.675986921045130E-002  0.109179413086782       0.130693830609745     
  0.151182077286680       0.170445615320129       0.188251291646463     
  0.204273995716353       0.217610460840442       7.652347505718959E-002
  0.118664772975416       0.152528189207010       0.182069133892365     
  0.208585329918872       0.232577943903697       0.254207255109850     
  0.273457168781054       0.290114596584101       0.303299185890301     
  0.121815332951665       0.183900011874988       0.230785130841766     
  0.269639744828137       0.303017305372329       0.332078814809953     
  0.357378327031361       0.379134744113211       0.397253669052817     
  0.410864639185799       0.172184190936351       0.256874850194915     
  0.318837676627666       0.368734190715365       0.410458634613197     
  0.445860972352638       0.475907284486610       0.501059780206016     
  0.521336401068025       0.535843979497590       0.226507461462821     
  0.335850615227836       0.414457410003464       0.476707416211510     
  0.527918753959303       0.570659895142613       0.606314259395594     
  0.635590104525217       0.658612569137513       0.674440959250526     
  0.283762224365597       0.419237746275799       0.515599724786518     
  0.591120722895161       0.652609528556728       0.703383904394976     
  0.745255722535136       0.779185612005250       0.805411469700373     
  0.822932253721642       0.343094182826124       0.505699201111916     
  0.620527447697807       0.709879381912852       0.782108863709485     
  0.841313082467138       0.889747379864973       0.928632197341159     
  0.958334011713189       0.977802963098842       0.404015460351668     
  0.594437604153009       0.728166787267941       0.831640941351055     
  0.914804915923873       0.982568314944183        1.03765484757297     
   1.08156208594628        1.11479911390612        1.13629685478943     
  0.466476694969965       0.685371098744585       0.838372800810355     
  0.956151729617908        1.05028153536254        1.12651754638106     
   1.18809634987122        1.23683894221710        1.27343933072029     
   1.29685335079559       0.531517632235598       0.780180672248094     
  0.953211271325989        1.08561948387223        1.19069438392241     
   1.27512086791334        1.34273300163514        1.39577355421706     
   1.43522533075684        1.46018281626794       0.609201265022456     
  0.892318633527890        1.08745069158957        1.23515027421844     
   1.35102929050303        1.44304225975913        1.51583024841718     
   1.57220608953651        1.61358379481961        1.63937172705059     
  0.747344114955901        1.07823379797435        1.29890967332415     
   1.46293135449160        1.58990136370422        1.68946066044871     
   1.76731602623003        1.82703188791903        1.87053142748088     
   1.89746705100768       0.952293130902351        1.34715253723769     
   1.59733321045764        1.77679094598862        1.91161702366781     
   2.01505829163918        2.09476195536601        2.15534923728636     
   2.19936166572183        2.22686722134951        1.05579596262131     
   1.48180196967308        1.74208314450050        1.92154922190485     
   2.05250460456306        2.15064364049945        2.22472900503697     
   2.27989499570193        2.31896285415329        2.34262667536905     
   1.02635671873328        1.42612865552850        1.66227292228861     
   1.82036877352996        1.93318556601945        2.01637934915701     
   2.07831999404763        2.12365596254462        2.15474876215961     
   2.17221661898544       0.900521877922657        1.22544438138965     
   1.41033739001248        1.53221006975386        1.61857512064069     
   1.68204715014940        1.72920072062250        1.76363914452065     
   1.78723793324417        1.80062413012285       0.692621220989241     
  0.913362380857826        1.03733736456046        1.11927556412060     
   1.17756153590413        1.22055744388061        1.25265206280831     
   1.27633106541582        1.29321368306880        1.30559816091965     
  0.421803238688672       0.545482743010577       0.615633330551585     
  0.662278041113749       0.695584329915500       0.720217411656489     
  0.738637356601519       0.752214885753568       0.761706800766489     
  0.767383446137958     
  0.000000000000000E+000  0.000000000000000E+000  0.000000000000000E+000
  0.000000000000000E+000  0.000000000000000E+000  0.000000000000000E+000
  0.000000000000000E+000  0.000000000000000E+000  0.000000000000000E+000
  0.000000000000000E+000  0.000000000000000E+000  0.000000000000000E+000
  0.000000000000000E+000  0.000000000000000E+000  0.000000000000000E+000
  0.000000000000000E+000  0.000000000000000E+000  0.000000000000000E+000
  0.000000000000000E+000  0.000000000000000E+000  0.000000000000000E+000
  0.000000000000000E+000  0.000000000000000E+000  0.000000000000000E+000
  0.000000000000000E+000  0.000000000000000E+000  0.000000000000000E+000
  0.000000000000000E+000  0.000000000000000E+000  0.000000000000000E+000
  0.000000000000000E+000  0.000000000000000E+000  0.000000000000000E+000
  0.000000000000000E+000  0.000000000000000E+000  0.000000000000000E+000
  0.000000000000000E+000  0.000000000000000E+000  0.000000000000000E+000
  0.000000000000000E+000  0.000000000000000E+000  0.000000000000000E+000
  0.000000000000000E+000  0.000000000000000E+000  0.000000000000000E+000
  0.000000000000000E+000  0.000000000000000E+000  0.000000000000000E+000
  0.000000000000000E+000  0.000000000000000E+000  0.000000000000000E+000
  0.000000000000000E+000  0.000000000000000E+000  0.000000000000000E+000
  0.000000000000000E+000  0.000000000000000E+000  0.000000000000000E+000
  0.000000000000000E+000  0.000000000000000E+000  0.000000000000000E+000
  0.000000000000000E+000  0.000000000000000E+000  0.000000000000000E+000
  0.000000000000000E+000  0.000000000000000E+000  0.000000000000000E+000
  0.000000000000000E+000  0.000000000000000E+000  0.000000000000000E+000
  0.000000000000000E+000  0.000000000000000E+000  0.000000000000000E+000
  0.000000000000000E+000  0.000000000000000E+000  0.000000000000000E+000
  0.000000000000000E+000  0.000000000000000E+000  0.000000000000000E+000
  0.000000000000000E+000  0.000000000000000E+000  0.000000000000000E+000
  0.000000000000000E+000  0.000000000000000E+000  0.000000000000000E+000
  0.000000000000000E+000  0.000000000000000E+000  0.000000000000000E+000
  0.000000000000000E+000  0.000000000000000E+000  0.000000000000000E+000
  0.000000000000000E+000  0.000000000000000E+000  0.000000000000000E+000
  0.000000000000000E+000  0.000000000000000E+000  0.000000000000000E+000
  0.000000000000000E+000  0.000000000000000E+000  0.000000000000000E+000
  0.000000000000000E+000  0.000000000000000E+000  0.000000000000000E+000
  0.000000000000000E+000  0.000000000000000E+000  0.000000000000000E+000
  0.000000000000000E+000  0.000000000000000E+000  0.000000000000000E+000
  0.000000000000000E+000  0.000000000000000E+000  0.000000000000000E+000
  0.000000000000000E+000  0.000000000000000E+000  0.000000000000000E+000
  0.000000000000000E+000  0.000000000000000E+000  0.000000000000000E+000