 Title = "Wing and Wake"
 VARIABLES = "X" "Y" "Z" "GAM" "skew"
 Zone I=   11 J=   26 K=1  T="Blade"
 DATAPACKING=BLOCK
 VARLOCATION=([4]=CELLCENTERED,[5]=CELLCENTERED)
  2.792511301334015E-002  1.316112926019704E-002 -1.602854492946199E-003
 -1.636683824608937E-002 -3.113082199923263E-002 -4.589480575237585E-002
 -6.065878950551909E-002 -7.542277325866231E-002 -9.018675701180541E-002
 -0.104950740764949      -0.119714724518092       2.556571339220001E-002
  1.080172963905675E-002 -3.962254114086449E-003 -1.872623786722964E-002
 -3.349022162037288E-002 -4.825420537351600E-002 -6.301818912665932E-002
 -7.778217287980248E-002 -9.254615663294578E-002 -0.107310140386089     
 -0.122074124139232       1.852472367024196E-002  3.760739917098738E-003
 -1.100324383604443E-002 -2.576722758918764E-002 -4.053121134233088E-002
 -5.529519509547409E-002 -7.005917884861729E-002 -8.482316260176047E-002
 -9.958714635490372E-002 -0.114351130108047      -0.129115113861190     
  6.913184461464317E-003 -7.850799291678831E-003 -2.261478304482208E-002
 -3.737876679796522E-002 -5.214275055110832E-002 -6.690673430425162E-002
 -8.167071805739486E-002 -9.643470181053811E-002 -0.111198685563681     
 -0.125962669316825      -0.140726653069968      -9.085783324412558E-003
 -2.384976707755576E-002 -3.861375083069905E-002 -5.337773458384233E-002
 -6.814171833698544E-002 -8.290570209012864E-002 -9.766968584327183E-002
 -0.112433669596415      -0.127197653349558      -0.141961637102701     
 -0.156725620855845      -2.921986640808582E-002 -4.398385016122894E-002
 -5.874783391437216E-002 -7.351181766751540E-002 -8.827580142065868E-002
 -0.103039785173802      -0.117803768926945      -0.132567752680088     
 -0.147331736433231      -0.162095720186375      -0.176859703939518     
 -5.317153827180742E-002 -6.793552202495061E-002 -8.269950577809382E-002
 -9.746348953123718E-002 -0.112227473284380      -0.126991457037524     
 -0.141755440790667      -0.156519424543810      -0.171283408296953     
 -0.186047392050096      -0.200811375803239      -8.056306674225146E-002
 -9.532705049539460E-002 -0.110091034248538      -0.124855018001681     
 -0.139619001754824      -0.154382985507968      -0.169146969261111     
 -0.183910953014254      -0.198674936767397      -0.213438920520540     
 -0.228202904273684      -0.110962471052533      -0.125726454805676     
 -0.140490438558819      -0.155254422311963      -0.170018406065106     
 -0.184782389818249      -0.199546373571392      -0.214310357324535     
 -0.229074341077678      -0.243838324830822      -0.258602308583965     
 -0.143890334436955      -0.158654318190098      -0.173418301943241     
 -0.188182285696384      -0.202946269449528      -0.217710253202671     
 -0.232474236955814      -0.247238220708957      -0.262002204462100     
 -0.276766188215244      -0.291530171968387      -0.178827364819792     
 -0.193591348572936      -0.208355332326079      -0.223119316079222     
 -0.237883299832366      -0.252647283585509      -0.267411267338652     
 -0.282175251091795      -0.296939234844938      -0.311703218598081     
 -0.326467202351224      -0.215222584361539      -0.229986568114682     
 -0.244750551867825      -0.259514535620968      -0.274278519374112     
 -0.289042503127255      -0.303806486880398      -0.318570470633541     
 -0.333334454386684      -0.348098438139827      -0.362862421892971     
 -0.252502018708569      -0.267266002461712      -0.282029986214856     
 -0.296793969967999      -0.311557953721142      -0.326321937474285     
 -0.341085921227428      -0.355849904980572      -0.370613888733715     
 -0.385377872486858      -0.400141856240001      -0.290077748911577     
 -0.304841732664720      -0.319605716417864      -0.334369700171006     
 -0.349133683924150      -0.363897667677293      -0.378661651430437     
 -0.393425635183579      -0.408189618936723      -0.422953602689866     
 -0.437717586443009      -0.327357183258607      -0.342121167011751     
 -0.356885150764894      -0.371649134518037      -0.386413118271180     
 -0.401177102024324      -0.415941085777467      -0.430705069530610     
 -0.445469053283753      -0.460233037036897      -0.474997020790040     
 -0.363752402800354      -0.378516386553497      -0.393280370306640     
 -0.408044354059783      -0.422808337812927      -0.437572321566070     
 -0.452336305319213      -0.467100289072356      -0.481864272825499     
 -0.496628256578643      -0.511392240331786      -0.398689433183192     
 -0.413453416936334      -0.428217400689478      -0.442981384442621     
 -0.457745368195764      -0.472509351948908      -0.487273335702051     
 -0.502037319455194      -0.516801303208337      -0.531565286961480     
 -0.546329270714624      -0.431617296567613      -0.446381280320756     
 -0.461145264073900      -0.475909247827043      -0.490673231580186     
 -0.505437215333329      -0.520201199086472      -0.534965182839615     
 -0.549729166592759      -0.564493150345902      -0.579257134099045     
 -0.462016700877894      -0.476780684631038      -0.491544668384181     
 -0.506308652137324      -0.521072635890467      -0.535836619643611     
 -0.550600603396754      -0.565364587149897      -0.580128570903040     
 -0.594892554656184      -0.609656538409327      -0.489408229348339     
 -0.504172213101482      -0.518936196854625      -0.533700180607768     
 -0.548464164360911      -0.563228148114055      -0.577992131867198     
 -0.592756115620341      -0.607520099373484      -0.622284083126627     
 -0.637048066879771      -0.513359901212060      -0.528123884965204     
 -0.542887868718346      -0.557651852471490      -0.572415836224633     
 -0.587179819977776      -0.601943803730919      -0.616707787484063     
 -0.631471771237206      -0.646235754990349      -0.660999738743492     
 -0.533493984295733      -0.548257968048876      -0.563021951802020     
 -0.577785935555163      -0.592549919308306      -0.607313903061449     
 -0.622077886814592      -0.636841870567736      -0.651605854320880     
 -0.666369838074022      -0.681133821827166      -0.549492952081611     
 -0.564256935834754      -0.579020919587897      -0.593784903341040     
 -0.608548887094184      -0.623312870847327      -0.638076854600470     
 -0.652840838353613      -0.667604822106756      -0.682368805859900     
 -0.697132789613043      -0.561104491290388      -0.575868475043532     
 -0.590632458796674      -0.605396442549818      -0.620160426302961     
 -0.634924410056105      -0.649688393809247      -0.664452377562390     
 -0.679216361315534      -0.693980345068677      -0.708744328821821     
 -0.568145481012346      -0.582909464765489      -0.597673448518633     
 -0.612437432271776      -0.627201416024919      -0.641965399778062     
 -0.656729383531205      -0.671493367284348      -0.686257351037492     
 -0.701021334790635      -0.715785318543778      -0.570504880633486     
 -0.585268864386630      -0.600032848139773      -0.614796831892916     
 -0.629560815646059      -0.644324799399202      -0.659088783152346     
 -0.673852766905489      -0.688616750658632      -0.703380734411775     
 -0.718144718164919     
 -0.267468765268354      -0.255545232590046      -0.243621699911738     
 -0.231698167233430      -0.219774634555122      -0.207851101876814     
 -0.195927569198506      -0.184004036520198      -0.172080503841890     
 -0.160156971163582      -0.148233438485273      -0.270390226433723     
 -0.258466693755415      -0.246543161077107      -0.234619628398799     
 -0.222696095720491      -0.210772563042183      -0.198849030363875     
 -0.186925497685567      -0.175001965007259      -0.163078432328951     
 -0.151154899650643      -0.279108536742056      -0.267185004063748     
 -0.255261471385440      -0.243337938707132      -0.231414406028824     
 -0.219490873350516      -0.207567340672208      -0.195643807993900     
 -0.183720275315592      -0.171796742637284      -0.159873209958976     
 -0.293486203231725      -0.281562670553416      -0.269639137875108     
 -0.257715605196800      -0.245792072518492      -0.233868539840184     
 -0.221945007161876      -0.210021474483568      -0.198097941805260     
 -0.186174409126952      -0.174250876448644      -0.313296481513385     
 -0.301372948835077      -0.289449416156768      -0.277525883478460     
 -0.265602350800152      -0.253678818121844      -0.241755285443536     
 -0.229831752765228      -0.217908220086920      -0.205984687408612     
 -0.194061154730304      -0.338226951664448      -0.326303418986140     
 -0.314379886307832      -0.302456353629524      -0.290532820951216     
 -0.278609288272908      -0.266685755594599      -0.254762222916291     
 -0.242838690237983      -0.230915157559675      -0.218991624881367     
 -0.367884445277891      -0.355960912599583      -0.344037379921275     
 -0.332113847242967      -0.320190314564659      -0.308266781886351     
 -0.296343249208043      -0.284419716529735      -0.272496183851427     
 -0.260572651173119      -0.248649118494811      -0.401801245962903     
 -0.389877713284595      -0.377954180606287      -0.366030647927978     
 -0.354107115249670      -0.342183582571362      -0.330260049893054     
 -0.318336517214746      -0.306412984536438      -0.294489451858130     
 -0.282565919179822      -0.439442465511765      -0.427518932833457     
 -0.415595400155149      -0.403671867476841      -0.391748334798533     
 -0.379824802120225      -0.367901269441917      -0.355977736763609     
 -0.344054204085301      -0.332130671406992      -0.320207138728684     
 -0.480214479406418      -0.468290946728110      -0.456367414049802     
 -0.444443881371494      -0.432520348693186      -0.420596816014877     
 -0.408673283336569      -0.396749750658261      -0.384826217979953     
 -0.372902685301645      -0.360979152623337      -0.523474288631722     
 -0.511550755953414      -0.499627223275106      -0.487703690596798     
 -0.475780157918490      -0.463856625240182      -0.451933092561874     
 -0.440009559883566      -0.428086027205258      -0.416162494526950     
 -0.404238961848641      -0.568539660154038      -0.556616127475729     
 -0.544692594797421      -0.532769062119113      -0.520845529440805     
 -0.508921996762497      -0.496998464084189      -0.485074931405881     
 -0.473151398727573      -0.461227866049265      -0.449304333370957     
 -0.614699886143708      -0.602776353465401      -0.590852820787093     
 -0.578929288108784      -0.567005755430476      -0.555082222752168     
 -0.543158690073860      -0.531235157395552      -0.519311624717244     
 -0.507388092038936      -0.495464559360628      -0.661226992262096     
 -0.649303459583788      -0.637379926905480      -0.625456394227172     
 -0.613532861548864      -0.601609328870556      -0.589685796192248     
 -0.577762263513940      -0.565838730835632      -0.553915198157324     
 -0.541991665479016      -0.707387218251767      -0.695463685573459     
 -0.683540152895151      -0.671616620216843      -0.659693087538535     
 -0.647769554860227      -0.635846022181919      -0.623922489503611     
 -0.611998956825303      -0.600075424146995      -0.588151891468687     
 -0.752452589774083      -0.740529057095774      -0.728605524417467     
 -0.716681991739159      -0.704758459060850      -0.692834926382543     
 -0.680911393704234      -0.668987861025927      -0.657064328347619     
 -0.645140795669310      -0.633217262991002      -0.795712398999387     
 -0.783788866321079      -0.771865333642771      -0.759941800964463     
 -0.748018268286155      -0.736094735607847      -0.724171202929539     
 -0.712247670251231      -0.700324137572923      -0.688400604894615     
 -0.676477072216306      -0.836484412894040      -0.824560880215732     
 -0.812637347537424      -0.800713814859116      -0.788790282180807     
 -0.776866749502499      -0.764943216824191      -0.753019684145883     
 -0.741096151467575      -0.729172618789267      -0.717249086110959     
 -0.874125632442902      -0.862202099764594      -0.850278567086286     
 -0.838355034407978      -0.826431501729670      -0.814507969051362     
 -0.802584436373054      -0.790660903694746      -0.778737371016438     
 -0.766813838338130      -0.754890305659822      -0.908042433127914     
 -0.896118900449605      -0.884195367771297      -0.872271835092989     
 -0.860348302414681      -0.848424769736373      -0.836501237058065     
 -0.824577704379757      -0.812654171701449      -0.800730639023141     
 -0.788807106344833      -0.937699926741357      -0.925776394063048     
 -0.913852861384741      -0.901929328706432      -0.890005796028125     
 -0.878082263349816      -0.866158730671509      -0.854235197993201     
 -0.842311665314892      -0.830388132636584      -0.818464599958276     
 -0.962630396892420      -0.950706864214112      -0.938783331535804     
 -0.926859798857496      -0.914936266179188      -0.903012733500880     
 -0.891089200822572      -0.879165668144263      -0.867242135465956     
 -0.855318602787648      -0.843395070109340      -0.982440675174081     
 -0.970517142495772      -0.958593609817464      -0.946670077139156     
 -0.934746544460848      -0.922823011782540      -0.910899479104232     
 -0.898975946425924      -0.887052413747616      -0.875128881069308     
 -0.863205348390999      -0.996818341663748      -0.984894808985441     
 -0.972971276307132      -0.961047743628825      -0.949124210950517     
 -0.937200678272209      -0.925277145593901      -0.913353612915592     
 -0.901430080237284      -0.889506547558977      -0.877583014880669     
  -1.00553665197208      -0.993613119293774      -0.981689586615465     
 -0.969766053937157      -0.957842521258849      -0.945918988580541     
 -0.933995455902233      -0.922071923223924      -0.910148390545617     
 -0.898224857867309      -0.886301325189001       -1.00845811313745     
 -0.996534580459143      -0.984611047780835      -0.972687515102526     
 -0.960763982424219      -0.948840449745911      -0.936916917067602     
 -0.924993384389294      -0.913069851710986      -0.901146319032678     
 -0.889222786354371     
  1.660316899342888E-002  1.494285209408599E-002  1.328253519474311E-002
  1.162221829540022E-002  9.961901396057328E-003  8.301584496714441E-003
  6.641267597371552E-003  4.980950698028665E-003  3.320633798685776E-003
  1.660316899342887E-003  0.000000000000000E+000  1.660316899342888E-002
  1.494285209408599E-002  1.328253519474311E-002  1.162221829540022E-002
  9.961901396057328E-003  8.301584496714441E-003  6.641267597371552E-003
  4.980950698028665E-003  3.320633798685776E-003  1.660316899342887E-003
  0.000000000000000E+000  1.660316899342888E-002  1.494285209408599E-002
  1.328253519474311E-002  1.162221829540022E-002  9.961901396057328E-003
  8.301584496714441E-003  6.641267597371552E-003  4.980950698028665E-003
  3.320633798685776E-003  1.660316899342887E-003  0.000000000000000E+000
  1.660316899342888E-002  1.494285209408599E-002  1.328253519474311E-002
  1.162221829540022E-002  9.961901396057328E-003  8.301584496714441E-003
  6.641267597371552E-003  4.980950698028665E-003  3.320633798685776E-003
  1.660316899342887E-003  0.000000000000000E+000  1.660316899342888E-002
  1.494285209408599E-002  1.328253519474311E-002  1.162221829540022E-002
  9.961901396057328E-003  8.301584496714441E-003  6.641267597371552E-003
  4.980950698028665E-003  3.320633798685776E-003  1.660316899342887E-003
  0.000000000000000E+000  1.660316899342888E-002  1.494285209408599E-002
  1.328253519474311E-002  1.162221829540022E-002  9.961901396057328E-003
  8.301584496714441E-003  6.641267597371552E-003  4.980950698028665E-003
  3.320633798685776E-003  1.660316899342887E-003  0.000000000000000E+000
  1.660316899342888E-002  1.494285209408599E-002  1.328253519474311E-002
  1.162221829540022E-002  9.961901396057328E-003  8.301584496714441E-003
  6.641267597371552E-003  4.980950698028665E-003  3.320633798685776E-003
  1.660316899342887E-003  0.000000000000000E+000  1.660316899342888E-002
  1.494285209408599E-002  1.328253519474311E-002  1.162221829540022E-002
  9.961901396057328E-003  8.301584496714441E-003  6.641267597371552E-003
  4.980950698028665E-003  3.320633798685776E-003  1.660316899342887E-003
  0.000000000000000E+000  1.660316899342888E-002  1.494285209408599E-002
  1.328253519474311E-002  1.162221829540022E-002  9.961901396057328E-003
  8.301584496714441E-003  6.641267597371552E-003  4.980950698028665E-003
  3.320633798685776E-003  1.660316899342887E-003  0.000000000000000E+000
  1.660316899342888E-002  1.494285209408599E-002  1.328253519474311E-002
  1.162221829540022E-002  9.961901396057328E-003  8.301584496714441E-003
  6.641267597371552E-003  4.980950698028665E-003  3.320633798685776E-003
  1.660316899342887E-003  0.000000000000000E+000  1.660316899342888E-002
  1.494285209408599E-002  1.328253519474311E-002  1.162221829540022E-002
  9.961901396057328E-003  8.301584496714441E-003  6.641267597371552E-003
  4.980950698028665E-003  3.320633798685776E-003  1.660316899342887E-003
  0.000000000000000E+000  1.660316899342888E-002  1.494285209408599E-002
  1.328253519474311E-002  1.162221829540022E-002  9.961901396057328E-003
  8.301584496714441E-003  6.641267597371552E-003  4.980950698028665E-003
  3.320633798685776E-003  1.660316899342887E-003  0.000000000000000E+000
  1.660316899342888E-002  1.494285209408599E-002  1.328253519474311E-002
  1.162221829540022E-002  9.961901396057328E-003  8.301584496714441E-003
  6.641267597371552E-003  4.980950698028665E-003  3.320633798685776E-003
  1.660316899342887E-003  0.000000000000000E+000  1.660316899342888E-002
  1.494285209408599E-002  1.328253519474311E-002  1.162221829540022E-002
  9.961901396057328E-003  8.301584496714441E-003  6.641267597371552E-003
  4.980950698028665E-003  3.320633798685776E-003  1.660316899342887E-003
  0.000000000000000E+000  1.660316899342888E-002  1.494285209408599E-002
  1.328253519474311E-002  1.162221829540022E-002  9.961901396057328E-003
  8.301584496714441E-003  6.641267597371552E-003  4.980950698028665E-003
  3.320633798685776E-003  1.660316899342887E-003  0.000000000000000E+000
  1.660316899342888E-002  1.494285209408599E-002  1.328253519474311E-002
  1.162221829540022E-002  9.961901396057328E-003  8.301584496714441E-003
  6.641267597371552E-003  4.980950698028665E-003  3.320633798685776E-003
  1.660316899342887E-003  0.000000000000000E+000  1.660316899342888E-002
  1.494285209408599E-002  1.328253519474311E-002  1.162221829540022E-002
  9.961901396057328E-003  8.301584496714441E-003  6.641267597371552E-003
  4.980950698028665E-003  3.320633798685776E-003  1.660316899342887E-003
  0.000000000000000E+000  1.660316899342888E-002  1.494285209408599E-002
  1.328253519474311E-002  1.162221829540022E-002  9.961901396057328E-003
  8.301584496714441E-003  6.641267597371552E-003  4.980950698028665E-003
  3.320633798685776E-003  1.660316899342887E-003  0.000000000000000E+000
  1.660316899342888E-002  1.494285209408599E-002  1.328253519474311E-002
  1.162221829540022E-002  9.961901396057328E-003  8.301584496714441E-003
  6.641267597371552E-003  4.980950698028665E-003  3.320633798685776E-003
  1.660316899342887E-003  0.000000000000000E+000  1.660316899342888E-002
  1.494285209408599E-002  1.328253519474311E-002  1.162221829540022E-002
  9.961901396057328E-003  8.301584496714441E-003  6.641267597371552E-003
  4.980950698028665E-003  3.320633798685776E-003  1.660316899342887E-003
  0.000000000000000E+000  1.660316899342888E-002  1.494285209408599E-002
  1.328253519474311E-002  1.162221829540022E-002  9.961901396057328E-003
  8.301584496714441E-003  6.641267597371552E-003  4.980950698028665E-003
  3.320633798685776E-003  1.660316899342887E-003  0.000000000000000E+000
  1.660316899342888E-002  1.494285209408599E-002  1.328253519474311E-002
  1.162221829540022E-002  9.961901396057328E-003  8.301584496714441E-003
  6.641267597371552E-003  4.980950698028665E-003  3.320633798685776E-003
  1.660316899342887E-003  0.000000000000000E+000  1.660316899342888E-002
  1.494285209408599E-002  1.328253519474311E-002  1.162221829540022E-002
  9.961901396057328E-003  8.301584496714441E-003  6.641267597371552E-003
  4.980950698028665E-003  3.320633798685776E-003  1.660316899342887E-003
  0.000000000000000E+000  1.660316899342888E-002  1.494285209408599E-002
  1.328253519474311E-002  1.162221829540022E-002  9.961901396057328E-003
  8.301584496714441E-003  6.641267597371552E-003  4.980950698028665E-003
  3.320633798685776E-003  1.660316899342887E-003  0.000000000000000E+000
  1.660316899342888E-002  1.494285209408599E-002  1.328253519474311E-002
  1.162221829540022E-002  9.961901396057328E-003  8.301584496714441E-003
  6.641267597371552E-003  4.980950698028665E-003  3.320633798685776E-003
  1.660316899342887E-003  0.000000000000000E+000  1.660316899342888E-002
  1.494285209408599E-002  1.328253519474311E-002  1.162221829540022E-002
  9.961901396057328E-003  8.301584496714441E-003  6.641267597371552E-003
  4.980950698028665E-003  3.320633798685776E-003  1.660316899342887E-003
  0.000000000000000E+000
  9.435057353686210E-002  0.126694911988473       0.147035751597263     
  0.161680074993849       0.172889447299061       0.181742726163402     
  0.188795223710026       0.194328354476585       0.198434054504019     
  0.200911719693663       0.157910366919984       0.215741499477691     
  0.251789115325812       0.277636900861370       0.297366355967612     
  0.312906222837208       0.325256110203429       0.334939573932312     
  0.342205043453452       0.347259480391965       0.216001066813060     
  0.303273451239931       0.358133864677604       0.397425589191500     
  0.427331512113713       0.450776681520891       0.469287841658649     
  0.483668165426041       0.494259576209859       0.500690711505007     
  0.268179202752436       0.383506311760514       0.458154696093164     
  0.512231235484892       0.553492632170929       0.585722184686502     
  0.610938501251936       0.630180235944288       0.643704165258871     
  0.650616571289573       0.317369262338517       0.458655610193773     
  0.552607009279093       0.621812552456964       0.675033938524969     
  0.716626039376108       0.748947827327363       0.773183944941929     
  0.789544469498690       0.796989829084785       0.365636116879335     
  0.531778067900596       0.644276250169114       0.728263462924992     
  0.793380403435955       0.844416340209662       0.883973648437449     
  0.913345866032156       0.932742847045627       0.941066040890400     
  0.414578468380465       0.605237136383028       0.735743948766712     
  0.834031701224861       0.910713455500437       0.971027131307468     
   1.01779853758523        1.05242064928474        1.07511785682106     
   1.08473592534978       0.465031587354885       0.680329922386959     
  0.828613410818170       0.940883767475876        1.02884896894814     
   1.09824552922219        1.15214708242468        1.19207103812508     
   1.21826773053287        1.22947841133153       0.517117164318298     
  0.757383550184485       0.923422794860256        1.04952183420599     
   1.14858049867259        1.22689585259415        1.28783367057246     
   1.33305765348016        1.36284476543387        1.37580565853325     
  0.570434359691183       0.835932744297756        1.01971799160260     
   1.15951722223625        1.26949758386563        1.35656347233523     
   1.42440852922077        1.47486282833537        1.50823146754975     
   1.52299282603524       0.624153840489983       0.914831194148055     
   1.11616775882742        1.26940929572018        1.39003879653225     
   1.48560096036811        1.56013337529532        1.61564405710057     
   1.65248597649932        1.66901491099853       0.677076668237115     
  0.992343574535586        1.21067735710774        1.37683649526675     
   1.50762652891052        1.61124326202858        1.69208191153979     
   1.75233896991798        1.79242662269478        1.81060218947669     
  0.727678143651858        1.06622799284449        1.30049732893451     
   1.47864871959042        1.61878343433676        1.72974327862509     
   1.81628050442719        1.88078457708778        1.92374412767763     
   1.94335462200897       0.774149805511586        1.13379154425609     
   1.38229283109152        1.57099968264144        1.71923856260562     
   1.83647057829186        1.92780041566054        1.99581788928999     
   2.04110275512648        2.06183004165067       0.814428785948326     
   1.19193809557107        1.45220187301013        1.64940423998744     
   1.80398262950410        1.92597467117734        2.02082627676812     
   2.09133370290821        2.13818787677241        2.15959548949724     
  0.846228752611989        1.23720274895980        1.50586603767837     
   1.70877017748338        1.86730608026782        1.99202528871903     
   2.08869372194025        2.16032066843612        2.20773889490127     
   2.22925732136451       0.867069571007831        1.26578408307337     
   1.53846241707413        1.74342612248839        1.90282512991943     
   2.02764399876443        2.12393776298499        2.19492997041017     
   2.24163055219006        2.26253962501990       0.874316932584244     
   1.27358341347064        1.54473770761896        1.74715943890511     
   1.90353141827631        2.02518110087181        2.11841106764114     
   2.18664547532489        2.23109375344507        2.25053953348653     
  0.865222956758359        1.25623455638059        1.51903666712391     
   1.71327386456738        1.86191737608686        1.97652884568090     
   2.06359413867181        2.12669497814504        2.16722417002478     
   2.18430946159197       0.836935875740134        1.20907171602770     
   1.45529224000631        1.63468927133923        1.77025505203860     
   1.87362223165385        1.95131850744889        2.00695901411634     
   2.04203042919934        2.05599228506362       0.786407348407955     
   1.12694542441247        1.34696586127023        1.50421022893931     
   1.62128055134755        1.70951258907608        1.77515775627692     
   1.82160838853158        1.85024349815682        1.86071674455539     
  0.710059699286867        1.00383800966837        1.18728251214951     
   1.31559015732708        1.40990020675880        1.48042564842088     
   1.53260199890607        1.56928108229796        1.59154242019646     
   1.59899200749736       0.602803165135727       0.832910160578565     
  0.971306791312641        1.06679916258911        1.13669607944451     
   1.18894524785114        1.22767250562425        1.25504827796620     
   1.27198995700365        1.27837636918844       0.456656722497641     
  0.611119775299220       0.702841134220603       0.766284959004274     
  0.812911174553987       0.847917416514520       0.874017624019708     
  0.892697819809564       0.904806473666710       0.911523256127478     
  0.276724289450141       0.363163182029360       0.414966050505443     
  0.450991977546486       0.477558585295735       0.497551635483423     
  0.512479176084731       0.523147714623042       0.529927967348205     
  0.532782324705858     
  0.000000000000000E+000  0.000000000000000E+000  0.000000000000000E+000
  0.000000000000000E+000  0.000000000000000E+000  0.000000000000000E+000
  0.000000000000000E+000  0.000000000000000E+000  0.000000000000000E+000
  0.000000000000000E+000  0.000000000000000E+000  0.000000000000000E+000
  0.000000000000000E+000  0.000000000000000E+000  0.000000000000000E+000
  0.000000000000000E+000  0.000000000000000E+000  0.000000000000000E+000
  0.000000000000000E+000  0.000000000000000E+000  0.000000000000000E+000
  0.000000000000000E+000  0.000000000000000E+000  0.000000000000000E+000
  0.000000000000000E+000  0.000000000000000E+000  0.000000000000000E+000
  0.000000000000000E+000  0.000000000000000E+000  0.000000000000000E+000
  0.000000000000000E+000  0.000000000000000E+000  0.000000000000000E+000
  0.000000000000000E+000  0.000000000000000E+000  0.000000000000000E+000
  0.000000000000000E+000  0.000000000000000E+000  0.000000000000000E+000
  0.000000000000000E+000  0.000000000000000E+000  0.000000000000000E+000
  0.000000000000000E+000  0.000000000000000E+000  0.000000000000000E+000
  0.000000000000000E+000  0.000000000000000E+000  0.000000000000000E+000
  0.000000000000000E+000  0.000000000000000E+000  0.000000000000000E+000
  0.000000000000000E+000  0.000000000000000E+000  0.000000000000000E+000
  0.000000000000000E+000  0.000000000000000E+000  0.000000000000000E+000
  0.000000000000000E+000  0.000000000000000E+000  0.000000000000000E+000
  0.000000000000000E+000  0.000000000000000E+000  0.000000000000000E+000
  0.000000000000000E+000  0.000000000000000E+000  0.000000000000000E+000
  0.000000000000000E+000  0.000000000000000E+000  0.000000000000000E+000
  0.000000000000000E+000  0.000000000000000E+000  0.000000000000000E+000
  0.000000000000000E+000  0.000000000000000E+000  0.000000000000000E+000
  0.000000000000000E+000  0.000000000000000E+000  0.000000000000000E+000
  0.000000000000000E+000  0.000000000000000E+000  0.000000000000000E+000
  0.000000000000000E+000  0.000000000000000E+000  0.000000000000000E+000
  0.000000000000000E+000  0.000000000000000E+000  0.000000000000000E+000
  0.000000000000000E+000  0.000000000000000E+000  0.000000000000000E+000
  0.000000000000000E+000  0.000000000000000E+000  0.000000000000000E+000
  0.000000000000000E+000  0.000000000000000E+000  0.000000000000000E+000
  0.000000000000000E+000  0.000000000000000E+000  0.000000000000000E+000
  0.000000000000000E+000  0.000000000000000E+000  0.000000000000000E+000
  0.000000000000000E+000  0.000000000000000E+000  0.000000000000000E+000
  0.000000000000000E+000  0.000000000000000E+000  0.000000000000000E+000
  0.000000000000000E+000  0.000000000000000E+000  0.000000000000000E+000
  0.000000000000000E+000  0.000000000000000E+000  0.000000000000000E+000
  0.000000000000000E+000  0.000000000000000E+000  0.000000000000000E+000