 Title = "Wing and Wake"
 VARIABLES = "X" "Y" "Z" "GAM" "skew"
 Zone I=   11 J=   26 K=1  T="Blade"
 DATAPACKING=BLOCK
 VARLOCATION=([4]=CELLCENTERED,[5]=CELLCENTERED)
 -0.155247254402231      -0.158495207906322      -0.161743161410413     
 -0.164991114914504      -0.168239068418595      -0.171487021922686     
 -0.174734975426777      -0.177982928930868      -0.181230882434960     
 -0.184478835939050      -0.187726789443142      -0.158947070925829     
 -0.162195024429920      -0.165442977934011      -0.168690931438102     
 -0.171938884942193      -0.175186838446284      -0.178434791950375     
 -0.181682745454466      -0.184930698958558      -0.188178652462648     
 -0.191426605966740      -0.169988172179882      -0.173236125683973     
 -0.176484079188065      -0.179732032692155      -0.182979986196246     
 -0.186227939700338      -0.189475893204429      -0.192723846708520     
 -0.195971800212611      -0.199219753716702      -0.202467707220793     
 -0.188196433401981      -0.191444386906071      -0.194692340410163     
 -0.197940293914254      -0.201188247418345      -0.204436200922436     
 -0.207684154426527      -0.210932107930618      -0.214180061434709     
 -0.217428014938800      -0.220675968442891      -0.213284699435564     
 -0.216532652939654      -0.219780606443745      -0.223028559947836     
 -0.226276513451928      -0.229524466956018      -0.232772420460110     
 -0.236020373964201      -0.239268327468291      -0.242516280972383     
 -0.245764234476474      -0.244857313338277      -0.248105266842368     
 -0.251353220346458      -0.254601173850550      -0.257849127354641     
 -0.261097080858732      -0.264345034362823      -0.267592987866914     
 -0.270840941371006      -0.274088894875097      -0.277336848379188     
 -0.282416356128310      -0.285664309632401      -0.288912263136492     
 -0.292160216640584      -0.295408170144675      -0.298656123648766     
 -0.301904077152857      -0.305152030656948      -0.308399984161039     
 -0.311647937665130      -0.314895891169221      -0.325369499264180     
 -0.328617452768272      -0.331865406272363      -0.335113359776454     
 -0.338361313280545      -0.341609266784636      -0.344857220288727     
 -0.348105173792819      -0.351353127296909      -0.354601080801000     
 -0.357849034305092      -0.373039346019670      -0.376287299523762     
 -0.379535253027852      -0.382783206531944      -0.386031160036035     
 -0.389279113540126      -0.392527067044217      -0.395775020548307     
 -0.399022974052399      -0.402270927556491      -0.405518881060581     
 -0.424674114434860      -0.427922067938951      -0.431170021443041     
 -0.434417974947133      -0.437665928451224      -0.440913881955315     
 -0.444161835459407      -0.447409788963497      -0.450657742467589     
 -0.453905695971680      -0.457153649475771      -0.479459493366726     
 -0.482707446870817      -0.485955400374909      -0.489203353879001     
 -0.492451307383090      -0.495699260887181      -0.498947214391273     
 -0.502195167895363      -0.505443121399456      -0.508691074903547     
 -0.511939028407637      -0.536531484662313      -0.539779438166406     
 -0.543027391670495      -0.546275345174587      -0.549523298678679     
 -0.552771252182770      -0.556019205686861      -0.559267159190952     
 -0.562515112695042      -0.565763066199134      -0.569011019703225     
 -0.594990028925736      -0.598237982429831      -0.601485935933919     
 -0.604733889438012      -0.607981842942101      -0.611229796446194     
 -0.614477749950286      -0.617725703454376      -0.620973656958467     
 -0.624221610462557      -0.627469563966649      -0.653913199992521     
 -0.657161153496613      -0.660409107000705      -0.663657060504794     
 -0.666905014008885      -0.670152967512976      -0.673400921017067     
 -0.676648874521160      -0.679896828025251      -0.683144781529342     
 -0.686392735033432      -0.712371744255945      -0.715619697760036     
 -0.718867651264127      -0.722115604768219      -0.725363558272309     
 -0.728611511776401      -0.731859465280491      -0.735107418784584     
 -0.738355372288675      -0.741603325792765      -0.744851279296857     
 -0.769443735551534      -0.772691689055624      -0.775939642559717     
 -0.779187596063809      -0.782435549567897      -0.785683503071988     
 -0.788931456576079      -0.792179410080173      -0.795427363584263     
 -0.798675317088352      -0.801923270592445      -0.824229114483399     
 -0.827477067987491      -0.830725021491580      -0.833972974995672     
 -0.837220928499764      -0.840468882003855      -0.843716835507947     
 -0.846964789012037      -0.850212742516128      -0.853460696020219     
 -0.856708649524312      -0.875863882898588      -0.879111836402680     
 -0.882359789906772      -0.885607743410863      -0.888855696914954     
 -0.892103650419045      -0.895351603923136      -0.898599557427227     
 -0.901847510931317      -0.905095464435410      -0.908343417939499     
 -0.923533729654078      -0.926781683158169      -0.930029636662261     
 -0.933277590166354      -0.936525543670442      -0.939773497174534     
 -0.943021450678625      -0.946269404182717      -0.949517357686808     
 -0.952765311190898      -0.956013264694989      -0.966486872789947     
 -0.969734826294042      -0.972982779798130      -0.976230733302223     
 -0.979478686806314      -0.982726640310405      -0.985974593814496     
 -0.989222547318587      -0.992470500822676      -0.995718454326770     
 -0.998966407830859       -1.00404591557998       -1.00729386908407     
  -1.01054182258817       -1.01378977609225       -1.01703772959635     
  -1.02028568310044       -1.02353363660453       -1.02678159010862     
  -1.03002954361271       -1.03327749711680       -1.03652545062089     
  -1.03561852948270       -1.03886648298679       -1.04211443649088     
  -1.04536238999497       -1.04861034349906       -1.05185829700315     
  -1.05510625050724       -1.05835420401133       -1.06160215751543     
  -1.06485011101952       -1.06809806452361       -1.06070679551628     
  -1.06395474902037       -1.06720270252446       -1.07045065602855     
  -1.07369860953264       -1.07694656303673       -1.08019451654082     
  -1.08344247004492       -1.08669042354901       -1.08993837705310     
  -1.09318633055719       -1.07891505673838       -1.08216301024247     
  -1.08541096374656       -1.08865891725065       -1.09190687075474     
  -1.09515482425884       -1.09840277776292       -1.10165073126701     
  -1.10489868477111       -1.10814663827520       -1.11139459177929     
  -1.08995615799243       -1.09320411149652       -1.09645206500061     
  -1.09970001850470       -1.10294797200879       -1.10619592551288     
  -1.10944387901698       -1.11269183252107       -1.11593978602516     
  -1.11918773952925       -1.12243569303334       -1.09365597451603     
  -1.09690392802012       -1.10015188152421       -1.10339983502830     
  -1.10664778853239       -1.10989574203648       -1.11314369554057     
  -1.11639164904467       -1.11963960254876       -1.12288755605285     
  -1.12613550955694     
 -0.219585159634146      -0.200887655901589      -0.182190152169031     
 -0.163492648436473      -0.144795144703916      -0.126097640971357     
 -0.107400137238800      -8.870263350624162E-002 -7.000512977368409E-002
 -5.130762604112598E-002 -3.261012230856838E-002 -0.220227856767100     
 -0.201530353034543      -0.182832849301985      -0.164135345569428     
 -0.145437841836870      -0.126740338104312      -0.108042834371754     
 -8.934533063919591E-002 -7.064782690663807E-002 -5.195032317408031E-002
 -3.325281944152241E-002 -0.222145812448248      -0.203448308715690     
 -0.184750804983133      -0.166053301250574      -0.147355797518016     
 -0.128658293785459      -0.109960790052901      -9.126328632034299E-002
 -7.256578258778502E-002 -5.386827885522744E-002 -3.517077512266958E-002
 -0.225308779370765      -0.206611275638207      -0.187913771905649     
 -0.169216268173091      -0.150518764440534      -0.131821260707976     
 -0.113123756975417      -9.442625324286004E-002 -7.572874951030253E-002
 -5.703124577774443E-002 -3.833374204518684E-002 -0.229666875656819     
 -0.210969371924261      -0.192271868191703      -0.173574364459145     
 -0.154876860726588      -0.136179356994029      -0.117481853261472     
 -9.878434952891411E-002 -8.008684579635629E-002 -6.138934206379838E-002
 -4.269183833124091E-002 -0.235151371524579      -0.216453867792021     
 -0.197756364059463      -0.179058860326905      -0.160361356594348     
 -0.141663852861789      -0.122966349129231      -0.104268845396674     
 -8.557134166411615E-002 -6.687383793155803E-002 -4.817633419900012E-002
 -0.241675773197930      -0.222978269465372      -0.204280765732815     
 -0.185583262000257      -0.166885758267699      -0.148188254535141     
 -0.129490750802584      -0.110793247070025      -9.209574333746692E-002
 -7.339823960491006E-002 -5.470073587235206E-002 -0.249137186964996     
 -0.230439683232439      -0.211742179499881      -0.193044675767323     
 -0.174347172034765      -0.155649668302207      -0.136952164569649     
 -0.118254660837092      -9.955715710453356E-002 -8.085965337197594E-002
 -6.216214963941837E-002 -0.257417941873437      -0.238720438140880     
 -0.220022934408322      -0.201325430675764      -0.182627926943207     
 -0.163930423210649      -0.145232919478090      -0.126535415745533     
 -0.107837912012975      -8.914040828041715E-002 -7.044290454785970E-002
 -0.266387445471665      -0.247689941739106      -0.228992438006549     
 -0.210294934273991      -0.191597430541433      -0.172899926808876     
 -0.154202423076318      -0.135504919343760      -0.116807415611202     
 -9.810991187864469E-002 -7.941240814608691E-002 -0.275904243329813     
 -0.257206739597255      -0.238509235864697      -0.219811732132139     
 -0.201114228399581      -0.182416724667023      -0.163719220934466     
 -0.145021717201907      -0.126324213469350      -0.107626709736792     
 -8.892920600423464E-002 -0.285818249860599      -0.267120746128040     
 -0.248423242395481      -0.229725738662925      -0.211028234930367     
 -0.192330731197809      -0.173633227465251      -0.154935723732693     
 -0.136238220000136      -0.117540716267578      -9.884321253502019E-002
 -0.295973115258689      -0.277275611526132      -0.258578107793575     
 -0.239880604061017      -0.221183100328458      -0.202485596595902     
 -0.183788092863344      -0.165090589130785      -0.146393085398227     
 -0.127695581665670      -0.108998077933112      -0.306208691230539     
 -0.287511187497981      -0.268813683765423      -0.250116180032865     
 -0.231418676300308      -0.212721172567749      -0.194023668835191     
 -0.175326165102634      -0.156628661370077      -0.137931157637518     
 -0.119233653904961      -0.316363556628631      -0.297666052896073     
 -0.278968549163515      -0.260271045430958      -0.241573541698400     
 -0.222876037965842      -0.204178534233284      -0.185481030500726     
 -0.166783526768168      -0.148086023035611      -0.129388519303053     
 -0.326277563159416      -0.307580059426858      -0.288882555694300     
 -0.270185051961742      -0.251487548229184      -0.232790044496627     
 -0.214092540764070      -0.195395037031512      -0.176697533298953     
 -0.158000029566395      -0.139302525833838      -0.335794361017564     
 -0.317096857285007      -0.298399353552448      -0.279701849819889     
 -0.261004346087332      -0.242306842354776      -0.223609338622216     
 -0.204911834889659      -0.186214331157103      -0.167516827424544     
 -0.148819323691987      -0.344763864615791      -0.326066360883234     
 -0.307368857150676      -0.288671353418117      -0.269973849685560     
 -0.251276345953003      -0.232578842220444      -0.213881338487886     
 -0.195183834755328      -0.176486331022771      -0.157788827290214     
 -0.353044619524233      -0.334347115791675      -0.315649612059117     
 -0.296952108326559      -0.278254604594002      -0.259557100861444     
 -0.240859597128885      -0.222162093396328      -0.203464589663769     
 -0.184767085931212      -0.166069582198655      -0.360506033291299     
 -0.341808529558742      -0.323111025826182      -0.304413522093626     
 -0.285716018361068      -0.267018514628509      -0.248321010895952     
 -0.229623507163394      -0.210926003430836      -0.192228499698279     
 -0.173530995965721      -0.367030434964650      -0.348332931232092     
 -0.329635427499536      -0.310937923766978      -0.292240420034419     
 -0.273542916301861      -0.254845412569304      -0.236147908836746     
 -0.217450405104188      -0.198752901371630      -0.180055397639072     
 -0.372514930832411      -0.353817427099852      -0.335119923367293     
 -0.316422419634737      -0.297724915902179      -0.279027412169621     
 -0.260329908437063      -0.241632404704503      -0.222934900971949     
 -0.204237397239390      -0.185539893506831      -0.376873027118465     
 -0.358175523385906      -0.339478019653349      -0.320780515920790     
 -0.302083012188232      -0.283385508455676      -0.264688004723119     
 -0.245990500990560      -0.227292997258002      -0.208595493525444     
 -0.189897989792885      -0.380035994040982      -0.361338490308423     
 -0.342640986575867      -0.323943482843307      -0.305245979110750     
 -0.286548475378191      -0.267850971645636      -0.249153467913077     
 -0.230455964180519      -0.211758460447961      -0.193060956715402     
 -0.381953949722128      -0.363256445989571      -0.344558942257012     
 -0.325861438524455      -0.307163934791896      -0.288466431059340     
 -0.269768927326782      -0.251071423594224      -0.232373919861665     
 -0.213676416129108      -0.194978912396550      -0.382596646855082     
 -0.363899143122524      -0.345201639389966      -0.326504135657409     
 -0.307806631924851      -0.289109128192294      -0.270411624459736     
 -0.251714120727177      -0.233016616994620      -0.214319113262062     
 -0.195621609529504     
  1.660316899342888E-002  1.494285209408599E-002  1.328253519474311E-002
  1.162221829540022E-002  9.961901396057328E-003  8.301584496714441E-003
  6.641267597371552E-003  4.980950698028665E-003  3.320633798685776E-003
  1.660316899342887E-003  0.000000000000000E+000  1.660316899342888E-002
  1.494285209408599E-002  1.328253519474311E-002  1.162221829540022E-002
  9.961901396057328E-003  8.301584496714441E-003  6.641267597371552E-003
  4.980950698028665E-003  3.320633798685776E-003  1.660316899342887E-003
  0.000000000000000E+000  1.660316899342888E-002  1.494285209408599E-002
  1.328253519474311E-002  1.162221829540022E-002  9.961901396057328E-003
  8.301584496714441E-003  6.641267597371552E-003  4.980950698028665E-003
  3.320633798685776E-003  1.660316899342887E-003  0.000000000000000E+000
  1.660316899342888E-002  1.494285209408599E-002  1.328253519474311E-002
  1.162221829540022E-002  9.961901396057328E-003  8.301584496714441E-003
  6.641267597371552E-003  4.980950698028665E-003  3.320633798685776E-003
  1.660316899342887E-003  0.000000000000000E+000  1.660316899342888E-002
  1.494285209408599E-002  1.328253519474311E-002  1.162221829540022E-002
  9.961901396057328E-003  8.301584496714441E-003  6.641267597371552E-003
  4.980950698028665E-003  3.320633798685776E-003  1.660316899342887E-003
  0.000000000000000E+000  1.660316899342888E-002  1.494285209408599E-002
  1.328253519474311E-002  1.162221829540022E-002  9.961901396057328E-003
  8.301584496714441E-003  6.641267597371552E-003  4.980950698028665E-003
  3.320633798685776E-003  1.660316899342887E-003  0.000000000000000E+000
  1.660316899342888E-002  1.494285209408599E-002  1.328253519474311E-002
  1.162221829540022E-002  9.961901396057328E-003  8.301584496714441E-003
  6.641267597371552E-003  4.980950698028665E-003  3.320633798685776E-003
  1.660316899342887E-003  0.000000000000000E+000  1.660316899342888E-002
  1.494285209408599E-002  1.328253519474311E-002  1.162221829540022E-002
  9.961901396057328E-003  8.301584496714441E-003  6.641267597371552E-003
  4.980950698028665E-003  3.320633798685776E-003  1.660316899342887E-003
  0.000000000000000E+000  1.660316899342888E-002  1.494285209408599E-002
  1.328253519474311E-002  1.162221829540022E-002  9.961901396057328E-003
  8.301584496714441E-003  6.641267597371552E-003  4.980950698028665E-003
  3.320633798685776E-003  1.660316899342887E-003  0.000000000000000E+000
  1.660316899342888E-002  1.494285209408599E-002  1.328253519474311E-002
  1.162221829540022E-002  9.961901396057328E-003  8.301584496714441E-003
  6.641267597371552E-003  4.980950698028665E-003  3.320633798685776E-003
  1.660316899342887E-003  0.000000000000000E+000  1.660316899342888E-002
  1.494285209408599E-002  1.328253519474311E-002  1.162221829540022E-002
  9.961901396057328E-003  8.301584496714441E-003  6.641267597371552E-003
  4.980950698028665E-003  3.320633798685776E-003  1.660316899342887E-003
  0.000000000000000E+000  1.660316899342888E-002  1.494285209408599E-002
  1.328253519474311E-002  1.162221829540022E-002  9.961901396057328E-003
  8.301584496714441E-003  6.641267597371552E-003  4.980950698028665E-003
  3.320633798685776E-003  1.660316899342887E-003  0.000000000000000E+000
  1.660316899342888E-002  1.494285209408599E-002  1.328253519474311E-002
  1.162221829540022E-002  9.961901396057328E-003  8.301584496714441E-003
  6.641267597371552E-003  4.980950698028665E-003  3.320633798685776E-003
  1.660316899342887E-003  0.000000000000000E+000  1.660316899342888E-002
  1.494285209408599E-002  1.328253519474311E-002  1.162221829540022E-002
  9.961901396057328E-003  8.301584496714441E-003  6.641267597371552E-003
  4.980950698028665E-003  3.320633798685776E-003  1.660316899342887E-003
  0.000000000000000E+000  1.660316899342888E-002  1.494285209408599E-002
  1.328253519474311E-002  1.162221829540022E-002  9.961901396057328E-003
  8.301584496714441E-003  6.641267597371552E-003  4.980950698028665E-003
  3.320633798685776E-003  1.660316899342887E-003  0.000000000000000E+000
  1.660316899342888E-002  1.494285209408599E-002  1.328253519474311E-002
  1.162221829540022E-002  9.961901396057328E-003  8.301584496714441E-003
  6.641267597371552E-003  4.980950698028665E-003  3.320633798685776E-003
  1.660316899342887E-003  0.000000000000000E+000  1.660316899342888E-002
  1.494285209408599E-002  1.328253519474311E-002  1.162221829540022E-002
  9.961901396057328E-003  8.301584496714441E-003  6.641267597371552E-003
  4.980950698028665E-003  3.320633798685776E-003  1.660316899342887E-003
  0.000000000000000E+000  1.660316899342888E-002  1.494285209408599E-002
  1.328253519474311E-002  1.162221829540022E-002  9.961901396057328E-003
  8.301584496714441E-003  6.641267597371552E-003  4.980950698028665E-003
  3.320633798685776E-003  1.660316899342887E-003  0.000000000000000E+000
  1.660316899342888E-002  1.494285209408599E-002  1.328253519474311E-002
  1.162221829540022E-002  9.961901396057328E-003  8.301584496714441E-003
  6.641267597371552E-003  4.980950698028665E-003  3.320633798685776E-003
  1.660316899342887E-003  0.000000000000000E+000  1.660316899342888E-002
  1.494285209408599E-002  1.328253519474311E-002  1.162221829540022E-002
  9.961901396057328E-003  8.301584496714441E-003  6.641267597371552E-003
  4.980950698028665E-003  3.320633798685776E-003  1.660316899342887E-003
  0.000000000000000E+000  1.660316899342888E-002  1.494285209408599E-002
  1.328253519474311E-002  1.162221829540022E-002  9.961901396057328E-003
  8.301584496714441E-003  6.641267597371552E-003  4.980950698028665E-003
  3.320633798685776E-003  1.660316899342887E-003  0.000000000000000E+000
  1.660316899342888E-002  1.494285209408599E-002  1.328253519474311E-002
  1.162221829540022E-002  9.961901396057328E-003  8.301584496714441E-003
  6.641267597371552E-003  4.980950698028665E-003  3.320633798685776E-003
  1.660316899342887E-003  0.000000000000000E+000  1.660316899342888E-002
  1.494285209408599E-002  1.328253519474311E-002  1.162221829540022E-002
  9.961901396057328E-003  8.301584496714441E-003  6.641267597371552E-003
  4.980950698028665E-003  3.320633798685776E-003  1.660316899342887E-003
  0.000000000000000E+000  1.660316899342888E-002  1.494285209408599E-002
  1.328253519474311E-002  1.162221829540022E-002  9.961901396057328E-003
  8.301584496714441E-003  6.641267597371552E-003  4.980950698028665E-003
  3.320633798685776E-003  1.660316899342887E-003  0.000000000000000E+000
  1.660316899342888E-002  1.494285209408599E-002  1.328253519474311E-002
  1.162221829540022E-002  9.961901396057328E-003  8.301584496714441E-003
  6.641267597371552E-003  4.980950698028665E-003  3.320633798685776E-003
  1.660316899342887E-003  0.000000000000000E+000  1.660316899342888E-002
  1.494285209408599E-002  1.328253519474311E-002  1.162221829540022E-002
  9.961901396057328E-003  8.301584496714441E-003  6.641267597371552E-003
  4.980950698028665E-003  3.320633798685776E-003  1.660316899342887E-003
  0.000000000000000E+000
  7.782315740829921E-003  1.571983908881592E-002  2.396999696797945E-002
  3.209834833352677E-002  3.976678422308066E-002  4.688046218514048E-002
  5.333063342548915E-002  5.895674897503011E-002  6.379030007997831E-002
  6.785230194523489E-002  1.242995582568733E-002  2.557588651581652E-002
  3.925284016296247E-002  5.272428333929371E-002  6.548110489450588E-002
  7.732354633316015E-002  8.806130259963731E-002  9.748640718351904E-002
  0.105666465361026       0.112810194864587       1.532653040064871E-002
  3.249495112821270E-002  5.045750131055298E-002  6.820006825252303E-002
  8.514276307839012E-002  0.100933072781028       0.115264812796245     
  0.127930589001487       0.138940009591690       0.148232369359129     
  1.752410700762164E-002  3.715242018734237E-002  5.774021491362490E-002
  7.816690818525153E-002  9.779448946189594E-002  0.116146551478750     
  0.132822798568171       0.147601076168794       0.160386266498190     
  0.170707475741571       2.229726626383327E-002  4.415210487610842E-002
  6.649475000326878E-002  8.851738129540682E-002  0.109622991891768     
  0.129343250112464       0.147271619983537       0.163101430789446     
  0.176575049385866       0.187028912921682       3.333237669979391E-002
  5.930908905240393E-002  8.406265033099326E-002  0.107714433325445     
  0.129959682509387       0.150478508566773       0.168973205279269     
  0.185156615993496       0.198658046443778       0.208645870595610     
  5.280516355027833E-002  8.638714692909208E-002  0.115569192712396     
  0.142062033450475       0.166181257980546       0.187911678441705     
  0.207109602106823       0.223524564199676       0.236751210735117     
  0.245901888950142       8.074963780386119E-002  0.125892757772448     
  0.162169017235127       0.193428056558495       0.220828583847925     
  0.244769964526652       0.265324334569567       0.282345085041352     
  0.295443817606118       0.303705844290015       0.115947140885113     
  0.176211898553533       0.222128125468540       0.260128134171086     
  0.292381647280962       0.319789401605390       0.342696271905336     
  0.361112221372094       0.374725096796812       0.382632025352108     
  0.156928205038208       0.235236061649032       0.292972556725029     
  0.339490091861238       0.378089039134962       0.410242013859635     
  0.436627874055862       0.457469133254445       0.472579586350161     
  0.481088862274587       0.202612394100280       0.301375505724190     
  0.372762889744741       0.429322326001613       0.475590259331994     
  0.513672102262277       0.544626530955199       0.568917289604867     
  0.586489280924180       0.596463512324063       0.252230196847915     
  0.373456081141235       0.460014508601532       0.527882864019139     
  0.582926575444685       0.627934720090356       0.664370231272227     
  0.692945717051799       0.713731759559611       0.725797801387078     
  0.305066685736238       0.450363343731922       0.553286622545228     
  0.633440852146142       0.698096181752510       0.750762808783506     
  0.793325294211206       0.826750749057601       0.851238721221422     
  0.865795829343006       0.360428945583046       0.531010843298195     
  0.651161955687822       0.744272428905211       0.819079356435853     
  0.879846109142556       0.928895719289637       0.967457950267184     
  0.995869268322526        1.01308960156555       0.417880368455316     
  0.614676458583325       0.752656593503508       0.859134877206787     
  0.944366949665439        1.01340207107150        1.06902652842130     
   1.11275336395887        1.14507101179496        1.16491452581270     
  0.477424492295679       0.701339236700820       0.857680796689246     
  0.977815787859373        1.07357000227886        1.15081530367559     
   1.21284543842779        1.26150118103044        1.29746808021119     
   1.31970921324363       0.540260627468188       0.792853151481067     
  0.968451031335490        1.10264344316300        1.20893379147477     
   1.29411062944265        1.36206326187083        1.41506034736005     
   1.45408905409659        1.47825601706809       0.616357011785072     
  0.902455184685648        1.09941626751929        1.24831421907097     
   1.36495984001037        1.45740848780300        1.53035606618663     
   1.58664658116852        1.62771184966927        1.65298660704922     
  0.750800288386357        1.08328406846942        1.30485299536585     
   1.46924346351681        1.59625918058348        1.69566594716316     
   1.77321944595750        1.83250665287874        1.87547554928132     
   1.90184487425970       0.949060004468635        1.34304966629365     
   1.59264800808609        1.77145335989289        1.90565178038309     
   2.00844876104950        2.08746315737527        2.14730803195092     
   2.19053641869987        2.21728034275141        1.04851641443148     
   1.47197565941809        1.73071854088229        1.90901377103141     
   2.03901620877667        2.13632900971378        2.20964711423057     
   2.26406379543175        2.30237864400677        2.32530048997665     
   1.01823117348487        1.41501207332229        1.64939935387350     
   1.80625998115260        1.91812069321769        2.00051925557509     
   2.06175622560650        2.10643647682312        2.13689377179013     
   2.15374097016778       0.893279791620769        1.21560919412788     
   1.39900867323379        1.51985353110230        1.60543092524497     
   1.66825136468569        1.71483347261090        1.74874683172627     
   1.77184435491538        1.78474408534487       0.687102547229978     
  0.906050743179592        1.02899413616011        1.11021821233690     
   1.16795512536974        1.21049630739089        1.24219231688953     
   1.26550511221551        1.28203453296012        1.29405319190515     
  0.418461530987149       0.541131096910577       0.610692652572847     
  0.656926447868544       0.689915488846060       0.714285306760922     
  0.732474502335334       0.745840594758049       0.755130768284273     
  0.760610318163856     
  0.000000000000000E+000  0.000000000000000E+000  0.000000000000000E+000
  0.000000000000000E+000  0.000000000000000E+000  0.000000000000000E+000
  0.000000000000000E+000  0.000000000000000E+000  0.000000000000000E+000
  0.000000000000000E+000  0.000000000000000E+000  0.000000000000000E+000
  0.000000000000000E+000  0.000000000000000E+000  0.000000000000000E+000
  0.000000000000000E+000  0.000000000000000E+000  0.000000000000000E+000
  0.000000000000000E+000  0.000000000000000E+000  0.000000000000000E+000
  0.000000000000000E+000  0.000000000000000E+000  0.000000000000000E+000
  0.000000000000000E+000  0.000000000000000E+000  0.000000000000000E+000
  0.000000000000000E+000  0.000000000000000E+000  0.000000000000000E+000
  0.000000000000000E+000  0.000000000000000E+000  0.000000000000000E+000
  0.000000000000000E+000  0.000000000000000E+000  0.000000000000000E+000
  0.000000000000000E+000  0.000000000000000E+000  0.000000000000000E+000
  0.000000000000000E+000  0.000000000000000E+000  0.000000000000000E+000
  0.000000000000000E+000  0.000000000000000E+000  0.000000000000000E+000
  0.000000000000000E+000  0.000000000000000E+000  0.000000000000000E+000
  0.000000000000000E+000  0.000000000000000E+000  0.000000000000000E+000
  0.000000000000000E+000  0.000000000000000E+000  0.000000000000000E+000
  0.000000000000000E+000  0.000000000000000E+000  0.000000000000000E+000
  0.000000000000000E+000  0.000000000000000E+000  0.000000000000000E+000
  0.000000000000000E+000  0.000000000000000E+000  0.000000000000000E+000
  0.000000000000000E+000  0.000000000000000E+000  0.000000000000000E+000
  0.000000000000000E+000  0.000000000000000E+000  0.000000000000000E+000
  0.000000000000000E+000  0.000000000000000E+000  0.000000000000000E+000
  0.000000000000000E+000  0.000000000000000E+000  0.000000000000000E+000
  0.000000000000000E+000  0.000000000000000E+000  0.000000000000000E+000
  0.000000000000000E+000  0.000000000000000E+000  0.000000000000000E+000
  0.000000000000000E+000  0.000000000000000E+000  0.000000000000000E+000
  0.000000000000000E+000  0.000000000000000E+000  0.000000000000000E+000
  0.000000000000000E+000  0.000000000000000E+000  0.000000000000000E+000
  0.000000000000000E+000  0.000000000000000E+000  0.000000000000000E+000
  0.000000000000000E+000  0.000000000000000E+000  0.000000000000000E+000
  0.000000000000000E+000  0.000000000000000E+000  0.000000000000000E+000
  0.000000000000000E+000  0.000000000000000E+000  0.000000000000000E+000
  0.000000000000000E+000  0.000000000000000E+000  0.000000000000000E+000
  0.000000000000000E+000  0.000000000000000E+000  0.000000000000000E+000
  0.000000000000000E+000  0.000000000000000E+000  0.000000000000000E+000
  0.000000000000000E+000  0.000000000000000E+000  0.000000000000000E+000
  0.000000000000000E+000  0.000000000000000E+000  0.000000000000000E+000