 Title = "Wing and Wake"
 VARIABLES = "X" "Y" "Z" "GAM" "skew"
 Zone I=   11 J=   26 K=1  T="Blade"
 DATAPACKING=BLOCK
 VARLOCATION=([4]=CELLCENTERED,[5]=CELLCENTERED)
 -0.206828144315977      -0.205121979254207      -0.203415814192438     
 -0.201709649130668      -0.200003484068898      -0.198297319007129     
 -0.196591153945359      -0.194884988883590      -0.193178823821820     
 -0.191472658760051      -0.189766493698281      -0.210568160384503     
 -0.208861995322733      -0.207155830260964      -0.205449665199194     
 -0.203743500137425      -0.202037335075655      -0.200331170013885     
 -0.198625004952116      -0.196918839890346      -0.195212674828577     
 -0.193506509766807      -0.221729226302502      -0.220023061240733     
 -0.218316896178964      -0.216610731117194      -0.214904566055424     
 -0.213198400993655      -0.211492235931885      -0.209786070870116     
 -0.208079905808346      -0.206373740746577      -0.204667575684807     
 -0.240135325393152      -0.238429160331383      -0.236722995269613     
 -0.235016830207844      -0.233310665146074      -0.231604500084304     
 -0.229898335022535      -0.228192169960765      -0.226486004898996     
 -0.224779839837226      -0.223073674775457      -0.265496182478521     
 -0.263790017416752      -0.262083852354982      -0.260377687293212     
 -0.258671522231443      -0.256965357169673      -0.255259192107904     
 -0.253553027046134      -0.251846861984365      -0.250140696922595     
 -0.248434531860825      -0.297411841692531      -0.295705676630761     
 -0.293999511568992      -0.292293346507222      -0.290587181445453     
 -0.288881016383684      -0.287174851321914      -0.285468686260144     
 -0.283762521198375      -0.282056356136605      -0.280350191074836     
 -0.335378974023887      -0.333672808962118      -0.331966643900348     
 -0.330260478838579      -0.328554313776809      -0.326848148715040     
 -0.325141983653270      -0.323435818591501      -0.321729653529731     
 -0.320023488467961      -0.318317323406192      -0.378798815115258     
 -0.377092650053489      -0.375386484991719      -0.373680319929950     
 -0.371974154868180      -0.370267989806410      -0.368561824744641     
 -0.366855659682871      -0.365149494621102      -0.363443329559333     
 -0.361737164497563      -0.426986608134877      -0.425280443073108     
 -0.423574278011338      -0.421868112949569      -0.420161947887799     
 -0.418455782826029      -0.416749617764260      -0.415043452702490     
 -0.413337287640721      -0.411631122578951      -0.409924957517182     
 -0.479182402800833      -0.477476237739063      -0.475770072677293     
 -0.474063907615524      -0.472357742553755      -0.470651577491985     
 -0.468945412430215      -0.467239247368446      -0.465533082306676     
 -0.463826917244907      -0.462120752183137      -0.534563040250986     
 -0.532856875189217      -0.531150710127447      -0.529444545065677     
 -0.527738380003908      -0.526032214942138      -0.524326049880369     
 -0.522619884818599      -0.520913719756830      -0.519207554695060     
 -0.517501389633291      -0.592255134749960      -0.590548969688190     
 -0.588842804626420      -0.587136639564650      -0.585430474502882     
 -0.583724309441112      -0.582018144379342      -0.580311979317573     
 -0.578605814255803      -0.576899649194033      -0.575193484132264     
 -0.651348847503917      -0.649642682442148      -0.647936517380377     
 -0.646230352318608      -0.644524187256839      -0.642818022195069     
 -0.641111857133300      -0.639405692071530      -0.637699527009761     
 -0.635993361947991      -0.634287196886222      -0.710912235361855     
 -0.709206070300086      -0.707499905238317      -0.705793740176547     
 -0.704087575114777      -0.702381410053008      -0.700675244991239     
 -0.698969079929469      -0.697262914867700      -0.695556749805930     
 -0.693850584744160      -0.770005948115813      -0.768299783054044     
 -0.766593617992274      -0.764887452930504      -0.763181287868735     
 -0.761475122806965      -0.759768957745195      -0.758062792683427     
 -0.756356627621657      -0.754650462559888      -0.752944297498118     
 -0.827698042614786      -0.825991877553017      -0.824285712491248     
 -0.822579547429478      -0.820873382367708      -0.819167217305938     
 -0.817461052244169      -0.815754887182400      -0.814048722120630     
 -0.812342557058860      -0.810636391997091      -0.883078680064940     
 -0.881372515003171      -0.879666349941400      -0.877960184879631     
 -0.876254019817862      -0.874547854756092      -0.872841689694323     
 -0.871135524632553      -0.869429359570783      -0.867723194509013     
 -0.866017029447245      -0.935274474730895      -0.933568309669126     
 -0.931862144607357      -0.930155979545587      -0.928449814483816     
 -0.926743649422047      -0.925037484360278      -0.923331319298508     
 -0.921625154236738      -0.919918989174970      -0.918212824113199     
 -0.983462267750514      -0.981756102688744      -0.980049937626975     
 -0.978343772565206      -0.976637607503436      -0.974931442441666     
 -0.973225277379897      -0.971519112318127      -0.969812947256357     
 -0.968106782194588      -0.966400617132818       -1.02688210884189     
  -1.02517594378012       -1.02346977871835       -1.02176361365658     
  -1.02005744859481       -1.01835128353304       -1.01664511847127     
  -1.01493895340950       -1.01323278834773       -1.01152662328596     
  -1.00982045822419       -1.06484924117324       -1.06314307611147     
  -1.06143691104970       -1.05973074598793       -1.05802458092616     
  -1.05631841586439       -1.05461225080262       -1.05290608574085     
  -1.05119992067908       -1.04949375561731       -1.04778759055555     
  -1.09676490038725       -1.09505873532548       -1.09335257026371     
  -1.09164640520194       -1.08994024014017       -1.08823407507840     
  -1.08652791001663       -1.08482174495486       -1.08311557989310     
  -1.08140941483133       -1.07970324976956       -1.12212575747262     
  -1.12041959241085       -1.11871342734908       -1.11700726228731     
  -1.11530109722554       -1.11359493216377       -1.11188876710200     
  -1.11018260204023       -1.10847643697846       -1.10677027191669     
  -1.10506410685492       -1.14053185656327       -1.13882569150150     
  -1.13711952643973       -1.13541336137796       -1.13370719631619     
  -1.13200103125442       -1.13029486619265       -1.12858870113088     
  -1.12688253606911       -1.12517637100734       -1.12347020594557     
  -1.15169292248127       -1.14998675741950       -1.14828059235773     
  -1.14657442729596       -1.14486826223419       -1.14316209717242     
  -1.14145593211065       -1.13974976704888       -1.13804360198711     
  -1.13633743692534       -1.13463127186357       -1.15543293854980     
  -1.15372677348803       -1.15202060842626       -1.15031444336449     
  -1.14860827830272       -1.14690211324095       -1.14519594817918     
  -1.14348978311741       -1.14178361805564       -1.14007745299387     
  -1.13837128793210     
 -0.171876324867025      -0.152975667508728      -0.134075010150431     
 -0.115174352792133      -9.627369543383621E-002 -7.737303807553897E-002
 -5.847238071724188E-002 -3.957172335894472E-002 -2.067106600064760E-002
 -1.770408642350386E-003  1.713024871594682E-002 -0.171538713077889     
 -0.152638055719592      -0.133737398361295      -0.114836741002998     
 -9.593608364470047E-002 -7.703542628640343E-002 -5.813476892810616E-002
 -3.923411156980901E-002 -2.033345421151168E-002 -1.432796853214613E-003
  1.746786050508252E-002 -0.170531202050076      -0.151630544691779     
 -0.132729887333482      -0.113829229975185      -9.492857261688753E-002
 -7.602791525859043E-002 -5.712725790029322E-002 -3.822660054199615E-002
 -1.932594318369887E-002 -4.252858254017562E-004  1.847537153289544E-002
 -0.168869680834353      -0.149969023476055      -0.131068366117758     
 -0.112167708759461      -9.326705140116398E-002 -7.436639404286667E-002
 -5.546573668456949E-002 -3.656507932627233E-002 -1.766442196797517E-002
  1.236235390321938E-003  2.013689274861911E-002 -0.166580352612835     
 -0.147679695254538      -0.128779037896240      -0.109878380537943     
 -9.097772317964611E-002 -7.207706582134885E-002 -5.317640846305182E-002
 -3.427575110475451E-002 -1.537509374645737E-002  3.525563611839797E-003
  2.242622097013689E-002 -0.163699321459155      -0.144798664100857     
 -0.125898006742560      -0.106997349384263      -8.809669202596589E-002
 -6.919603466766878E-002 -5.029537730937167E-002 -3.139471995107458E-002
 -1.249406259277731E-002  6.406594765519992E-003  2.530725212381706E-002
 -0.160272022955650      -0.141371365597353      -0.122470708239056     
 -0.103570050880759      -8.466939352246156E-002 -6.576873616416441E-002
 -4.686807880586739E-002 -2.796742144756998E-002 -9.066764089272735E-003
  9.833893269024337E-003  2.873455062732144E-002 -0.156352507647091     
 -0.137451850288794      -0.118551192930497      -9.965053557219929E-002
 -8.074987821390213E-002 -6.184922085560477E-002 -4.294856349730784E-002
 -2.404790613901056E-002 -5.147248780713217E-003  1.375340857758392E-002
  3.265406593588091E-002 -0.152002588631297      -0.133101931273000     
 -0.114201273914703      -9.530061655640540E-002 -7.639995919810852E-002
 -5.749930183981127E-002 -3.859864448151410E-002 -1.969798712321692E-002
 -7.973297649196164E-004  1.810332759337751E-002  3.700398495167437E-002
 -0.147290866729664      -0.128390209371367      -0.109489552013070     
 -9.058889465477257E-002 -7.168823729647533E-002 -5.278757993817823E-002
 -3.388692257988113E-002 -1.498626522158406E-002  3.914392136713401E-003
  2.281504949501046E-002  4.171570685330753E-002 -0.142291648611227     
 -0.123390991252929      -0.104490333894632      -8.558967653633476E-002
 -6.668901917803773E-002 -4.778836181974071E-002 -2.888770446144370E-002
 -9.987047103146057E-003  8.913610255150660E-003  2.781426761344806E-002
  4.671492497174506E-002 -0.137083774932101      -0.118183117573803     
 -9.928246021550584E-002 -8.038180285720901E-002 -6.148114549891170E-002
 -4.258048814061430E-002 -2.367983078231756E-002 -4.779173424020277E-003
  1.412148393427718E-002  3.302214129257389E-002  5.192279865087118E-002
 -0.131749376971239      -0.112848719612941      -9.394806225464428E-002
 -7.504740489634699E-002 -5.614674753804969E-002 -3.724609017975266E-002
 -1.834543282145567E-002  5.552245368416995E-004  1.945588189513861E-002
  3.835653925343563E-002  5.725719661173313E-002 -0.126372581371099     
 -0.107471924012802      -8.857126665450431E-002 -6.967060929620730E-002
 -5.076995193791006E-002 -3.186929457961261E-002 -1.296863722131532E-002
  5.932020136981324E-003  2.483267749527861E-002  4.373333485357631E-002
  6.263399221187307E-002 -0.121038183410237      -0.102137526051940     
 -8.323686869364236E-002 -6.433621133534539E-002 -4.543555397704848E-002
 -2.653489661875111E-002 -7.634239260454065E-003  1.126641809784306E-002
  3.016707545614080E-002  4.906773281443766E-002  6.796839017273482E-002
 -0.115830309731111      -9.692965237281345E-002 -7.802899501451670E-002
 -5.912833765621930E-002 -4.022768029792220E-002 -2.132702293962502E-002
 -2.426365581327760E-003  1.647429177696961E-002  3.537494913526622E-002
  5.427560649356378E-002  7.317626385186077E-002 -0.110831091612673     
 -9.193043425437664E-002 -7.302977689607879E-002 -5.412911953778193E-002
 -3.522846217948469E-002 -1.632780482118727E-002  2.572852537109933E-003
  2.147350989540716E-002  4.037416725370373E-002  5.927482461200153E-002
  7.817548197029822E-002 -0.106119369711040      -8.721871235274307E-002
 -6.831805499444607E-002 -4.941739763614867E-002 -3.051674027785162E-002
 -1.161608291955430E-002  7.284574438742631E-003  2.618523179703943E-002
  4.508588915533713E-002  6.398654651363429E-002  8.288720387193130E-002
 -0.101769450695247      -8.286879333694978E-002 -6.396813597865204E-002
 -4.506747862035516E-002 -2.616682126205806E-002 -7.266163903760799E-003
  1.163449345453652E-002  3.053515081283380E-002  4.943580817113077E-002
  6.833646552942763E-002  8.723712288772505E-002 -9.784993538668711E-002
 -7.894927802838986E-002 -6.004862067009265E-002 -4.114796331179604E-002
 -2.224730595349889E-002 -3.346648595201345E-003  1.555400876309604E-002
  3.445466612139341E-002  5.335532347969027E-002  7.225598083798737E-002
  9.115663819628433E-002 -9.442263688318248E-002 -7.552197952488524E-002
 -5.662132216658854E-002 -3.772066480829171E-002 -1.882000744999426E-002
  8.064990830294288E-005  1.898130726660050E-002  3.788196462489695E-002
  5.678262198319451E-002  7.568327934149191E-002  9.458393669978900E-002
 -9.154160572950351E-002 -7.264094837120517E-002 -5.374029101290790E-002
 -3.483963365461150E-002 -1.593897629631423E-002  2.961681061983058E-003
  2.186233842028007E-002  4.076299577857790E-002  5.966365313687448E-002
  7.856431049517144E-002  9.746496785346900E-002 -8.925227750798545E-002
 -7.035162014968727E-002 -5.145096279139068E-002 -3.255030543309272E-002
 -1.364964807479597E-002  5.251009283500725E-003  2.415166664179790E-002
  4.305232400009529E-002  6.195298135839248E-002  8.085363871668987E-002
  9.975429607498733E-002 -8.759075629226126E-002 -6.869009893396331E-002
 -4.978944157566685E-002 -3.088878421736917E-002 -1.198812685907244E-002
  6.912530499225011E-003  2.581318785752165E-002  4.471384521581943E-002
  6.361450257411627E-002  8.251515993241372E-002  0.101415817290711     
 -8.658324526444795E-002 -6.768258790615128E-002 -4.878193054785357E-002
 -2.988127318955639E-002 -1.098061583125942E-002  7.920041527038244E-003
  2.682069888533446E-002  4.572135624363217E-002  6.462201360192876E-002
  8.352267096022549E-002  0.102423328318524      -8.624563347531224E-002
 -6.734497611701502E-002 -4.844431875871804E-002 -2.954366140042099E-002
 -1.064300404212398E-002  8.257653316172979E-003  2.715831067447049E-002
  4.605896803276815E-002  6.495962539106480E-002  8.386028274936204E-002
  0.102760940107660     
  1.660316899342888E-002  1.494285209408599E-002  1.328253519474311E-002
  1.162221829540022E-002  9.961901396057328E-003  8.301584496714441E-003
  6.641267597371552E-003  4.980950698028665E-003  3.320633798685776E-003
  1.660316899342887E-003  0.000000000000000E+000  1.660316899342888E-002
  1.494285209408599E-002  1.328253519474311E-002  1.162221829540022E-002
  9.961901396057328E-003  8.301584496714441E-003  6.641267597371552E-003
  4.980950698028665E-003  3.320633798685776E-003  1.660316899342887E-003
  0.000000000000000E+000  1.660316899342888E-002  1.494285209408599E-002
  1.328253519474311E-002  1.162221829540022E-002  9.961901396057328E-003
  8.301584496714441E-003  6.641267597371552E-003  4.980950698028665E-003
  3.320633798685776E-003  1.660316899342887E-003  0.000000000000000E+000
  1.660316899342888E-002  1.494285209408599E-002  1.328253519474311E-002
  1.162221829540022E-002  9.961901396057328E-003  8.301584496714441E-003
  6.641267597371552E-003  4.980950698028665E-003  3.320633798685776E-003
  1.660316899342887E-003  0.000000000000000E+000  1.660316899342888E-002
  1.494285209408599E-002  1.328253519474311E-002  1.162221829540022E-002
  9.961901396057328E-003  8.301584496714441E-003  6.641267597371552E-003
  4.980950698028665E-003  3.320633798685776E-003  1.660316899342887E-003
  0.000000000000000E+000  1.660316899342888E-002  1.494285209408599E-002
  1.328253519474311E-002  1.162221829540022E-002  9.961901396057328E-003
  8.301584496714441E-003  6.641267597371552E-003  4.980950698028665E-003
  3.320633798685776E-003  1.660316899342887E-003  0.000000000000000E+000
  1.660316899342888E-002  1.494285209408599E-002  1.328253519474311E-002
  1.162221829540022E-002  9.961901396057328E-003  8.301584496714441E-003
  6.641267597371552E-003  4.980950698028665E-003  3.320633798685776E-003
  1.660316899342887E-003  0.000000000000000E+000  1.660316899342888E-002
  1.494285209408599E-002  1.328253519474311E-002  1.162221829540022E-002
  9.961901396057328E-003  8.301584496714441E-003  6.641267597371552E-003
  4.980950698028665E-003  3.320633798685776E-003  1.660316899342887E-003
  0.000000000000000E+000  1.660316899342888E-002  1.494285209408599E-002
  1.328253519474311E-002  1.162221829540022E-002  9.961901396057328E-003
  8.301584496714441E-003  6.641267597371552E-003  4.980950698028665E-003
  3.320633798685776E-003  1.660316899342887E-003  0.000000000000000E+000
  1.660316899342888E-002  1.494285209408599E-002  1.328253519474311E-002
  1.162221829540022E-002  9.961901396057328E-003  8.301584496714441E-003
  6.641267597371552E-003  4.980950698028665E-003  3.320633798685776E-003
  1.660316899342887E-003  0.000000000000000E+000  1.660316899342888E-002
  1.494285209408599E-002  1.328253519474311E-002  1.162221829540022E-002
  9.961901396057328E-003  8.301584496714441E-003  6.641267597371552E-003
  4.980950698028665E-003  3.320633798685776E-003  1.660316899342887E-003
  0.000000000000000E+000  1.660316899342888E-002  1.494285209408599E-002
  1.328253519474311E-002  1.162221829540022E-002  9.961901396057328E-003
  8.301584496714441E-003  6.641267597371552E-003  4.980950698028665E-003
  3.320633798685776E-003  1.660316899342887E-003  0.000000000000000E+000
  1.660316899342888E-002  1.494285209408599E-002  1.328253519474311E-002
  1.162221829540022E-002  9.961901396057328E-003  8.301584496714441E-003
  6.641267597371552E-003  4.980950698028665E-003  3.320633798685776E-003
  1.660316899342887E-003  0.000000000000000E+000  1.660316899342888E-002
  1.494285209408599E-002  1.328253519474311E-002  1.162221829540022E-002
  9.961901396057328E-003  8.301584496714441E-003  6.641267597371552E-003
  4.980950698028665E-003  3.320633798685776E-003  1.660316899342887E-003
  0.000000000000000E+000  1.660316899342888E-002  1.494285209408599E-002
  1.328253519474311E-002  1.162221829540022E-002  9.961901396057328E-003
  8.301584496714441E-003  6.641267597371552E-003  4.980950698028665E-003
  3.320633798685776E-003  1.660316899342887E-003  0.000000000000000E+000
  1.660316899342888E-002  1.494285209408599E-002  1.328253519474311E-002
  1.162221829540022E-002  9.961901396057328E-003  8.301584496714441E-003
  6.641267597371552E-003  4.980950698028665E-003  3.320633798685776E-003
  1.660316899342887E-003  0.000000000000000E+000  1.660316899342888E-002
  1.494285209408599E-002  1.328253519474311E-002  1.162221829540022E-002
  9.961901396057328E-003  8.301584496714441E-003  6.641267597371552E-003
  4.980950698028665E-003  3.320633798685776E-003  1.660316899342887E-003
  0.000000000000000E+000  1.660316899342888E-002  1.494285209408599E-002
  1.328253519474311E-002  1.162221829540022E-002  9.961901396057328E-003
  8.301584496714441E-003  6.641267597371552E-003  4.980950698028665E-003
  3.320633798685776E-003  1.660316899342887E-003  0.000000000000000E+000
  1.660316899342888E-002  1.494285209408599E-002  1.328253519474311E-002
  1.162221829540022E-002  9.961901396057328E-003  8.301584496714441E-003
  6.641267597371552E-003  4.980950698028665E-003  3.320633798685776E-003
  1.660316899342887E-003  0.000000000000000E+000  1.660316899342888E-002
  1.494285209408599E-002  1.328253519474311E-002  1.162221829540022E-002
  9.961901396057328E-003  8.301584496714441E-003  6.641267597371552E-003
  4.980950698028665E-003  3.320633798685776E-003  1.660316899342887E-003
  0.000000000000000E+000  1.660316899342888E-002  1.494285209408599E-002
  1.328253519474311E-002  1.162221829540022E-002  9.961901396057328E-003
  8.301584496714441E-003  6.641267597371552E-003  4.980950698028665E-003
  3.320633798685776E-003  1.660316899342887E-003  0.000000000000000E+000
  1.660316899342888E-002  1.494285209408599E-002  1.328253519474311E-002
  1.162221829540022E-002  9.961901396057328E-003  8.301584496714441E-003
  6.641267597371552E-003  4.980950698028665E-003  3.320633798685776E-003
  1.660316899342887E-003  0.000000000000000E+000  1.660316899342888E-002
  1.494285209408599E-002  1.328253519474311E-002  1.162221829540022E-002
  9.961901396057328E-003  8.301584496714441E-003  6.641267597371552E-003
  4.980950698028665E-003  3.320633798685776E-003  1.660316899342887E-003
  0.000000000000000E+000  1.660316899342888E-002  1.494285209408599E-002
  1.328253519474311E-002  1.162221829540022E-002  9.961901396057328E-003
  8.301584496714441E-003  6.641267597371552E-003  4.980950698028665E-003
  3.320633798685776E-003  1.660316899342887E-003  0.000000000000000E+000
  1.660316899342888E-002  1.494285209408599E-002  1.328253519474311E-002
  1.162221829540022E-002  9.961901396057328E-003  8.301584496714441E-003
  6.641267597371552E-003  4.980950698028665E-003  3.320633798685776E-003
  1.660316899342887E-003  0.000000000000000E+000  1.660316899342888E-002
  1.494285209408599E-002  1.328253519474311E-002  1.162221829540022E-002
  9.961901396057328E-003  8.301584496714441E-003  6.641267597371552E-003
  4.980950698028665E-003  3.320633798685776E-003  1.660316899342887E-003
  0.000000000000000E+000
  0.138501418788939       0.196051449020637       0.240099859834402     
  0.277144313863118       0.308574906706486       0.335050066404919     
  0.357148308997347       0.375522031386795       0.390253917218113     
  0.401282469959520       0.225052478243467       0.324448227275905     
  0.399683348314065       0.462725337920941       0.516364351866610     
  0.561494935514295       0.599226002775685       0.630851654308376     
  0.656590868565316       0.677333676507860       0.282693230971331     
  0.420864044074564       0.525605011474848       0.613203602105956     
  0.688176376597486       0.751299641510720       0.804469270781420     
  0.849473899767944       0.885803343641636       0.912954824891372     
  0.301820832836010       0.461883167559317       0.586723606855528     
  0.692159705833189       0.782686618640800       0.859668964785206     
  0.925126067149784       0.980295950465954        1.02367625412213     
   1.05384745002364       0.287369876972880       0.448784246016112     
  0.579152508711979       0.691285376486920       0.788373094789703     
  0.872059264558460       0.943643608938311        1.00352950091532     
   1.05004471684385        1.08064325020208       0.257541757796778     
  0.405155272068963       0.526357499176129       0.632215993291173     
  0.725641298448358       0.807697890380567       0.878303673229400     
  0.936680126717219       0.981863294906112        1.01165888782504     
  0.240288831300222       0.373536040309120       0.480773971871421     
  0.573869171695095       0.656424409376423       0.729398151547152     
  0.792487594154211       0.845091074023477       0.886512099707690     
  0.914546024873491       0.247982594360301       0.378302851744773     
  0.479316787863646       0.564854218716201       0.639424609895119     
  0.704599092682293       0.760799411846166       0.808058824879787     
  0.845918176074485       0.872233470229726       0.273410888914012     
  0.411580917640267       0.515350480361013       0.600955067052083     
  0.673968408330898       0.736741518739095       0.790387405635356     
  0.835410709467547       0.871582267040249       0.896982715574158     
  0.306383361454068       0.457769214616838       0.569137276743548     
  0.659263923219482       0.734838277327428       0.798937501160892     
  0.853174969573818       0.898340517578500       0.934385771519650     
  0.959590384695217       0.341709118098825       0.508157223781553     
  0.628913814982796       0.725356966106768       0.805273004415388     
  0.872371191306602       0.928645356300587       0.975109008151821     
   1.01186637660381        1.03735026110774       0.376697816019404     
  0.558341976800995       0.688810417484528       0.792028371505274     
  0.876829320165599       0.947489685429749        1.00633400054558     
   1.05456691348649        1.09242205207083        1.11843865523207     
  0.409193400434756       0.605008349640351       0.744614552201729     
  0.854291392140032       0.943817102080532        1.01796305183481     
   1.07934232534427        1.12933831777705        1.16830800010726     
   1.19487686013628       0.436911610017482       0.644803962127390     
  0.792203738193580       0.907395221457602        1.00095256953354     
   1.07805286350753        1.14154293336720        1.19295850300078     
   1.23277155513829        1.25970410439633       0.457429180261606     
  0.674281301592366       0.827462605174180       0.946720774792952     
   1.04320403320964        1.12238519429480        1.18728275960568     
   1.23954925398062        1.27975328728270        1.30672316227804     
  0.469098335224188       0.691264404640838       0.847917634570781     
  0.969556009851052        1.06762889589853        1.14778783757564     
   1.21317943502788        1.26555838685225        1.30559133549998     
   1.33223012634291       0.474434882299839       0.699513665762129     
  0.857986568412735       0.980483004574838        1.07859892620069     
   1.15820003741211        1.22267090583680        1.27398696977706     
   1.31301592289679        1.33893583207318       0.488997281113515     
  0.719718321470546       0.880270276633076        1.00228613910197     
   1.09812396360241        1.17443200170455        1.23530210429057     
   1.28327614636471        1.31970685011825        1.34429322349119     
  0.549256762921555       0.797215201172343       0.962065757002608     
   1.08168641616487        1.17149714651154        1.24015044021777     
   1.29312797044978        1.33392565379014        1.36472860470559     
   1.38637273009208       0.661630858629046       0.939145323146709     
   1.11116756481913        1.22817807060589        1.31094028861879     
   1.37086474648112        1.41493800060584        1.44752713563308     
   1.47153504137621        1.48889397315177       0.768260087272076     
   1.06942008069480        1.24407983269411        1.35586508432295     
   1.43100834370616        1.48324815342353        1.52047571592907     
   1.54744255737078        1.56705862344167        1.58109946062854     
  0.806905960491033        1.10273350764531        1.26462765862447     
   1.36380475537172        1.42845187969124        1.47241039289792     
   1.50344198273188        1.52587205946842        1.54181430137123     
   1.55227016048941       0.753824634303098        1.00356499514589     
   1.13295698722530        1.21044577189430        1.26063274448427     
   1.29478425127125        1.31913305237262        1.33705682301544     
   1.35005717548155        1.35868352840507       0.603163044005396     
  0.775234271129476       0.862341945171344       0.914551885125360     
  0.948614438081839       0.972038944931249       0.988990561328687     
   1.00196540343436        1.01206644128381        1.02096953291413     
  0.372791980013916       0.469162707155397       0.518358139563950     
  0.548032626777484       0.567502268313938       0.580965239074835     
  0.590776369802179       0.598343145692648       0.604134380834812     
  0.608263154909054     
  0.000000000000000E+000  0.000000000000000E+000  0.000000000000000E+000
  0.000000000000000E+000  0.000000000000000E+000  0.000000000000000E+000
  0.000000000000000E+000  0.000000000000000E+000  0.000000000000000E+000
  0.000000000000000E+000  0.000000000000000E+000  0.000000000000000E+000
  0.000000000000000E+000  0.000000000000000E+000  0.000000000000000E+000
  0.000000000000000E+000  0.000000000000000E+000  0.000000000000000E+000
  0.000000000000000E+000  0.000000000000000E+000  0.000000000000000E+000
  0.000000000000000E+000  0.000000000000000E+000  0.000000000000000E+000
  0.000000000000000E+000  0.000000000000000E+000  0.000000000000000E+000
  0.000000000000000E+000  0.000000000000000E+000  0.000000000000000E+000
  0.000000000000000E+000  0.000000000000000E+000  0.000000000000000E+000
  0.000000000000000E+000  0.000000000000000E+000  0.000000000000000E+000
  0.000000000000000E+000  0.000000000000000E+000  0.000000000000000E+000
  0.000000000000000E+000  0.000000000000000E+000  0.000000000000000E+000
  0.000000000000000E+000  0.000000000000000E+000  0.000000000000000E+000
  0.000000000000000E+000  0.000000000000000E+000  0.000000000000000E+000
  0.000000000000000E+000  0.000000000000000E+000  0.000000000000000E+000
  0.000000000000000E+000  0.000000000000000E+000  0.000000000000000E+000
  0.000000000000000E+000  0.000000000000000E+000  0.000000000000000E+000
  0.000000000000000E+000  0.000000000000000E+000  0.000000000000000E+000
  0.000000000000000E+000  0.000000000000000E+000  0.000000000000000E+000
  0.000000000000000E+000  0.000000000000000E+000  0.000000000000000E+000
  0.000000000000000E+000  0.000000000000000E+000  0.000000000000000E+000
  0.000000000000000E+000  0.000000000000000E+000  0.000000000000000E+000
  0.000000000000000E+000  0.000000000000000E+000  0.000000000000000E+000
  0.000000000000000E+000  0.000000000000000E+000  0.000000000000000E+000
  0.000000000000000E+000  0.000000000000000E+000  0.000000000000000E+000
  0.000000000000000E+000  0.000000000000000E+000  0.000000000000000E+000
  0.000000000000000E+000  0.000000000000000E+000  0.000000000000000E+000
  0.000000000000000E+000  0.000000000000000E+000  0.000000000000000E+000
  0.000000000000000E+000  0.000000000000000E+000  0.000000000000000E+000
  0.000000000000000E+000  0.000000000000000E+000  0.000000000000000E+000
  0.000000000000000E+000  0.000000000000000E+000  0.000000000000000E+000
  0.000000000000000E+000  0.000000000000000E+000  0.000000000000000E+000
  0.000000000000000E+000  0.000000000000000E+000  0.000000000000000E+000
  0.000000000000000E+000  0.000000000000000E+000  0.000000000000000E+000
  0.000000000000000E+000  0.000000000000000E+000  0.000000000000000E+000
  0.000000000000000E+000  0.000000000000000E+000  0.000000000000000E+000
  0.000000000000000E+000  0.000000000000000E+000  0.000000000000000E+000