 Title = "Wing and Wake"
 VARIABLES = "X" "Y" "Z" "GAM" "skew"
 Zone I=   11 J=   26 K=1  T="Blade"
 DATAPACKING=BLOCK
 VARLOCATION=([4]=CELLCENTERED,[5]=CELLCENTERED)
 -0.206780154645781      -0.205079266025747      -0.203378377405712     
 -0.201677488785679      -0.199976600165645      -0.198275711545610     
 -0.196574822925576      -0.194873934305542      -0.193173045685508     
 -0.191472157065473      -0.189771268445440      -0.210520264817490     
 -0.208819376197456      -0.207118487577422      -0.205417598957388     
 -0.203716710337354      -0.202015821717319      -0.200314933097285     
 -0.198614044477251      -0.196913155857217      -0.195212267237182     
 -0.193511378617149      -0.221681611560976      -0.219980722940942     
 -0.218279834320908      -0.216578945700873      -0.214878057080839     
 -0.213177168460805      -0.211476279840771      -0.209775391220736     
 -0.208074502600703      -0.206373613980669      -0.204672725360634     
 -0.240088173770628      -0.238387285150594      -0.236686396530560     
 -0.234985507910526      -0.233284619290491      -0.231583730670457     
 -0.229882842050423      -0.228181953430389      -0.226481064810355     
 -0.224780176190321      -0.223079287570287      -0.265449668964854     
 -0.263748780344819      -0.262047891724785      -0.260347003104751     
 -0.258646114484717      -0.256945225864683      -0.255244337244649     
 -0.253543448624615      -0.251842560004580      -0.250141671384546     
 -0.248440782764512      -0.297366131214216      -0.295665242594182     
 -0.293964353974147      -0.292263465354114      -0.290562576734080     
 -0.288861688114046      -0.287160799494011      -0.285459910873977     
 -0.283759022253943      -0.282058133633909      -0.280357245013875     
 -0.335334218843073      -0.333633330223039      -0.331932441603005     
 -0.330231552982971      -0.328530664362937      -0.326829775742903     
 -0.325128887122868      -0.323427998502835      -0.321727109882800     
 -0.320026221262766      -0.318325332642731      -0.378755152428481     
 -0.377054263808448      -0.375353375188413      -0.373652486568380     
 -0.371951597948345      -0.370250709328312      -0.368549820708277     
 -0.366848932088244      -0.365148043468209      -0.363447154848175     
 -0.361746266228141      -0.426944157909390      -0.425243269289357     
 -0.423542380669322      -0.421841492049289      -0.420140603429255     
 -0.418439714809220      -0.416738826189186      -0.415037937569151     
 -0.413337048949118      -0.411636160329085      -0.409935271709050     
 -0.479141265882650      -0.477440377262615      -0.475739488642581     
 -0.474038600022548      -0.472337711402514      -0.470636822782479     
 -0.468935934162446      -0.467235045542411      -0.465534156922378     
 -0.463833268302344      -0.462132379682309      -0.534523296774482     
 -0.532822408154447      -0.531121519534413      -0.529420630914380     
 -0.527719742294344      -0.526018853674311      -0.524317965054277     
 -0.522617076434241      -0.520916187814210      -0.519215299194175     
 -0.517514410574140      -0.592216842874097      -0.590515954254064     
 -0.588815065634027      -0.587114177013995      -0.585413288393961     
 -0.583712399773928      -0.582011511153893      -0.580310622533859     
 -0.578609733913824      -0.576908845293790      -0.575207956673756     
 -0.651312042495052      -0.649611153875022      -0.647910265254986     
 -0.646209376634952      -0.644508488014916      -0.642807599394884     
 -0.641106710774851      -0.639405822154816      -0.637704933534781     
 -0.636004044914746      -0.634303156294713      -0.710876929037568     
 -0.709176040417533      -0.707475151797501      -0.705774263177465     
 -0.704073374557431      -0.702372485937397      -0.700671597317362     
 -0.698970708697330      -0.697269820077296      -0.695568931457262     
 -0.693868042837227      -0.769972128658525      -0.768271240038491     
 -0.766570351418456      -0.764869462798423      -0.763168574178388     
 -0.761467685558354      -0.759766796938320      -0.758065908318287     
 -0.756365019698253      -0.754664131078218      -0.752963242458185     
 -0.827665674758142      -0.825964786138107      -0.824263897518074     
 -0.822563008898041      -0.820862120278004      -0.819161231657971     
 -0.817460343037936      -0.815759454417904      -0.814058565797869     
 -0.812357677177833      -0.810656788557801      -0.883047705649972     
 -0.881346817029938      -0.879645928409903      -0.877945039789869     
 -0.876244151169836      -0.874543262549802      -0.872842373929767     
 -0.871141485309733      -0.869440596689700      -0.867739708069665     
 -0.866038819449632      -0.935244813623231      -0.933543925003197     
 -0.931843036383164      -0.930142147763129      -0.928441259143095     
 -0.926740370523062      -0.925039481903027      -0.923338593282992     
 -0.921637704662958      -0.919936816042927      -0.918235927422890     
 -0.983433819104139      -0.981732930484106      -0.980032041864073     
 -0.978331153244040      -0.976630264624004      -0.974929376003970     
 -0.973228487383935      -0.971527598763903      -0.969826710143868     
 -0.968125821523833      -0.966424932903799       -1.02685475268955     
  -1.02515386406952       -1.02345297544948       -1.02175208682945     
  -1.02005119820941       -1.01835030958938       -1.01664942096935     
  -1.01494853234931       -1.01324764372927       -1.01154675510924     
  -1.00984586648921       -1.06482284031840       -1.06312195169837     
  -1.06142106307834       -1.05972017445830       -1.05801928583827     
  -1.05631839721823       -1.05461750859820       -1.05291661997817     
  -1.05121573135813       -1.04951484273810       -1.04781395411806     
  -1.09673930256777       -1.09503841394773       -1.09333752532770     
  -1.09163663670767       -1.08993574808763       -1.08823485946760     
  -1.08653397084756       -1.08483308222753       -1.08313219360750     
  -1.08143130498746       -1.07973041636743       -1.12210079776200     
  -1.12039990914196       -1.11869902052193       -1.11699813190189     
  -1.11529724328186       -1.11359635466182       -1.11189546604179     
  -1.11019457742176       -1.10849368880172       -1.10679280018169     
  -1.10509191156165       -1.14050735997165       -1.13880647135161     
  -1.13710558273158       -1.13540469411155       -1.13370380549151     
  -1.13200291687148       -1.13030202825144       -1.12860113963141     
  -1.12690025101138       -1.12519936239134       -1.12349847377131     
  -1.15166870671513       -1.14996781809510       -1.14826692947507     
  -1.14656604085503       -1.14486515223500       -1.14316426361496     
  -1.14146337499493       -1.13976248637489       -1.13806159775486     
  -1.13636070913482       -1.13465982051479       -1.15540881688684     
  -1.15370792826681       -1.15200703964677       -1.15030615102674     
  -1.14860526240670       -1.14690437378667       -1.14520348516664     
  -1.14350259654660       -1.14180170792657       -1.14010081930653     
  -1.13839993068650     
 -0.171934057055754      -0.153032924134790      -0.134131791213824     
 -0.115230658292859      -9.632952537189439E-002 -7.742839245092870E-002
 -5.852725952996386E-002 -3.962612660899897E-002 -2.072499368803396E-002
 -1.823860767068743E-003  1.707727215389613E-002 -0.171597489356064     
 -0.152696356435099      -0.133795223514135      -0.114894090593170     
 -9.599295767220475E-002 -7.709182475123968E-002 -5.819069183027450E-002
 -3.928955890930964E-002 -2.038842598834436E-002 -1.487293067379561E-003
  1.741383985358558E-002 -0.170593094130677      -0.151691961209712     
 -0.132790828288747      -0.113889695367781      -9.498856244681621E-002
 -7.608742952585125E-002 -5.718629660488590E-002 -3.828516368392126E-002
 -1.938403076295593E-002 -4.828978419910471E-004  1.841823507897394E-002
 -0.168936711292290      -0.150035578371325      -0.131134445450360     
 -0.112233312529395      -9.333217960842989E-002 -7.443104668746488E-002
 -5.552991376649934E-002 -3.662878084553467E-002 -1.772764792456995E-002
  1.173484996395372E-003  2.007461791736009E-002 -0.166654462987742     
 -0.147753330066777      -0.128852197145812      -0.109951064224847     
 -9.104993130388189E-002 -7.214879838291652E-002 -5.324766546195164E-002
 -3.434653254098662E-002 -1.544539962002171E-002  3.455733300943530E-003
  2.235686622190831E-002 -0.163782341636145      -0.144881208715180     
 -0.125980075794214      -0.107078942873250      -8.817780995228434E-002
 -6.927667703131904E-002 -5.037554411035381E-002 -3.147441118938946E-002
 -1.257327826842419E-002  6.327854652541156E-003  2.522898757350647E-002
 -0.160365642306934      -0.141464509385969      -0.122563376465004     
 -0.103662243544039      -8.476111062307363E-002 -6.585997770210864E-002
 -4.695884478114398E-002 -2.805771186017815E-002 -9.156578939212972E-003
  9.744553981751431E-003  2.864568690271618E-002 -0.156458248389569     
 -0.137557115468605      -0.118655982547639      -9.975484962667422E-002
 -8.085371670570939E-002 -6.195258378474396E-002 -4.305145086377898E-002
 -2.415031794281415E-002 -5.249185021848939E-003  1.365194789911597E-002
  3.255308082008102E-002 -0.152121781820291      -0.133220648899326     
 -0.114319515978361      -9.541838305739636E-002 -7.651725013643126E-002
 -5.761611721546638E-002 -3.871498429450101E-002 -1.981385137353642E-002
 -9.127184525713360E-004  1.798841446839408E-002  3.688954738935856E-002
 -0.147424631267378      -0.128523498346412      -0.109622365425447     
 -9.072123250448244E-002 -7.182009958351733E-002 -5.291896666255294E-002
 -3.401783374158745E-002 -1.511670082062260E-002  3.784432100343144E-003
  2.268556502130754E-002  4.158669794227262E-002 -0.142440873600989     
 -0.123539740680024      -0.104638607759059      -8.573747483809377E-002
 -6.683634191712874E-002 -4.793520899616355E-002 -2.903407607519935E-002
 -1.013294315423307E-002  8.768189766731346E-003  2.766932268769607E-002
  4.657045560866133E-002 -0.137249105656678      -0.118347972735712     
 -9.944683981474602E-002 -8.054570689378196E-002 -6.164457397281650E-002
 -4.274344105185086E-002 -2.384230813088632E-002 -4.941175209921672E-003
  1.395995771104347E-002  3.286109063200852E-002  5.176222355297282E-002
 -0.131931204716335      -0.113030071795369      -9.412893887440484E-002
 -7.522780595343928E-002 -5.632667303247417E-002 -3.742554011150966E-002
 -1.852440719054472E-002  3.767257304207484E-004  1.927785865138627E-002
  3.817899157234982E-002  5.708012449331511E-002 -0.126571037254553     
 -0.107669904333587      -8.876877141262196E-002 -6.986763849165735E-002
 -5.096650557069239E-002 -3.206537264972650E-002 -1.316423972876123E-002
  5.736893192203267E-003  2.463802611316759E-002  4.353915903413356E-002
  6.244029195509809E-002 -0.121253136314210      -0.102352003393245     
 -8.345087047228009E-002 -6.454973755131557E-002 -4.564860463035073E-002
 -2.674747170938505E-002 -7.846338788419888E-003  1.105479413254537E-002
  2.995592705351051E-002  4.885705997447468E-002  6.775819289544015E-002
 -0.116061368369897      -9.716023544893237E-002 -7.825910252796726E-002
 -5.935796960700254E-002 -4.045683668603695E-002 -2.155570376507247E-002
 -2.654570844108574E-003  1.624656207685767E-002  3.514769499782273E-002
  5.404882791878869E-002  7.294996083975241E-002 -0.111077610703510     
 -9.217647778254506E-002 -7.327534486157893E-002 -5.437421194061306E-002
 -3.547307901964839E-002 -1.657194609868501E-002  2.329186822282257E-003
  2.123031974324632E-002  4.013145266421026E-002  5.903258558517599E-002
  7.793371850614068E-002 -0.106380460150595      -8.747932722963134E-002
 -6.857819430866505E-002 -4.967706138769958E-002 -3.077592846673469E-002
 -1.187479554576999E-002  7.026337375195011E-003  2.592747029616050E-002
  4.482860321712626E-002  6.372973613808988E-002  8.263086905905417E-002
 -0.102043993581318      -8.314286066035226E-002 -6.424172773938729E-002
 -4.534059481842211E-002 -2.643946189745877E-002 -7.538328976493145E-003
  1.136280394447293E-002  3.026393686543741E-002  4.916506978640368E-002
  6.806620270736742E-002  8.696733562833218E-002 -9.813659966395341E-002
 -7.923546674298862E-002 -6.033433382202292E-002 -4.143320090105858E-002
 -2.253206798009412E-002 -3.630935059127799E-003  1.527019786183683E-002
  3.417133078280267E-002  5.307246370376652E-002  7.197359662473214E-002
  9.087472954569606E-002 -9.471990033474367E-002 -7.581876741377659E-002
 -5.691763449281298E-002 -3.801650157184851E-002 -1.911536865088217E-002
 -2.142357299180894E-004  1.868689719104700E-002  3.758803011201248E-002
  5.648916303297792E-002  7.539029595394250E-002  9.429142887490746E-002
 -9.184777898314583E-002 -7.294664606218014E-002 -5.404551314121400E-002
 -3.514438022025001E-002 -1.624324729928509E-002  2.657885621680741E-003
  2.155901854264485E-002  4.046015146361151E-002  5.936128438457391E-002
  7.826241730554041E-002  9.716355022650709E-002 -8.956553067859822E-002
 -7.066439775763184E-002 -5.176326483666741E-002 -3.286213191570134E-002
 -1.396099899473652E-002  4.940133926226757E-003  2.384126684719176E-002
  4.274239976815730E-002  6.164353268912268E-002  8.054466561008837E-002
  9.944579853105355E-002 -8.790914784021125E-002 -6.900801491924551E-002
 -5.010688199828105E-002 -3.120574907731469E-002 -1.230461615635086E-002
  6.596516764617471E-003  2.549764968557732E-002  4.439878260654378E-002
  6.329991552750974E-002  8.220104844847383E-002  0.101102181369441     
 -8.690475261482192E-002 -6.800361969385706E-002 -4.910248677289041E-002
 -3.020135385192703E-002 -1.130022093096133E-002  7.600911990002135E-003
  2.650204491096829E-002  4.540317783193303E-002  6.430431075289848E-002
  8.320544367386272E-002  0.102106576594828      -8.656818491513227E-002
 -6.766705199416756E-002 -4.876591907320229E-002 -2.986478615223770E-002
 -1.096365323127258E-002  7.937479689691425E-003  2.683861261065686E-002
  4.573974553162379E-002  6.464087845258734E-002  8.354201137355166E-002
  0.102443144294519     
  1.660316899342888E-002  1.494285209408599E-002  1.328253519474311E-002
  1.162221829540022E-002  9.961901396057328E-003  8.301584496714441E-003
  6.641267597371552E-003  4.980950698028665E-003  3.320633798685776E-003
  1.660316899342887E-003  0.000000000000000E+000  1.660316899342888E-002
  1.494285209408599E-002  1.328253519474311E-002  1.162221829540022E-002
  9.961901396057328E-003  8.301584496714441E-003  6.641267597371552E-003
  4.980950698028665E-003  3.320633798685776E-003  1.660316899342887E-003
  0.000000000000000E+000  1.660316899342888E-002  1.494285209408599E-002
  1.328253519474311E-002  1.162221829540022E-002  9.961901396057328E-003
  8.301584496714441E-003  6.641267597371552E-003  4.980950698028665E-003
  3.320633798685776E-003  1.660316899342887E-003  0.000000000000000E+000
  1.660316899342888E-002  1.494285209408599E-002  1.328253519474311E-002
  1.162221829540022E-002  9.961901396057328E-003  8.301584496714441E-003
  6.641267597371552E-003  4.980950698028665E-003  3.320633798685776E-003
  1.660316899342887E-003  0.000000000000000E+000  1.660316899342888E-002
  1.494285209408599E-002  1.328253519474311E-002  1.162221829540022E-002
  9.961901396057328E-003  8.301584496714441E-003  6.641267597371552E-003
  4.980950698028665E-003  3.320633798685776E-003  1.660316899342887E-003
  0.000000000000000E+000  1.660316899342888E-002  1.494285209408599E-002
  1.328253519474311E-002  1.162221829540022E-002  9.961901396057328E-003
  8.301584496714441E-003  6.641267597371552E-003  4.980950698028665E-003
  3.320633798685776E-003  1.660316899342887E-003  0.000000000000000E+000
  1.660316899342888E-002  1.494285209408599E-002  1.328253519474311E-002
  1.162221829540022E-002  9.961901396057328E-003  8.301584496714441E-003
  6.641267597371552E-003  4.980950698028665E-003  3.320633798685776E-003
  1.660316899342887E-003  0.000000000000000E+000  1.660316899342888E-002
  1.494285209408599E-002  1.328253519474311E-002  1.162221829540022E-002
  9.961901396057328E-003  8.301584496714441E-003  6.641267597371552E-003
  4.980950698028665E-003  3.320633798685776E-003  1.660316899342887E-003
  0.000000000000000E+000  1.660316899342888E-002  1.494285209408599E-002
  1.328253519474311E-002  1.162221829540022E-002  9.961901396057328E-003
  8.301584496714441E-003  6.641267597371552E-003  4.980950698028665E-003
  3.320633798685776E-003  1.660316899342887E-003  0.000000000000000E+000
  1.660316899342888E-002  1.494285209408599E-002  1.328253519474311E-002
  1.162221829540022E-002  9.961901396057328E-003  8.301584496714441E-003
  6.641267597371552E-003  4.980950698028665E-003  3.320633798685776E-003
  1.660316899342887E-003  0.000000000000000E+000  1.660316899342888E-002
  1.494285209408599E-002  1.328253519474311E-002  1.162221829540022E-002
  9.961901396057328E-003  8.301584496714441E-003  6.641267597371552E-003
  4.980950698028665E-003  3.320633798685776E-003  1.660316899342887E-003
  0.000000000000000E+000  1.660316899342888E-002  1.494285209408599E-002
  1.328253519474311E-002  1.162221829540022E-002  9.961901396057328E-003
  8.301584496714441E-003  6.641267597371552E-003  4.980950698028665E-003
  3.320633798685776E-003  1.660316899342887E-003  0.000000000000000E+000
  1.660316899342888E-002  1.494285209408599E-002  1.328253519474311E-002
  1.162221829540022E-002  9.961901396057328E-003  8.301584496714441E-003
  6.641267597371552E-003  4.980950698028665E-003  3.320633798685776E-003
  1.660316899342887E-003  0.000000000000000E+000  1.660316899342888E-002
  1.494285209408599E-002  1.328253519474311E-002  1.162221829540022E-002
  9.961901396057328E-003  8.301584496714441E-003  6.641267597371552E-003
  4.980950698028665E-003  3.320633798685776E-003  1.660316899342887E-003
  0.000000000000000E+000  1.660316899342888E-002  1.494285209408599E-002
  1.328253519474311E-002  1.162221829540022E-002  9.961901396057328E-003
  8.301584496714441E-003  6.641267597371552E-003  4.980950698028665E-003
  3.320633798685776E-003  1.660316899342887E-003  0.000000000000000E+000
  1.660316899342888E-002  1.494285209408599E-002  1.328253519474311E-002
  1.162221829540022E-002  9.961901396057328E-003  8.301584496714441E-003
  6.641267597371552E-003  4.980950698028665E-003  3.320633798685776E-003
  1.660316899342887E-003  0.000000000000000E+000  1.660316899342888E-002
  1.494285209408599E-002  1.328253519474311E-002  1.162221829540022E-002
  9.961901396057328E-003  8.301584496714441E-003  6.641267597371552E-003
  4.980950698028665E-003  3.320633798685776E-003  1.660316899342887E-003
  0.000000000000000E+000  1.660316899342888E-002  1.494285209408599E-002
  1.328253519474311E-002  1.162221829540022E-002  9.961901396057328E-003
  8.301584496714441E-003  6.641267597371552E-003  4.980950698028665E-003
  3.320633798685776E-003  1.660316899342887E-003  0.000000000000000E+000
  1.660316899342888E-002  1.494285209408599E-002  1.328253519474311E-002
  1.162221829540022E-002  9.961901396057328E-003  8.301584496714441E-003
  6.641267597371552E-003  4.980950698028665E-003  3.320633798685776E-003
  1.660316899342887E-003  0.000000000000000E+000  1.660316899342888E-002
  1.494285209408599E-002  1.328253519474311E-002  1.162221829540022E-002
  9.961901396057328E-003  8.301584496714441E-003  6.641267597371552E-003
  4.980950698028665E-003  3.320633798685776E-003  1.660316899342887E-003
  0.000000000000000E+000  1.660316899342888E-002  1.494285209408599E-002
  1.328253519474311E-002  1.162221829540022E-002  9.961901396057328E-003
  8.301584496714441E-003  6.641267597371552E-003  4.980950698028665E-003
  3.320633798685776E-003  1.660316899342887E-003  0.000000000000000E+000
  1.660316899342888E-002  1.494285209408599E-002  1.328253519474311E-002
  1.162221829540022E-002  9.961901396057328E-003  8.301584496714441E-003
  6.641267597371552E-003  4.980950698028665E-003  3.320633798685776E-003
  1.660316899342887E-003  0.000000000000000E+000  1.660316899342888E-002
  1.494285209408599E-002  1.328253519474311E-002  1.162221829540022E-002
  9.961901396057328E-003  8.301584496714441E-003  6.641267597371552E-003
  4.980950698028665E-003  3.320633798685776E-003  1.660316899342887E-003
  0.000000000000000E+000  1.660316899342888E-002  1.494285209408599E-002
  1.328253519474311E-002  1.162221829540022E-002  9.961901396057328E-003
  8.301584496714441E-003  6.641267597371552E-003  4.980950698028665E-003
  3.320633798685776E-003  1.660316899342887E-003  0.000000000000000E+000
  1.660316899342888E-002  1.494285209408599E-002  1.328253519474311E-002
  1.162221829540022E-002  9.961901396057328E-003  8.301584496714441E-003
  6.641267597371552E-003  4.980950698028665E-003  3.320633798685776E-003
  1.660316899342887E-003  0.000000000000000E+000  1.660316899342888E-002
  1.494285209408599E-002  1.328253519474311E-002  1.162221829540022E-002
  9.961901396057328E-003  8.301584496714441E-003  6.641267597371552E-003
  4.980950698028665E-003  3.320633798685776E-003  1.660316899342887E-003
  0.000000000000000E+000
 -7.364282707944904E-003  2.785806922366940E-004  1.181847609089927E-002
  2.575820146347976E-002  4.175626922125764E-002  5.997342968674176E-002
  8.048798908584159E-002  0.103084106799013       0.127666392423215     
  0.152767127566399      -1.106794735375560E-002  1.108436480464322E-003
  2.008341243480225E-002  4.318954129140703E-002  6.974834189304459E-002
  9.984491744193903E-002  0.133533820737859       0.170693013801959     
  0.211445605743746       0.253698980643662      -1.132893058387607E-002
  3.788273695236395E-003  2.824618511337458E-002  5.853943515462359E-002
  9.352149976648937E-002  0.132790165872964       0.176065404566205     
  0.223474972397168       0.275505329503287       0.328706879605138     
 -8.084168222978022E-003  8.980623762198712E-003  3.631633345706013E-002
  7.051125708002821E-002  0.110057882194687       0.153996992250304     
  0.201707220776896       0.253233743280373       0.308700339608692     
  0.364299780018836      -1.000296942193741E-003  1.798332961698567E-002
  4.628378689941828E-002  8.120199773254157E-002  0.121290194061727     
  0.165550630062542       0.213399119147094       0.264555941971817     
  0.318214047077062       0.370548355202223       1.155996602178387E-002
  3.380613098832428E-002  6.253164364749493E-002  9.625428030339493E-002
  0.134095173858898       0.175459386717732       0.219894300714618     
  0.266826303954170       0.315156068568560       0.361734388415865     
  3.144779961529764E-002  5.995313656131000E-002  9.055320945340652E-002
  0.123492037735241       0.158692584446515       0.196041667137934     
  0.235333314754102       0.276144777576220       0.317703759028531     
  0.357593802176769       5.941200038229639E-002  9.830408734856380E-002
  0.133912511321638       0.168642096849275       0.203251097897786     
  0.238031464272790       0.273051776327963       0.308214852227896     
  0.343130790458139       0.375943365050361       9.486663640622735E-002
  0.148338672133362       0.192464056469257       0.232178844890765     
  0.269164572048587       0.304154100284589       0.337492195545327     
  0.369304871663119       0.399407149051693       0.426337205857830     
  0.136508313423413       0.208003857102680       0.263524388445729     
  0.310902438146242       0.352898264570953       0.390778602177428     
  0.425199425214053       0.456467219281215       0.484510867054933     
  0.508061424216251       0.183126361904297       0.275300325017725     
  0.344383133170918       0.401441484870877       0.450463073238271     
  0.493317828004642       0.530986126081506       0.563942559451573     
  0.592180715770571       0.614474390403705       0.233994028474067     
  0.348982039911089       0.433264929132292       0.501428648050458     
  0.558811300760116       0.607954435286727       0.650201221126984     
  0.686217217816673       0.716063317546045       0.738497519658975     
  0.288543166415609       0.428092271029560       0.528804328180782     
  0.609033560653843       0.675575519954034       0.731709795160836     
  0.779201065502002       0.818958135534063       0.851151730645662     
  0.874514865813273       0.346038258058201       0.511489900800921     
  0.629533197795255       0.722492529237166       0.798705000810353     
  0.862239059420076       0.915313951992208       0.959107774750118     
  0.993928771182912        1.01850538507766       0.405747188937939     
  0.598082428723410       0.734095978318413       0.840228496511497     
  0.926411689083447       0.997534954082779        1.05629479697091     
   1.10415652977604        1.14158487853209        1.16733158524613     
  0.467257270173744       0.687298584609537       0.841797020070916     
  0.961404825463876        1.05768179711194        1.13636711404276     
   1.20067708711279        1.25240825371218        1.29222397765460     
   1.31894973240470       0.531402341329302       0.780500442656637     
  0.954301331323927        1.08777728983154        1.19419856212005     
   1.28023600344014        1.34971032072865        1.40484948584634     
   1.44661638632341        1.47401245983546       0.607823674969665     
  0.890544956288132        1.08568398624855        1.23369371633338     
   1.35015049444432        1.44299378886628        1.51685715402806     
   1.57455140840935        1.61749027684048        1.64502949794909     
  0.741877431751069        1.07093549505593        1.29064860160973     
   1.45403076041273        1.58061244588379        1.68003756434068     
   1.75801904910464        1.81813585016777        1.86234529869830     
   1.89034282150889       0.944096488232362        1.33574269874254     
   1.58398580646753        1.76201163507054        1.89578920442142     
   1.99850415572143        2.07778398555574        2.13826322873099     
   2.18253420161529        2.21074813825426        1.04902105720525     
   1.47200074839258        1.73033603312432        1.90845672380421     
   2.03846897483672        2.13598125392252        2.20972771592081     
   2.26485022293890        2.30420945746056        2.32855456647262     
   1.02148334038938        1.41900915316178        1.65366494619810     
   1.81070230700685        1.92277097890210        2.00547457941632     
   2.06716391060073        2.11249321737082        2.14385370299315     
   2.16189983115161       0.897106330938158        1.22046263132021     
   1.40431523014343        1.52544900306136        1.61129560136327     
   1.67443480879973        1.72142916597428        1.75588722179446     
   1.77970533736694        1.79353164454068       0.690348535763666     
  0.910096347922190        1.03340910517503        1.11487672146601     
   1.17283488872316        1.21562434969234        1.24762655229565     
   1.27133045044771        1.28836723373542        1.30104362745934     
  0.420493944768106       0.543623329249336       0.613403913028480     
  0.659785090289019       0.692908201682672       0.717426775833928     
  0.735796953801262       0.749391324835219       0.758973495124601     
  0.764821110990621     
  0.000000000000000E+000  0.000000000000000E+000  0.000000000000000E+000
  0.000000000000000E+000  0.000000000000000E+000  0.000000000000000E+000
  0.000000000000000E+000  0.000000000000000E+000  0.000000000000000E+000
  0.000000000000000E+000  0.000000000000000E+000  0.000000000000000E+000
  0.000000000000000E+000  0.000000000000000E+000  0.000000000000000E+000
  0.000000000000000E+000  0.000000000000000E+000  0.000000000000000E+000
  0.000000000000000E+000  0.000000000000000E+000  0.000000000000000E+000
  0.000000000000000E+000  0.000000000000000E+000  0.000000000000000E+000
  0.000000000000000E+000  0.000000000000000E+000  0.000000000000000E+000
  0.000000000000000E+000  0.000000000000000E+000  0.000000000000000E+000
  0.000000000000000E+000  0.000000000000000E+000  0.000000000000000E+000
  0.000000000000000E+000  0.000000000000000E+000  0.000000000000000E+000
  0.000000000000000E+000  0.000000000000000E+000  0.000000000000000E+000
  0.000000000000000E+000  0.000000000000000E+000  0.000000000000000E+000
  0.000000000000000E+000  0.000000000000000E+000  0.000000000000000E+000
  0.000000000000000E+000  0.000000000000000E+000  0.000000000000000E+000
  0.000000000000000E+000  0.000000000000000E+000  0.000000000000000E+000
  0.000000000000000E+000  0.000000000000000E+000  0.000000000000000E+000
  0.000000000000000E+000  0.000000000000000E+000  0.000000000000000E+000
  0.000000000000000E+000  0.000000000000000E+000  0.000000000000000E+000
  0.000000000000000E+000  0.000000000000000E+000  0.000000000000000E+000
  0.000000000000000E+000  0.000000000000000E+000  0.000000000000000E+000
  0.000000000000000E+000  0.000000000000000E+000  0.000000000000000E+000
  0.000000000000000E+000  0.000000000000000E+000  0.000000000000000E+000
  0.000000000000000E+000  0.000000000000000E+000  0.000000000000000E+000
  0.000000000000000E+000  0.000000000000000E+000  0.000000000000000E+000
  0.000000000000000E+000  0.000000000000000E+000  0.000000000000000E+000
  0.000000000000000E+000  0.000000000000000E+000  0.000000000000000E+000
  0.000000000000000E+000  0.000000000000000E+000  0.000000000000000E+000
  0.000000000000000E+000  0.000000000000000E+000  0.000000000000000E+000
  0.000000000000000E+000  0.000000000000000E+000  0.000000000000000E+000
  0.000000000000000E+000  0.000000000000000E+000  0.000000000000000E+000
  0.000000000000000E+000  0.000000000000000E+000  0.000000000000000E+000
  0.000000000000000E+000  0.000000000000000E+000  0.000000000000000E+000
  0.000000000000000E+000  0.000000000000000E+000  0.000000000000000E+000
  0.000000000000000E+000  0.000000000000000E+000  0.000000000000000E+000
  0.000000000000000E+000  0.000000000000000E+000  0.000000000000000E+000
  0.000000000000000E+000  0.000000000000000E+000  0.000000000000000E+000
  0.000000000000000E+000  0.000000000000000E+000  0.000000000000000E+000