 Title = "Wing and Wake"
 VARIABLES = "X" "Y" "Z" "GAM" "skew"
 Zone I=   11 J=   26 K=1  T="Blade"
 DATAPACKING=BLOCK
 VARLOCATION=([4]=CELLCENTERED,[5]=CELLCENTERED)
 -0.219552650286007      -0.200854466930509      -0.182156283575012     
 -0.163458100219514      -0.144759916864017      -0.126061733508519     
 -0.107363550153022      -8.866536679752410E-002 -6.996718344202665E-002
 -5.126900008652899E-002 -3.257081673103154E-002 -0.220194572764338     
 -0.201496389408841      -0.182798206053343      -0.164100022697846     
 -0.145401839342348      -0.126703655986851      -0.108005472631353     
 -8.930728927585553E-002 -7.060910592035795E-002 -5.191092256486045E-002
 -3.321273920936293E-002 -0.222110216698383      -0.203412033342886     
 -0.184713849987389      -0.166015666631891      -0.147317483276393     
 -0.128619299920896      -0.109921116565398      -9.122293320990081E-002
 -7.252474985440321E-002 -5.382656649890577E-002 -3.512838314340821E-002
 -0.225269371238952      -0.206571187883455      -0.187873004527957     
 -0.169174821172460      -0.150476637816962      -0.131778454461465     
 -0.113080271105967      -9.438208775046956E-002 -7.568390439497204E-002
 -5.698572103947466E-002 -3.828753768397709E-002 -0.229622214631753     
 -0.210924031276255      -0.192225847920758      -0.173527664565260     
 -0.154829481209763      -0.136131297854265      -0.117433114498767     
 -9.873493114326985E-002 -8.003674778777226E-002 -6.133856443227472E-002
 -4.264038107677731E-002 -0.235100099936217      -0.216401916580719     
 -0.197703733225222      -0.179005549869725      -0.160307366514227     
 -0.141609183158730      -0.122910999803232      -0.104212816447735     
 -8.551463309223692E-002 -6.681644973673935E-002 -4.811826638124177E-002
 -0.241616637628765      -0.222918454273267      -0.204220270917770     
 -0.185522087562272      -0.166823904206775      -0.148125720851277     
 -0.129427537495779      -0.110729354140282      -9.203117078478416E-002
 -7.333298742928673E-002 -5.463480407378939E-002 -0.249069058017192     
 -0.230370874661695      -0.211672691306198      -0.192974507950700     
 -0.174276324595203      -0.155578141239705      -0.136879957884208     
 -0.118181774528710      -9.948359117321211E-002 -8.078540781771477E-002
 -6.208722446221725E-002 -0.257339831980115      -0.238641648624618     
 -0.219943465269120      -0.201245281913623      -0.182547098558125     
 -0.163848915202628      -0.145150731847130      -0.126452548491633     
 -0.107754365136135      -8.905618178063747E-002 -7.035799842514026E-002
 -0.266298524471417      -0.247600341115919      -0.228902157760422     
 -0.210203974404924      -0.191505791049427      -0.172807607693929     
 -0.154109424338432      -0.135411240982934      -0.116713057627436     
 -9.801487427193903E-002 -7.931669091644154E-002 -0.275803851558846     
 -0.257105668203348      -0.238407484847851      -0.219709301492353     
 -0.201011118136855      -0.182312934781358      -0.163614751425860     
 -0.144916568070362      -0.126218384714865      -0.107520201359368     
 -8.882201800387035E-002 -0.285705908556026      -0.267007725200528     
 -0.248309541845030      -0.229611358489533      -0.210913175134036     
 -0.192214991778538      -0.173516808423041      -0.154818625067543     
 -0.136120441712045      -0.117422258356548      -9.872407500105061E-002
 -0.295848534108909      -0.277150350753412      -0.258452167397914     
 -0.239753984042417      -0.221055800686919      -0.202357617331422     
 -0.183659433975925      -0.164961250620427      -0.146263067264929     
 -0.127564883909432      -0.108866700553934      -0.306071772953617     
 -0.287373589598120      -0.268675406242622      -0.249977222887125     
 -0.231279039531627      -0.212580856176129      -0.193882672820632     
 -0.175184489465135      -0.156486306109637      -0.137788122754139     
 -0.119089939398642      -0.316214398506502      -0.297516215151004     
 -0.278818031795506      -0.260119848440009      -0.241421665084511     
 -0.222723481729014      -0.204025298373516      -0.185327115018019     
 -0.166628931662521      -0.147930748307024      -0.129232564951526     
 -0.326116455503681      -0.307418272148184      -0.288720088792687     
 -0.270021905437189      -0.251323722081691      -0.232625538726194     
 -0.213927355370696      -0.195229172015199      -0.176530988659701     
 -0.157832805304203      -0.139134621948706      -0.335621782591110     
 -0.316923599235613      -0.298225415880115      -0.279527232524618     
 -0.260829049169120      -0.242130865813623      -0.223432682458125     
 -0.204734499102627      -0.186036315747130      -0.167338132391632     
 -0.148639949036135      -0.344580475082411      -0.325882291726914     
 -0.307184108371417      -0.288485925015919      -0.269787741660421     
 -0.251089558304924      -0.232391374949426      -0.213693191593929     
 -0.194995008238431      -0.176296824882934      -0.157598641527436     
 -0.352851249045334      -0.334153065689837      -0.315454882334339     
 -0.296756698978842      -0.278058515623344      -0.259360332267847     
 -0.240662148912349      -0.221963965556851      -0.203265782201354     
 -0.184567598845857      -0.165869415490359      -0.360303669433762     
 -0.341605486078265      -0.322907302722767      -0.304209119367270     
 -0.285510936011773      -0.266812752656274      -0.248114569300777     
 -0.229416385945279      -0.210718202589782      -0.192020019234284     
 -0.173321835878787      -0.366820207126309      -0.348122023770812     
 -0.329423840415315      -0.310725657059817      -0.292027473704320     
 -0.273329290348822      -0.254631106993324      -0.235932923637828     
 -0.217234740282329      -0.198536556926832      -0.179838373571334     
 -0.372298092430775      -0.353599909075277      -0.334901725719779     
 -0.316203542364282      -0.297505359008785      -0.278807175653287     
 -0.260108992297789      -0.241410808942291      -0.222712625586794     
 -0.204014442231297      -0.185316258875799      -0.376650935823575     
 -0.357952752468077      -0.339254569112580      -0.320556385757082     
 -0.301858202401584      -0.283160019046087      -0.264461835690590     
 -0.245763652335092      -0.227065468979594      -0.208367285624097     
 -0.189669102268599      -0.379810090364144      -0.361111907008645     
 -0.342413723653149      -0.323715540297651      -0.305017356942153     
 -0.286319173586656      -0.267620990231159      -0.248922806875660     
 -0.230224623520163      -0.211526440164665      -0.192828256809168     
 -0.381725734298188      -0.363027550942692      -0.344329367587193     
 -0.325631184231696      -0.306933000876198      -0.288234817520700     
 -0.269536634165203      -0.250838450809705      -0.232140267454209     
 -0.213442084098712      -0.194743900743213      -0.382367656776520     
 -0.363669473421022      -0.344971290065525      -0.326273106710027     
 -0.307574923354530      -0.288876739999033      -0.270178556643535     
 -0.251480373288037      -0.232782189932540      -0.214084006577042     
 -0.195385823221545     
  0.155293226134870       0.158537264821130       0.161781303507390     
  0.165025342193650       0.168269380879910       0.171513419566170     
  0.174757458252429       0.178001496938689       0.181245535624949     
  0.184489574311209       0.187733612997469       0.158993177140601     
  0.162237215826861       0.165481254513121       0.168725293199381     
  0.171969331885641       0.175213370571901       0.178457409258160     
  0.181701447944420       0.184945486630680       0.188189525316940     
  0.191433564003200       0.170034679720189       0.173278718406449     
  0.176522757092709       0.179766795778969       0.183010834465229     
  0.186254873151489       0.189498911837749       0.192742950524009     
  0.195986989210269       0.199231027896529       0.202475066582788     
  0.188243602782082       0.191487641468342       0.194731680154602     
  0.197975718840862       0.201219757527121       0.204463796213381     
  0.207707834899641       0.210951873585901       0.214195912272161     
  0.217439950958421       0.220683989644681       0.213332780732108     
  0.216576819418368       0.219820858104628       0.223064896790888     
  0.226308935477148       0.229552974163408       0.232797012849668     
  0.236041051535928       0.239285090222188       0.242529128908448     
  0.245773167594707       0.244906542246449       0.248150580932708     
  0.251394619618968       0.254638658305228       0.257882696991488     
  0.261126735677748       0.264370774364008       0.267614813050268     
  0.270858851736528       0.274102890422788       0.277346929109048     
  0.282466950244771       0.285710988931031       0.288955027617291     
  0.292199066303551       0.295443104989811       0.298687143676071     
  0.301931182362330       0.305175221048591       0.308419259734850     
  0.311663298421110       0.314907337107370       0.325421654655441     
  0.328665693341701       0.331909732027962       0.335153770714221     
  0.338397809400481       0.341641848086741       0.344885886773001     
  0.348129925459261       0.351373964145521       0.354618002831781     
  0.357862041518041       0.373093234130007       0.376337272816267     
  0.379581311502527       0.382825350188787       0.386069388875047     
  0.389313427561307       0.392557466247567       0.395801504933827     
  0.399045543620087       0.402289582306346       0.405533620992606     
  0.424729879382533       0.427973918068793       0.431217956755053     
  0.434461995441313       0.437706034127573       0.440950072813833     
  0.444194111500092       0.447438150186352       0.450682188872613     
  0.453926227558872       0.457170266245132       0.479517249671150     
  0.482761288357410       0.486005327043670       0.489249365729930     
  0.492493404416190       0.495737443102450       0.498981481788710     
  0.502225520474969       0.505469559161230       0.508713597847490     
  0.511957636533749       0.536591315438018       0.539835354124278     
  0.543079392810538       0.546323431496798       0.549567470183059     
  0.552811508869318       0.556055547555578       0.559299586241838     
  0.562543624928098       0.565787663614358       0.569031702300618     
  0.595051984571599       0.598296023257860       0.601540061944119     
  0.604784100630379       0.608028139316639       0.611272178002899     
  0.614516216689159       0.617760255375419       0.621004294061679     
  0.624248332747939       0.627492371434199       0.653977297396946     
  0.657221336083207       0.660465374769467       0.663709413455727     
  0.666953452141986       0.670197490828246       0.673441529514506     
  0.676685568200766       0.679929606887026       0.683173645573286     
  0.686417684259546       0.712437966530528       0.715682005216788     
  0.718926043903048       0.722170082589308       0.725414121275567     
  0.728658159961828       0.731902198648087       0.735146237334347     
  0.738390276020607       0.741634314706867       0.744878353393127     
  0.769512032297396       0.772756070983656       0.776000109669916     
  0.779244148356176       0.782488187042436       0.785732225728695     
  0.788976264414955       0.792220303101216       0.795464341787476     
  0.798708380473735       0.801952419159995       0.824299402586014     
  0.827543441272273       0.830787479958533       0.834031518644793     
  0.837275557331053       0.840519596017313       0.843763634703573     
  0.847007673389833       0.850251712076093       0.853495750762352     
  0.856739789448613       0.875936047838539       0.879180086524799     
  0.882424125211059       0.885668163897319       0.888912202583578     
  0.892156241269838       0.895400279956098       0.898644318642358     
  0.901888357328618       0.905132396014878       0.908376434701137     
  0.923607627313105       0.926851665999364       0.930095704685624     
  0.933339743371885       0.936583782058144       0.939827820744404     
  0.943071859430664       0.946315898116924       0.949559936803184     
  0.952803975489444       0.956048014175704       0.966562331723775     
  0.969806370410035       0.973050409096295       0.976294447782555     
  0.979538486468815       0.982782525155074       0.986026563841335     
  0.989270602527595       0.992514641213854       0.995758679900114     
  0.999002718586374        1.00412273972210        1.00736677840836     
   1.01061081709462        1.01385485578088        1.01709889446714     
   1.02034293315340        1.02358697183966        1.02683101052592     
   1.03007504921218        1.03331908789844        1.03656312658470     
   1.03569650123644        1.03894053992270        1.04218457860896     
   1.04542861729522        1.04867265598148        1.05191669466774     
   1.05516073335400        1.05840477204026        1.06164881072652     
   1.06489284941278        1.06813688809904        1.06078567918647     
   1.06402971787272        1.06727375655898        1.07051779524524     
   1.07376183393150        1.07700587261776        1.08024991130402     
   1.08349394999028        1.08673798867654        1.08998202736280     
   1.09322606604906        1.07899460224836        1.08223864093462     
   1.08548267962088        1.08872671830714        1.09197075699340     
   1.09521479567966        1.09845883436592        1.10170287305218     
   1.10494691173844        1.10819095042470        1.11143498911096     
   1.09003610482794        1.09328014351421        1.09652418220046     
   1.09976822088672        1.10301225957298        1.10625629825924     
   1.10950033694550        1.11274437563176        1.11598841431802     
   1.11923245300428        1.12247649169054        1.09373605583368     
   1.09698009451994        1.10022413320620        1.10346817189246     
   1.10671221057872        1.10995624926498        1.11320028795123     
   1.11644432663750        1.11968836532376        1.12293240401001     
   1.12617644269628     
  1.660316899342888E-002  1.494285209408599E-002  1.328253519474311E-002
  1.162221829540022E-002  9.961901396057328E-003  8.301584496714441E-003
  6.641267597371552E-003  4.980950698028665E-003  3.320633798685776E-003
  1.660316899342887E-003  0.000000000000000E+000  1.660316899342888E-002
  1.494285209408599E-002  1.328253519474311E-002  1.162221829540022E-002
  9.961901396057328E-003  8.301584496714441E-003  6.641267597371552E-003
  4.980950698028665E-003  3.320633798685776E-003  1.660316899342887E-003
  0.000000000000000E+000  1.660316899342888E-002  1.494285209408599E-002
  1.328253519474311E-002  1.162221829540022E-002  9.961901396057328E-003
  8.301584496714441E-003  6.641267597371552E-003  4.980950698028665E-003
  3.320633798685776E-003  1.660316899342887E-003  0.000000000000000E+000
  1.660316899342888E-002  1.494285209408599E-002  1.328253519474311E-002
  1.162221829540022E-002  9.961901396057328E-003  8.301584496714441E-003
  6.641267597371552E-003  4.980950698028665E-003  3.320633798685776E-003
  1.660316899342887E-003  0.000000000000000E+000  1.660316899342888E-002
  1.494285209408599E-002  1.328253519474311E-002  1.162221829540022E-002
  9.961901396057328E-003  8.301584496714441E-003  6.641267597371552E-003
  4.980950698028665E-003  3.320633798685776E-003  1.660316899342887E-003
  0.000000000000000E+000  1.660316899342888E-002  1.494285209408599E-002
  1.328253519474311E-002  1.162221829540022E-002  9.961901396057328E-003
  8.301584496714441E-003  6.641267597371552E-003  4.980950698028665E-003
  3.320633798685776E-003  1.660316899342887E-003  0.000000000000000E+000
  1.660316899342888E-002  1.494285209408599E-002  1.328253519474311E-002
  1.162221829540022E-002  9.961901396057328E-003  8.301584496714441E-003
  6.641267597371552E-003  4.980950698028665E-003  3.320633798685776E-003
  1.660316899342887E-003  0.000000000000000E+000  1.660316899342888E-002
  1.494285209408599E-002  1.328253519474311E-002  1.162221829540022E-002
  9.961901396057328E-003  8.301584496714441E-003  6.641267597371552E-003
  4.980950698028665E-003  3.320633798685776E-003  1.660316899342887E-003
  0.000000000000000E+000  1.660316899342888E-002  1.494285209408599E-002
  1.328253519474311E-002  1.162221829540022E-002  9.961901396057328E-003
  8.301584496714441E-003  6.641267597371552E-003  4.980950698028665E-003
  3.320633798685776E-003  1.660316899342887E-003  0.000000000000000E+000
  1.660316899342888E-002  1.494285209408599E-002  1.328253519474311E-002
  1.162221829540022E-002  9.961901396057328E-003  8.301584496714441E-003
  6.641267597371552E-003  4.980950698028665E-003  3.320633798685776E-003
  1.660316899342887E-003  0.000000000000000E+000  1.660316899342888E-002
  1.494285209408599E-002  1.328253519474311E-002  1.162221829540022E-002
  9.961901396057328E-003  8.301584496714441E-003  6.641267597371552E-003
  4.980950698028665E-003  3.320633798685776E-003  1.660316899342887E-003
  0.000000000000000E+000  1.660316899342888E-002  1.494285209408599E-002
  1.328253519474311E-002  1.162221829540022E-002  9.961901396057328E-003
  8.301584496714441E-003  6.641267597371552E-003  4.980950698028665E-003
  3.320633798685776E-003  1.660316899342887E-003  0.000000000000000E+000
  1.660316899342888E-002  1.494285209408599E-002  1.328253519474311E-002
  1.162221829540022E-002  9.961901396057328E-003  8.301584496714441E-003
  6.641267597371552E-003  4.980950698028665E-003  3.320633798685776E-003
  1.660316899342887E-003  0.000000000000000E+000  1.660316899342888E-002
  1.494285209408599E-002  1.328253519474311E-002  1.162221829540022E-002
  9.961901396057328E-003  8.301584496714441E-003  6.641267597371552E-003
  4.980950698028665E-003  3.320633798685776E-003  1.660316899342887E-003
  0.000000000000000E+000  1.660316899342888E-002  1.494285209408599E-002
  1.328253519474311E-002  1.162221829540022E-002  9.961901396057328E-003
  8.301584496714441E-003  6.641267597371552E-003  4.980950698028665E-003
  3.320633798685776E-003  1.660316899342887E-003  0.000000000000000E+000
  1.660316899342888E-002  1.494285209408599E-002  1.328253519474311E-002
  1.162221829540022E-002  9.961901396057328E-003  8.301584496714441E-003
  6.641267597371552E-003  4.980950698028665E-003  3.320633798685776E-003
  1.660316899342887E-003  0.000000000000000E+000  1.660316899342888E-002
  1.494285209408599E-002  1.328253519474311E-002  1.162221829540022E-002
  9.961901396057328E-003  8.301584496714441E-003  6.641267597371552E-003
  4.980950698028665E-003  3.320633798685776E-003  1.660316899342887E-003
  0.000000000000000E+000  1.660316899342888E-002  1.494285209408599E-002
  1.328253519474311E-002  1.162221829540022E-002  9.961901396057328E-003
  8.301584496714441E-003  6.641267597371552E-003  4.980950698028665E-003
  3.320633798685776E-003  1.660316899342887E-003  0.000000000000000E+000
  1.660316899342888E-002  1.494285209408599E-002  1.328253519474311E-002
  1.162221829540022E-002  9.961901396057328E-003  8.301584496714441E-003
  6.641267597371552E-003  4.980950698028665E-003  3.320633798685776E-003
  1.660316899342887E-003  0.000000000000000E+000  1.660316899342888E-002
  1.494285209408599E-002  1.328253519474311E-002  1.162221829540022E-002
  9.961901396057328E-003  8.301584496714441E-003  6.641267597371552E-003
  4.980950698028665E-003  3.320633798685776E-003  1.660316899342887E-003
  0.000000000000000E+000  1.660316899342888E-002  1.494285209408599E-002
  1.328253519474311E-002  1.162221829540022E-002  9.961901396057328E-003
  8.301584496714441E-003  6.641267597371552E-003  4.980950698028665E-003
  3.320633798685776E-003  1.660316899342887E-003  0.000000000000000E+000
  1.660316899342888E-002  1.494285209408599E-002  1.328253519474311E-002
  1.162221829540022E-002  9.961901396057328E-003  8.301584496714441E-003
  6.641267597371552E-003  4.980950698028665E-003  3.320633798685776E-003
  1.660316899342887E-003  0.000000000000000E+000  1.660316899342888E-002
  1.494285209408599E-002  1.328253519474311E-002  1.162221829540022E-002
  9.961901396057328E-003  8.301584496714441E-003  6.641267597371552E-003
  4.980950698028665E-003  3.320633798685776E-003  1.660316899342887E-003
  0.000000000000000E+000  1.660316899342888E-002  1.494285209408599E-002
  1.328253519474311E-002  1.162221829540022E-002  9.961901396057328E-003
  8.301584496714441E-003  6.641267597371552E-003  4.980950698028665E-003
  3.320633798685776E-003  1.660316899342887E-003  0.000000000000000E+000
  1.660316899342888E-002  1.494285209408599E-002  1.328253519474311E-002
  1.162221829540022E-002  9.961901396057328E-003  8.301584496714441E-003
  6.641267597371552E-003  4.980950698028665E-003  3.320633798685776E-003
  1.660316899342887E-003  0.000000000000000E+000  1.660316899342888E-002
  1.494285209408599E-002  1.328253519474311E-002  1.162221829540022E-002
  9.961901396057328E-003  8.301584496714441E-003  6.641267597371552E-003
  4.980950698028665E-003  3.320633798685776E-003  1.660316899342887E-003
  0.000000000000000E+000
  0.105920446380776       0.151329590014049       0.186303928805524     
  0.215848717328273       0.241400478300330       0.262816814426835     
  0.280123771242546       0.293744393390112       0.304190147553041     
  0.311931791968253       0.171559395045231       0.249530476049533     
  0.309053182718629       0.359236607641242       0.402531842290203     
  0.438918865672739       0.468449024949889       0.491792565509546     
  0.509994906375270       0.524590146430594       0.213696640528249     
  0.320723226450374       0.402880874884371       0.472084347191353     
  0.531513320022793       0.581759422317505       0.622992127656757     
  0.655833771858183       0.681327836790749       0.699929273058303     
  0.225002835756635       0.347278017502779       0.443946377870887     
  0.526082868362916       0.596582771333736       0.656295025810276     
  0.705774938749255       0.745425958420564       0.775587561511108     
  0.795728700742668       0.209861133987981       0.331270998367436     
  0.430752156477745       0.516703230159201       0.591022109503423     
  0.654545338467026       0.707870761193997       0.750923092913121     
  0.783068256677711       0.803089164303685       0.184209420654493     
  0.293531608365939       0.384663867805658       0.464409997261853     
  0.534537469593745       0.595560488188326       0.647453596922853     
  0.689363922694340       0.720551919078466       0.739904769366001     
  0.166917442777956       0.263938339489548       0.343847223500011     
  0.413748918028684       0.475695010742604       0.530157539499561     
  0.576804462824848       0.614798222863456       0.643839818007031     
  0.662687479410542       0.167769295046097       0.259991258165224     
  0.333703579416445       0.397301662111045       0.453295011961823     
  0.502425137497667       0.544705519177656       0.579851835435424     
  0.607299941611526       0.625433756333384       0.187764542191084     
  0.285499840263995       0.360574024667526       0.423524783587989     
  0.477832796434269       0.524861483026657       0.565113587013314     
  0.598629780032540       0.624955404527810       0.642556043005101     
  0.218746661537739       0.328585387609152       0.410416268738343     
  0.477284902658954       0.533765641433934       0.581879585951341     
  0.622570375747544       0.656174716103448       0.682462360368874     
  0.700073576715091       0.254665634962585       0.379714785735265     
  0.471000504686978       0.544247200083889       0.605131447524323     
  0.656295086979919       0.699086414123928       0.734114102955200     
  0.761324190836651       0.779456834850700       0.292268513840032     
  0.433738354051286       0.535632542503089       0.616385957921023     
  0.682766781503935       0.738000963520505       0.783787107888215     
  0.820957764253481       0.849599459033157       0.868510391352036     
  0.329578403549496       0.487587504404177       0.600362590840835     
  0.688977213257932       0.761234603554250       0.820895788540832     
  0.869978520097945       0.909517272028541       0.939723680515448     
  0.959443846435270       0.365284567163105       0.539270074273571     
  0.662647905075646       0.758969715947086       0.837005430868097     
  0.901015303636958       0.953310601724432       0.995111469487462     
   1.02674934638853        1.04712974416809       0.399105180905746     
  0.588297153504089       0.721776853605284       0.825407667637698     
  0.908856904032306       0.976859211419700        1.03201604007677     
   1.07573880373877        1.10848928387652        1.12925787430093     
  0.433297315825181       0.637726706469197       0.781143458246338     
  0.891749550436736       0.980144309880620        1.05158122904512     
   1.10900689337691        1.15407922705867        1.18744683259704     
   1.20825281243121       0.475212884514261       0.697300315964061     
  0.851456364658612       0.968970778878454        1.06174513466073     
   1.13578768024491        1.19456016957835        1.24011025089611     
   1.27340192332762        1.29386210058597       0.538036641168199     
  0.783764651907226       0.950526349676267        1.07495685971709     
   1.17126914197897        1.24676348068893        1.30571349357228     
   1.35073347573570        1.38325050621370        1.40314075270654     
  0.630087803675172       0.906932347368754        1.08812721385280     
   1.21913939216941        1.31797154730445        1.39386740247615     
   1.45214460424444        1.49604068750903        1.52746094969530     
   1.54678511268009       0.730635005524990        1.03850611831359     
   1.23216847704966        1.36754801753525        1.46702926363180     
   1.54179703051976        1.59804470940395        1.63952984904044     
   1.66861675290752        1.68621475441619       0.796916254195668     
   1.11876082311707        1.31325743918692        1.44480703649538     
   1.53915952413673        1.60863744169716        1.65960612101516     
   1.69594686701035        1.72032758860896        1.73417941212972     
  0.800764791704532        1.10577010356013        1.28142812914915     
   1.39632983814093        1.47712945817598        1.53599228221446     
   1.57832977684252        1.60765387535526        1.62646608383915     
   1.63616209422559       0.730313881064951       0.982727127006046     
   1.12075075662905        1.20896259561409        1.27039987050686     
   1.31508057796347        1.34712562053192        1.36917144093931     
   1.38344489720460        1.39118368353605       0.577299051104356     
  0.750194606965742       0.842707403633993       0.901754297763211     
  0.942950838962409       0.972939916176827       0.994573566412715     
   1.00970185967192        1.02013525861126        1.02815396147495     
  0.355347991394855       0.452223759674626       0.504484614626138     
  0.538012292915020       0.561476025709171       0.578577925680953     
  0.590938223347741       0.599594380288686       0.605439792064234     
  0.608956332111800     
  0.000000000000000E+000  0.000000000000000E+000  0.000000000000000E+000
  0.000000000000000E+000  0.000000000000000E+000  0.000000000000000E+000
  0.000000000000000E+000  0.000000000000000E+000  0.000000000000000E+000
  0.000000000000000E+000  0.000000000000000E+000  0.000000000000000E+000
  0.000000000000000E+000  0.000000000000000E+000  0.000000000000000E+000
  0.000000000000000E+000  0.000000000000000E+000  0.000000000000000E+000
  0.000000000000000E+000  0.000000000000000E+000  0.000000000000000E+000
  0.000000000000000E+000  0.000000000000000E+000  0.000000000000000E+000
  0.000000000000000E+000  0.000000000000000E+000  0.000000000000000E+000
  0.000000000000000E+000  0.000000000000000E+000  0.000000000000000E+000
  0.000000000000000E+000  0.000000000000000E+000  0.000000000000000E+000
  0.000000000000000E+000  0.000000000000000E+000  0.000000000000000E+000
  0.000000000000000E+000  0.000000000000000E+000  0.000000000000000E+000
  0.000000000000000E+000  0.000000000000000E+000  0.000000000000000E+000
  0.000000000000000E+000  0.000000000000000E+000  0.000000000000000E+000
  0.000000000000000E+000  0.000000000000000E+000  0.000000000000000E+000
  0.000000000000000E+000  0.000000000000000E+000  0.000000000000000E+000
  0.000000000000000E+000  0.000000000000000E+000  0.000000000000000E+000
  0.000000000000000E+000  0.000000000000000E+000  0.000000000000000E+000
  0.000000000000000E+000  0.000000000000000E+000  0.000000000000000E+000
  0.000000000000000E+000  0.000000000000000E+000  0.000000000000000E+000
  0.000000000000000E+000  0.000000000000000E+000  0.000000000000000E+000
  0.000000000000000E+000  0.000000000000000E+000  0.000000000000000E+000
  0.000000000000000E+000  0.000000000000000E+000  0.000000000000000E+000
  0.000000000000000E+000  0.000000000000000E+000  0.000000000000000E+000
  0.000000000000000E+000  0.000000000000000E+000  0.000000000000000E+000
  0.000000000000000E+000  0.000000000000000E+000  0.000000000000000E+000
  0.000000000000000E+000  0.000000000000000E+000  0.000000000000000E+000
  0.000000000000000E+000  0.000000000000000E+000  0.000000000000000E+000
  0.000000000000000E+000  0.000000000000000E+000  0.000000000000000E+000
  0.000000000000000E+000  0.000000000000000E+000  0.000000000000000E+000
  0.000000000000000E+000  0.000000000000000E+000  0.000000000000000E+000
  0.000000000000000E+000  0.000000000000000E+000  0.000000000000000E+000
  0.000000000000000E+000  0.000000000000000E+000  0.000000000000000E+000
  0.000000000000000E+000  0.000000000000000E+000  0.000000000000000E+000
  0.000000000000000E+000  0.000000000000000E+000  0.000000000000000E+000
  0.000000000000000E+000  0.000000000000000E+000  0.000000000000000E+000
  0.000000000000000E+000  0.000000000000000E+000  0.000000000000000E+000
  0.000000000000000E+000  0.000000000000000E+000  0.000000000000000E+000