 Title = "Wing and Wake"
 VARIABLES = "X" "Y" "Z" "GAM" "skew"
 Zone I=   11 J=   26 K=1  T="Blade"
 DATAPACKING=BLOCK
 VARLOCATION=([4]=CELLCENTERED,[5]=CELLCENTERED)
  0.197435311911582       0.178473793187012       0.159512274462441     
  0.140550755737871       0.121589237013301       0.102627718288730     
  8.366619956415973E-002  6.470468083958934E-002  4.574316211501919E-002
  2.678164339044854E-002  7.820124665878347E-003  0.197589434967440     
  0.178627916242869       0.159666397518300       0.140704878793729     
  0.121743360069159       0.102781841344588       8.382032262001789E-002
  6.485880389544763E-002  4.589728517087710E-002  2.693576644630694E-002
  7.974247721736388E-003  0.198049373522355       0.179087854797785     
  0.160126336073215       0.141164817348644       0.122203298624073     
  0.103241779899503       8.428026117493255E-002  6.531874245036243E-002
  4.635722372579197E-002  2.739570500122180E-002  8.434186276651521E-003
  0.198807874070561       0.179846355345991       0.160884836621421     
  0.141923317896851       0.122961799172280       0.104000280447710     
  8.503876172313903E-002  6.607724299856899E-002  4.711572427399886E-002
  2.815420554942836E-002  9.192686824858229E-003  0.199852974605309     
  0.180891455880738       0.161929937156168       0.142968418431597     
  0.124006899707027       0.105045380982456       8.608386225788640E-002
  6.712234353331591E-002  4.816082480874549E-002  2.919930608417505E-002
  1.023778735960491E-002  0.201168193266850       0.182206674542279     
  0.163245155817709       0.144283637093139       0.125322118368568     
  0.106360599643998       8.739908091942733E-002  6.843756219485765E-002
  4.947604347028683E-002  3.051452474571642E-002  1.155300602114585E-002
  0.202732788271220       0.183771269546649       0.164809750822079     
  0.145848232097509       0.126886713372938       0.107925194648368     
  8.896367592379760E-002  7.000215719922682E-002  5.104063847465612E-002
  3.207911975008666E-002  1.311760102551612E-002  0.204522085020555     
  0.185560566295985       0.166599047571415       0.147637528846844     
  0.128676010122274       0.109714491397703       9.075297267313304E-002
  7.179145394856289E-002  5.282993522399217E-002  3.386841649942199E-002
  1.490689777485177E-002  0.206507865236245       0.187546346511675     
  0.168584827787105       0.149623309062534       0.130661790337964     
  0.111700271613394       9.273875288882327E-002  7.377723416425323E-002
  5.481571543968261E-002  3.585419671511225E-002  1.689267799054230E-002
  0.208658811978042       0.189697293253470       0.170735774528900     
  0.151774255804330       0.132812737079760       0.113851218355190     
  9.488969963061931E-002  7.592818090604929E-002  5.696666218147838E-002
  3.800514345690843E-002  1.904362473233820E-002  0.210941003530912     
  0.191979484806342       0.173017966081771       0.154056447357201     
  0.135094928632630       0.116133409908060       9.717189118348987E-002
  7.821037245891842E-002  5.924885373434907E-002  4.028733500977844E-002
  2.132581628520846E-002  0.213318448370753       0.194356929646182     
  0.175395410921611       0.156433892197041       0.137472373472471     
  0.118510854747900       9.954933602332998E-002  8.058781729875961E-002
  6.162629857418944E-002  4.266477984961921E-002  2.370326112504897E-002
  0.215753652772222       0.196792134047652       0.177830615323082     
  0.158869096598511       0.139907577873940       0.120946059149371     
  0.101984540424800       8.302302170022940E-002  6.406150297565857E-002
  4.509998425108910E-002  2.613846552651846E-002  0.218208212107190     
  0.199246693382619       0.180285174658049       0.161323655933478     
  0.142362137208908       0.123400618484337       0.104439099759767     
  8.547758103519640E-002  6.651606231062673E-002  4.755454358605540E-002
  2.859302486148594E-002  0.220643416508659       0.201681897784089     
  0.182720379059518       0.163758860334949       0.144797341610378     
  0.125835822885808       0.106874304161237       8.791278543666665E-002
  6.895126671209614E-002  4.998974798752608E-002  3.102822926295600E-002
  0.223020861348499       0.204059342623929       0.185097823899359     
  0.166136305174788       0.147174786450218       0.128213267725648     
  0.109251749001078       9.029023027650714E-002  7.132871155193692E-002
  5.236719282736563E-002  3.340567410279633E-002  0.225303052901370     
  0.206341534176800       0.187380015452229       0.168418496727658     
  0.149456978003088       0.130495459278519       0.111533940553947     
  9.257242182937712E-002  7.361090310480838E-002  5.464938438023650E-002
  3.568786565566686E-002  0.227453999643166       0.208492480918596     
  0.189530962194025       0.170569443469454       0.151607924744884     
  0.132646406020314       0.113684887295744       9.472336857117318E-002
  7.576184984660209E-002  5.680033112203300E-002  3.783881239746305E-002
  0.229439779858857       0.210478261134286       0.191516742409716     
  0.172555223685145       0.153593704960576       0.134632186236005     
  0.115670667511434       9.670914878686421E-002  7.774763006229231E-002
  5.878611133772334E-002  3.982459261315310E-002  0.231229076608193     
  0.212267557883623       0.193306039159050       0.174344520434482     
  0.155383001709911       0.136421482985339       0.117459964260770     
  9.849844553619928E-002  7.953692681162935E-002  6.057540808705891E-002
  4.161388936248901E-002  0.232793671612562       0.213832152887991     
  0.194870634163422       0.175909115438851       0.156947596714281     
  0.137986077989710       0.119024559265140       0.100063040540570     
  8.110152181599878E-002  6.214000309142868E-002  4.317848436685833E-002
  0.234108890274104       0.215147371549533       0.196185852824962     
  0.177224334100392       0.158262815375822       0.139301296651251     
  0.120339777926681       0.101378259202109       8.241674047754141E-002
  6.345522175297041E-002  4.449370302839840E-002  0.235153990808851     
  0.216192472084279       0.197230953359709       0.178269434635138     
  0.159307915910568       0.140346397186000       0.121384878461429     
  0.102423359736858       8.346184101228755E-002  6.450032228771736E-002
  4.553880356314589E-002  0.235912491357057       0.216950972632485     
  0.197989453907917       0.179027935183345       0.160066416458775     
  0.141104897734204       0.122143379009636       0.103181860285065     
  8.422034156049392E-002  6.525882283592385E-002  4.629730411135220E-002
  0.236372429911971       0.217410911187401       0.198449392462830     
  0.179487873738261       0.160526355013689       0.141564836289120     
  0.122603317564550       0.103641798839979       8.468028011540873E-002
  6.571876139083901E-002  4.675724266626827E-002  0.236526552967829     
  0.217565034243259       0.198603515518689       0.179641996794118     
  0.160680478069549       0.141718959344979       0.122757440620408     
  0.103795921895836       8.483440317126630E-002  6.587288444669649E-002
  4.691136572212534E-002
 -0.182588745385254      -0.183367626282131      -0.184146507179008     
 -0.184925388075886      -0.185704268972762      -0.186483149869639     
 -0.187262030766517      -0.188040911663394      -0.188819792560271     
 -0.189598673457148      -0.190377554354025      -0.186340804552784     
 -0.187119685449661      -0.187898566346539      -0.188677447243416     
 -0.189456328140293      -0.190235209037170      -0.191014089934047     
 -0.191792970830924      -0.192571851727801      -0.193350732624678     
 -0.194129613521556      -0.197537809840932      -0.198316690737809     
 -0.199095571634686      -0.199874452531563      -0.200653333428440     
 -0.201432214325318      -0.202211095222195      -0.202989976119071     
 -0.203768857015949      -0.204547737912826      -0.205326618809703     
 -0.216003177787536      -0.216782058684413      -0.217560939581291     
 -0.218339820478168      -0.219118701375045      -0.219897582271922     
 -0.220676463168798      -0.221455344065676      -0.222234224962553     
 -0.223013105859430      -0.223791986756307      -0.241445698509403     
 -0.242224579406280      -0.243003460303157      -0.243782341200034     
 -0.244561222096911      -0.245340102993788      -0.246118983890666     
 -0.246897864787542      -0.247676745684419      -0.248455626581296     
 -0.249234507478174      -0.273464128256123      -0.274243009153000     
 -0.275021890049876      -0.275800770946754      -0.276579651843631     
 -0.277358532740508      -0.278137413637385      -0.278916294534262     
 -0.279695175431139      -0.280474056328016      -0.281252937224894     
 -0.311553517263707      -0.312332398160584      -0.313111279057461     
 -0.313890159954339      -0.314669040851216      -0.315447921748093     
 -0.316226802644969      -0.317005683541847      -0.317784564438724     
 -0.318563445335601      -0.319342326232477      -0.355113173114009     
 -0.355892054010886      -0.356670934907764      -0.357449815804641     
 -0.358228696701518      -0.359007577598395      -0.359786458495272     
 -0.360565339392149      -0.361344220289026      -0.362123101185903     
 -0.362901982082781      -0.403456134012991      -0.404235014909869     
 -0.405013895806746      -0.405792776703623      -0.406571657600500     
 -0.407350538497377      -0.408129419394254      -0.408908300291131     
 -0.409687181188009      -0.410466062084886      -0.411244942981763     
 -0.455820002588593      -0.456598883485469      -0.457377764382346     
 -0.458156645279224      -0.458935526176101      -0.459714407072978     
 -0.460493287969856      -0.461272168866732      -0.462051049763610     
 -0.462829930660487      -0.463608811557363      -0.511378969352717     
 -0.512157850249594      -0.512936731146471      -0.513715612043349     
 -0.514494492940225      -0.515273373837102      -0.516052254733979     
 -0.516831135630855      -0.517610016527734      -0.518388897424611     
 -0.519167778321487      -0.569256836210175      -0.570035717107053     
 -0.570814598003928      -0.571593478900806      -0.572372359797683     
 -0.573151240694561      -0.573930121591437      -0.574709002488315     
 -0.575487883385190      -0.576266764282068      -0.577045645178946     
 -0.628540834626062      -0.629319715522943      -0.630098596419818     
 -0.630877477316695      -0.631656358213571      -0.632435239110450     
 -0.633214120007328      -0.633993000904203      -0.634771881801080     
 -0.635550762697957      -0.636329643594835      -0.688296020530820     
 -0.689074901427698      -0.689853782324576      -0.690632663221452     
 -0.691411544118328      -0.692190425015206      -0.692969305912082     
 -0.693748186808961      -0.694527067705838      -0.695305948602715     
 -0.696084829499592      -0.747580018946710      -0.748358899843586     
 -0.749137780740463      -0.749916661637341      -0.750695542534217     
 -0.751474423431095      -0.752253304327971      -0.753032185224850     
 -0.753811066121727      -0.754589947018603      -0.755368827915481     
 -0.805457885804168      -0.806236766701045      -0.807015647597923     
 -0.807794528494801      -0.808573409391676      -0.809352290288552     
 -0.810131171185430      -0.810910052082309      -0.811688932979185     
 -0.812467813876061      -0.813246694772939      -0.861016852568292     
 -0.861795733465169      -0.862574614362045      -0.863353495258923     
 -0.864132376155800      -0.864911257052677      -0.865690137949554     
 -0.866469018846431      -0.867247899743308      -0.868026780640185     
 -0.868805661537063      -0.913380721143892      -0.914159602040770     
 -0.914938482937647      -0.915717363834525      -0.916496244731401     
 -0.917275125628279      -0.918054006525155      -0.918832887422032     
 -0.919611768318909      -0.920390649215788      -0.921169530112663     
 -0.961723682042874      -0.962502562939752      -0.963281443836630     
 -0.964060324733508      -0.964839205630383      -0.965618086527260     
 -0.966396967424138      -0.967175848321015      -0.967954729217892     
 -0.968733610114768      -0.969512491011645       -1.00528333789318     
  -1.00606221879005       -1.00684109968693       -1.00761998058381     
  -1.00839886148069       -1.00917774237756       -1.00995662327444     
  -1.01073550417132       -1.01151438506819       -1.01229326596507     
  -1.01307214686195       -1.04337272690076       -1.04415160779764     
  -1.04493048869452       -1.04570936959139       -1.04648825048827     
  -1.04726713138515       -1.04804601228202       -1.04882489317890     
  -1.04960377407578       -1.05038265497265       -1.05116153586953     
  -1.07539115664748       -1.07617003754436       -1.07694891844123     
  -1.07772779933811       -1.07850668023499       -1.07928556113187     
  -1.08006444202874       -1.08084332292562       -1.08162220382250     
  -1.08240108471938       -1.08317996561625       -1.10083367736935     
  -1.10161255826623       -1.10239143916310       -1.10317032005998     
  -1.10394920095686       -1.10472808185373       -1.10550696275061     
  -1.10628584364749       -1.10706472454436       -1.10784360544124     
  -1.10862248633812       -1.11929904531595       -1.12007792621283     
  -1.12085680710971       -1.12163568800658       -1.12241456890346     
  -1.12319344980034       -1.12397233069721       -1.12475121159409     
  -1.12553009249097       -1.12630897338785       -1.12708785428472     
  -1.13049605060410       -1.13127493150098       -1.13205381239785     
  -1.13283269329473       -1.13361157419161       -1.13439045508848     
  -1.13516933598536       -1.13594821688224       -1.13672709777911     
  -1.13750597867599       -1.13828485957287       -1.13424810977163     
  -1.13502699066851       -1.13580587156538       -1.13658475246226     
  -1.13736363335914       -1.13814251425602       -1.13892139515289     
  -1.13970027604977       -1.14047915694665       -1.14125803784352     
  -1.14203691874040     
  1.660316899342888E-002  1.494285209408599E-002  1.328253519474311E-002
  1.162221829540022E-002  9.961901396057328E-003  8.301584496714441E-003
  6.641267597371552E-003  4.980950698028665E-003  3.320633798685776E-003
  1.660316899342887E-003  0.000000000000000E+000  1.660316899342888E-002
  1.494285209408599E-002  1.328253519474311E-002  1.162221829540022E-002
  9.961901396057328E-003  8.301584496714441E-003  6.641267597371552E-003
  4.980950698028665E-003  3.320633798685776E-003  1.660316899342887E-003
  0.000000000000000E+000  1.660316899342888E-002  1.494285209408599E-002
  1.328253519474311E-002  1.162221829540022E-002  9.961901396057328E-003
  8.301584496714441E-003  6.641267597371552E-003  4.980950698028665E-003
  3.320633798685776E-003  1.660316899342887E-003  0.000000000000000E+000
  1.660316899342888E-002  1.494285209408599E-002  1.328253519474311E-002
  1.162221829540022E-002  9.961901396057328E-003  8.301584496714441E-003
  6.641267597371552E-003  4.980950698028665E-003  3.320633798685776E-003
  1.660316899342887E-003  0.000000000000000E+000  1.660316899342888E-002
  1.494285209408599E-002  1.328253519474311E-002  1.162221829540022E-002
  9.961901396057328E-003  8.301584496714441E-003  6.641267597371552E-003
  4.980950698028665E-003  3.320633798685776E-003  1.660316899342887E-003
  0.000000000000000E+000  1.660316899342888E-002  1.494285209408599E-002
  1.328253519474311E-002  1.162221829540022E-002  9.961901396057328E-003
  8.301584496714441E-003  6.641267597371552E-003  4.980950698028665E-003
  3.320633798685776E-003  1.660316899342887E-003  0.000000000000000E+000
  1.660316899342888E-002  1.494285209408599E-002  1.328253519474311E-002
  1.162221829540022E-002  9.961901396057328E-003  8.301584496714441E-003
  6.641267597371552E-003  4.980950698028665E-003  3.320633798685776E-003
  1.660316899342887E-003  0.000000000000000E+000  1.660316899342888E-002
  1.494285209408599E-002  1.328253519474311E-002  1.162221829540022E-002
  9.961901396057328E-003  8.301584496714441E-003  6.641267597371552E-003
  4.980950698028665E-003  3.320633798685776E-003  1.660316899342887E-003
  0.000000000000000E+000  1.660316899342888E-002  1.494285209408599E-002
  1.328253519474311E-002  1.162221829540022E-002  9.961901396057328E-003
  8.301584496714441E-003  6.641267597371552E-003  4.980950698028665E-003
  3.320633798685776E-003  1.660316899342887E-003  0.000000000000000E+000
  1.660316899342888E-002  1.494285209408599E-002  1.328253519474311E-002
  1.162221829540022E-002  9.961901396057328E-003  8.301584496714441E-003
  6.641267597371552E-003  4.980950698028665E-003  3.320633798685776E-003
  1.660316899342887E-003  0.000000000000000E+000  1.660316899342888E-002
  1.494285209408599E-002  1.328253519474311E-002  1.162221829540022E-002
  9.961901396057328E-003  8.301584496714441E-003  6.641267597371552E-003
  4.980950698028665E-003  3.320633798685776E-003  1.660316899342887E-003
  0.000000000000000E+000  1.660316899342888E-002  1.494285209408599E-002
  1.328253519474311E-002  1.162221829540022E-002  9.961901396057328E-003
  8.301584496714441E-003  6.641267597371552E-003  4.980950698028665E-003
  3.320633798685776E-003  1.660316899342887E-003  0.000000000000000E+000
  1.660316899342888E-002  1.494285209408599E-002  1.328253519474311E-002
  1.162221829540022E-002  9.961901396057328E-003  8.301584496714441E-003
  6.641267597371552E-003  4.980950698028665E-003  3.320633798685776E-003
  1.660316899342887E-003  0.000000000000000E+000  1.660316899342888E-002
  1.494285209408599E-002  1.328253519474311E-002  1.162221829540022E-002
  9.961901396057328E-003  8.301584496714441E-003  6.641267597371552E-003
  4.980950698028665E-003  3.320633798685776E-003  1.660316899342887E-003
  0.000000000000000E+000  1.660316899342888E-002  1.494285209408599E-002
  1.328253519474311E-002  1.162221829540022E-002  9.961901396057328E-003
  8.301584496714441E-003  6.641267597371552E-003  4.980950698028665E-003
  3.320633798685776E-003  1.660316899342887E-003  0.000000000000000E+000
  1.660316899342888E-002  1.494285209408599E-002  1.328253519474311E-002
  1.162221829540022E-002  9.961901396057328E-003  8.301584496714441E-003
  6.641267597371552E-003  4.980950698028665E-003  3.320633798685776E-003
  1.660316899342887E-003  0.000000000000000E+000  1.660316899342888E-002
  1.494285209408599E-002  1.328253519474311E-002  1.162221829540022E-002
  9.961901396057328E-003  8.301584496714441E-003  6.641267597371552E-003
  4.980950698028665E-003  3.320633798685776E-003  1.660316899342887E-003
  0.000000000000000E+000  1.660316899342888E-002  1.494285209408599E-002
  1.328253519474311E-002  1.162221829540022E-002  9.961901396057328E-003
  8.301584496714441E-003  6.641267597371552E-003  4.980950698028665E-003
  3.320633798685776E-003  1.660316899342887E-003  0.000000000000000E+000
  1.660316899342888E-002  1.494285209408599E-002  1.328253519474311E-002
  1.162221829540022E-002  9.961901396057328E-003  8.301584496714441E-003
  6.641267597371552E-003  4.980950698028665E-003  3.320633798685776E-003
  1.660316899342887E-003  0.000000000000000E+000  1.660316899342888E-002
  1.494285209408599E-002  1.328253519474311E-002  1.162221829540022E-002
  9.961901396057328E-003  8.301584496714441E-003  6.641267597371552E-003
  4.980950698028665E-003  3.320633798685776E-003  1.660316899342887E-003
  0.000000000000000E+000  1.660316899342888E-002  1.494285209408599E-002
  1.328253519474311E-002  1.162221829540022E-002  9.961901396057328E-003
  8.301584496714441E-003  6.641267597371552E-003  4.980950698028665E-003
  3.320633798685776E-003  1.660316899342887E-003  0.000000000000000E+000
  1.660316899342888E-002  1.494285209408599E-002  1.328253519474311E-002
  1.162221829540022E-002  9.961901396057328E-003  8.301584496714441E-003
  6.641267597371552E-003  4.980950698028665E-003  3.320633798685776E-003
  1.660316899342887E-003  0.000000000000000E+000  1.660316899342888E-002
  1.494285209408599E-002  1.328253519474311E-002  1.162221829540022E-002
  9.961901396057328E-003  8.301584496714441E-003  6.641267597371552E-003
  4.980950698028665E-003  3.320633798685776E-003  1.660316899342887E-003
  0.000000000000000E+000  1.660316899342888E-002  1.494285209408599E-002
  1.328253519474311E-002  1.162221829540022E-002  9.961901396057328E-003
  8.301584496714441E-003  6.641267597371552E-003  4.980950698028665E-003
  3.320633798685776E-003  1.660316899342887E-003  0.000000000000000E+000
  1.660316899342888E-002  1.494285209408599E-002  1.328253519474311E-002
  1.162221829540022E-002  9.961901396057328E-003  8.301584496714441E-003
  6.641267597371552E-003  4.980950698028665E-003  3.320633798685776E-003
  1.660316899342887E-003  0.000000000000000E+000  1.660316899342888E-002
  1.494285209408599E-002  1.328253519474311E-002  1.162221829540022E-002
  9.961901396057328E-003  8.301584496714441E-003  6.641267597371552E-003
  4.980950698028665E-003  3.320633798685776E-003  1.660316899342887E-003
  0.000000000000000E+000
  3.132881463299413E-002  6.417121736331453E-002  0.102666559553307     
  0.143490891516992       0.180711225372746       0.209800469910974     
  0.228929069182005       0.238699100288734       0.239720319959106     
  0.232994011552436       5.290137297114526E-002  0.107509589313699     
  0.170838914260380       0.237706286535542       0.299013324079738     
  0.347294649533889       0.379596150283028       0.396318258014326     
  0.398305281029991       0.387886485652659       7.183424580771462E-002
  0.143363430194038       0.224354102704637       0.309137762493745     
  0.387392058366244       0.450109912908988       0.493160233712445     
  0.515614371831020       0.518109648226142       0.502925527957892     
  8.455850423582975E-002  0.163810913664237       0.251099611339802     
  0.341740606506771       0.425520671324738       0.492913904508015     
  0.538560589510575       0.560863653215674       0.561300142669983     
  0.542113783226334       9.178955600821460E-002  0.169350358073083     
  0.252281799596110       0.337559609821664       0.415137100629765     
  0.475454188281380       0.514065128440008       0.530855919320422     
  0.527458043853741       0.507379983794804       9.628696826655041E-002
  0.165794732471218       0.233450087008441       0.299637454728092     
  0.359575997495278       0.406062219575558       0.435511939307348     
  0.449083502430643       0.448192523005849       0.435324382782005     
  0.100803496847432       0.162397930194109       0.214829952674853     
  0.261582578301085       0.303309161559564       0.337920232814079     
  0.362661802395050       0.377813440550522       0.384184084401191     
  0.382204392316615       0.113895993413121       0.176283512058995     
  0.225417075161803       0.266801430418462       0.302043929705410     
  0.331477812678837       0.355021100131445       0.372640418390472     
  0.384266923174526       0.389410113970258       0.139832190792063     
  0.211935001516555       0.266356003652206       0.310862176462959     
  0.348115924647940       0.379340983976823       0.405160425138853     
  0.425814542870573       0.441124628211971       0.450179559951399     
  0.175824556344193       0.263534870522716       0.328203836646575     
  0.380325815767866       0.423638133949186       0.459886910793115     
  0.489982587245793       0.514335403373755       0.532846946244576     
  0.544499380310065       0.219127314256664       0.326291313395983     
  0.404088643296194       0.466088777813150       0.517219272024401     
  0.559799981093167       0.595054873477178       0.623572624203967     
  0.645331438654951       0.659244976176955       0.267547757386199     
  0.396687584243872       0.489399890392529       0.562603286049450     
  0.622521365157800       0.672130494226604       0.713013757163833     
  0.745958306992878       0.771039359644722       0.787122915838341     
  0.319515451953528       0.472316038994619       0.581098855460709     
  0.666350726720845       0.735675260294645       0.792749220624471     
  0.839550411279435       0.877092133947657       0.905565933348126     
  0.923803196366916       0.373921163188243       0.551498204284068     
  0.677095269531182       0.774921672460425       0.854021318464295     
  0.918806433222567       0.971674989372352        1.01388876962463     
   1.04577085627998        1.06613192822354       0.430172024279129     
  0.633309889051627       0.776196667242920       0.886891217389043     
  0.975924524600918        1.04847732879816        1.10739891888181     
   1.15422435254687        1.18942946740536        1.21182821187964     
  0.488323571053151       0.717805598499782       0.878410220264575     
   1.00217013351567        1.10115689994139        1.18135789926741     
   1.24612324200371        1.29731289528656        1.33559961506900     
   1.35985240064942       0.549880818019095       0.807217710982988     
  0.986347811788152        1.12348543949132        1.23236974999233     
   1.31990017112867        1.39001945024285        1.44501542961842     
   1.48586581779288        1.51159904362146       0.624815870901132     
  0.914706461189540        1.11431497898246        1.26534783389007     
   1.38386274483745        1.47803003967201        1.55259797728691     
   1.61042922400881        1.65294898400402        1.67952495488901     
  0.754350198203928        1.08894682774199        1.31202297299799     
   1.47755161595881        1.60560446898183        1.70606021398121     
   1.78471651201527        1.84517602749328        1.88939438170228     
   1.91707162930725       0.943219256611660        1.33618609994238     
   1.58561896854460        1.76454112530574        1.89915417515711     
   2.00257588245712        2.08240361118485        2.14324260918244     
   2.18766085822663        2.21581421031342        1.03766731013281     
   1.45801450262738        1.71551907447822        1.89331128301122     
   2.02326475669617        2.12088507543271        2.19479805855384     
   2.25005624385417        2.28945554348926        2.31370906725617     
   1.00690662673871        1.40006300726501        1.63283864335168     
   1.78897748190233        1.90062788656358        1.98317657128391     
   2.04484106678134        2.09018436524784        2.12153453903231     
   2.13950192659692       0.883516272880610        1.20274593562295     
   1.38474273826052        1.50494570329346        1.59031065508886     
   1.65320656249521        1.70008103485854        1.73447151713356     
   1.75822784276367        1.77196642608481       0.679769067063832     
  0.896604930685264        1.01859137172506        1.09937345388185     
   1.15696194153311        1.19955052771374        1.23144056208149     
   1.25507189966625        1.27204064736284        1.28461058317324     
  0.414039274033857       0.535530142523680       0.604551579589814     
  0.650534576530700       0.683439578766607       0.707837032898859     
  0.726137641656232       0.739686466702019       0.749229189782380     
  0.755032141350500     
  0.000000000000000E+000  0.000000000000000E+000  0.000000000000000E+000
  0.000000000000000E+000  0.000000000000000E+000  0.000000000000000E+000
  0.000000000000000E+000  0.000000000000000E+000  0.000000000000000E+000
  0.000000000000000E+000  0.000000000000000E+000  0.000000000000000E+000
  0.000000000000000E+000  0.000000000000000E+000  0.000000000000000E+000
  0.000000000000000E+000  0.000000000000000E+000  0.000000000000000E+000
  0.000000000000000E+000  0.000000000000000E+000  0.000000000000000E+000
  0.000000000000000E+000  0.000000000000000E+000  0.000000000000000E+000
  0.000000000000000E+000  0.000000000000000E+000  0.000000000000000E+000
  0.000000000000000E+000  0.000000000000000E+000  0.000000000000000E+000
  0.000000000000000E+000  0.000000000000000E+000  0.000000000000000E+000
  0.000000000000000E+000  0.000000000000000E+000  0.000000000000000E+000
  0.000000000000000E+000  0.000000000000000E+000  0.000000000000000E+000
  0.000000000000000E+000  0.000000000000000E+000  0.000000000000000E+000
  0.000000000000000E+000  0.000000000000000E+000  0.000000000000000E+000
  0.000000000000000E+000  0.000000000000000E+000  0.000000000000000E+000
  0.000000000000000E+000  0.000000000000000E+000  0.000000000000000E+000
  0.000000000000000E+000  0.000000000000000E+000  0.000000000000000E+000
  0.000000000000000E+000  0.000000000000000E+000  0.000000000000000E+000
  0.000000000000000E+000  0.000000000000000E+000  0.000000000000000E+000
  0.000000000000000E+000  0.000000000000000E+000  0.000000000000000E+000
  0.000000000000000E+000  0.000000000000000E+000  0.000000000000000E+000
  0.000000000000000E+000  0.000000000000000E+000  0.000000000000000E+000
  0.000000000000000E+000  0.000000000000000E+000  0.000000000000000E+000
  0.000000000000000E+000  0.000000000000000E+000  0.000000000000000E+000
  0.000000000000000E+000  0.000000000000000E+000  0.000000000000000E+000
  0.000000000000000E+000  0.000000000000000E+000  0.000000000000000E+000
  0.000000000000000E+000  0.000000000000000E+000  0.000000000000000E+000
  0.000000000000000E+000  0.000000000000000E+000  0.000000000000000E+000
  0.000000000000000E+000  0.000000000000000E+000  0.000000000000000E+000
  0.000000000000000E+000  0.000000000000000E+000  0.000000000000000E+000
  0.000000000000000E+000  0.000000000000000E+000  0.000000000000000E+000
  0.000000000000000E+000  0.000000000000000E+000  0.000000000000000E+000
  0.000000000000000E+000  0.000000000000000E+000  0.000000000000000E+000
  0.000000000000000E+000  0.000000000000000E+000  0.000000000000000E+000
  0.000000000000000E+000  0.000000000000000E+000  0.000000000000000E+000
  0.000000000000000E+000  0.000000000000000E+000  0.000000000000000E+000
  0.000000000000000E+000  0.000000000000000E+000  0.000000000000000E+000
  0.000000000000000E+000  0.000000000000000E+000  0.000000000000000E+000