 Title = "Wing and Wake"
 VARIABLES = "X" "Y" "Z" "GAM" "skew"
 Zone I=   11 J=   26 K=1  T="Blade"
 DATAPACKING=BLOCK
 VARLOCATION=([4]=CELLCENTERED,[5]=CELLCENTERED)
  0.268716487447603       0.255860882281958       0.243005277116313     
  0.230149671950668       0.217294066785023       0.204438461619377     
  0.191582856453732       0.178727251288087       0.165871646122442     
  0.153016040956796       0.140160435791152       0.271478841706326     
  0.258623236540681       0.245767631375037       0.232912026209392     
  0.220056421043746       0.207200815878101       0.194345210712456     
  0.181489605546811       0.168634000381166       0.155778395215520     
  0.142922790049875       0.279722340505687       0.266866735340042     
  0.254011130174398       0.241155525008752       0.228299919843106     
  0.215444314677461       0.202588709511816       0.189733104346171     
  0.176877499180526       0.164021894014881       0.151166288849236     
  0.293316978945191       0.280461373779546       0.267605768613902     
  0.254750163448256       0.241894558282611       0.229038953116966     
  0.216183347951320       0.203327742785675       0.190472137620031     
  0.177616532454385       0.164760927288740       0.312048361455605     
  0.299192756289960       0.286337151124314       0.273481545958669     
  0.260625940793024       0.247770335627379       0.234914730461734     
  0.222059125296088       0.209203520130443       0.196347914964798     
  0.183492309799153       0.335621082945152       0.322765477779507     
  0.309909872613861       0.297054267448217       0.284198662282572     
  0.271343057116926       0.258487451951281       0.245631846785636     
  0.232776241619991       0.219920636454346       0.207065031288700     
  0.363663387514283       0.350807782348637       0.337952177182993     
  0.325096572017348       0.312240966851702       0.299385361686057     
  0.286529756520412       0.273674151354766       0.260818546189120     
  0.247962941023476       0.235107335857830       0.395733031268280     
  0.382877426102636       0.370021820936990       0.357166215771345     
  0.344310610605700       0.331455005440055       0.318599400274410     
  0.305743795108765       0.292888189943119       0.280032584777474     
  0.267176979611829       0.431324256767667       0.418468651602023     
  0.405613046436377       0.392757441270732       0.379901836105087     
  0.367046230939442       0.354190625773797       0.341335020608151     
  0.328479415442507       0.315623810276861       0.302768205111216     
  0.469875769125152       0.457020163959506       0.444164558793861     
  0.431308953628216       0.418453348462571       0.405597743296926     
  0.392742138131281       0.379886532965636       0.367030927799991     
  0.354175322634346       0.341319717468700       0.510779587961300     
  0.497923982795654       0.485068377630008       0.472212772464364     
  0.459357167298718       0.446501562133073       0.433645956967428     
  0.420790351801781       0.407934746636138       0.395079141470493     
  0.382223536304847       0.553390635618305       0.540535030452660     
  0.527679425287012       0.514823820121369       0.501968214955724     
  0.489112609790079       0.476257004624434       0.463401399458789     
  0.450545794293143       0.437690189127498       0.424834583961853     
  0.597036910420011       0.584181305254369       0.571325700088722     
  0.558470094923077       0.545614489757431       0.532758884591787     
  0.519903279426143       0.507047674260497       0.494192069094851     
  0.481336463929206       0.468480858763561       0.641030084539780     
  0.628174479374134       0.615318874208490       0.602463269042844     
  0.589607663877199       0.576752058711553       0.563896453545907     
  0.551040848380264       0.538185243214620       0.525329638048974     
  0.512474032883328       0.684676359341488       0.671820754175843     
  0.658965149010197       0.646109543844553       0.633253938678907     
  0.620398333513262       0.607542728347617       0.594687123181972     
  0.581831518016327       0.568975912850682       0.556120307685037     
  0.727287406998494       0.714431801832848       0.701576196667204     
  0.688720591501560       0.675864986335912       0.663009381170268     
  0.650153776004623       0.637298170838979       0.624442565673333     
  0.611586960507686       0.598731355342043       0.768191225834641     
  0.755335620668997       0.742480015503350       0.729624410337704     
  0.716768805172059       0.703913200006416       0.691057594840769     
  0.678201989675124       0.665346384509480       0.652490779343834     
  0.639635174178191       0.806742738192124       0.793887133026480     
  0.781031527860835       0.768175922695189       0.755320317529544     
  0.742464712363900       0.729609107198254       0.716753502032608     
  0.703897896866963       0.691042291701320       0.678186686535674     
  0.842333963691512       0.829478358525867       0.816622753360222     
  0.803767148194578       0.790911543028932       0.778055937863286     
  0.765200332697641       0.752344727531997       0.739489122366351     
  0.726633517200706       0.713777912035060       0.874403607445510     
  0.861548002279867       0.848692397114219       0.835836791948575     
  0.822981186782931       0.810125581617285       0.797269976451640     
  0.784414371285993       0.771558766120348       0.758703160954705     
  0.745847555789059       0.902445912014639       0.889590306848994     
  0.876734701683352       0.863879096517704       0.851023491352059     
  0.838167886186414       0.825312281020771       0.812456675855125     
  0.799601070689480       0.786745465523833       0.773889860358187     
  0.926018633504188       0.913163028338543       0.900307423172896     
  0.887451818007253       0.874596212841605       0.861740607675963     
  0.848885002510316       0.836029397344671       0.823173792179029     
  0.810318187013383       0.797462581847737       0.944750016014602     
  0.931894410848956       0.919038805683311       0.906183200517664     
  0.893327595352021       0.880471990186376       0.867616385020731     
  0.854760779855086       0.841905174689439       0.829049569523796     
  0.816193964358148       0.958344654454106       0.945489049288460     
  0.932633444122816       0.919777838957170       0.906922233791526     
  0.894066628625880       0.881211023460235       0.868355418294589     
  0.855499813128945       0.842644207963299       0.829788602797654     
  0.966588153253465       0.953732548087821       0.940876942922176     
  0.928021337756531       0.915165732590884       0.902310127425238     
  0.889454522259595       0.876598917093949       0.863743311928302     
  0.850887706762658       0.838032101597013       0.969350507512189     
  0.956494902346542       0.943639297180897       0.930783692015253     
  0.917928086849606       0.905072481683965       0.892216876518319     
  0.879361271352673       0.866505666187028       0.853650061021381     
  0.840794455855740     
  1.052623887276538E-002 -3.433677445707855E-003 -1.739359376418152E-002
 -3.135351008265538E-002 -4.531342640112911E-002 -5.927334271960297E-002
 -7.323325903807650E-002 -8.719317535655015E-002 -0.101153091675024     
 -0.115113007993497      -0.129072924311971       7.982403016758130E-003
 -5.977513301715412E-003 -1.993742962018865E-002 -3.389734593866233E-002
 -4.785726225713623E-002 -6.181717857560973E-002 -7.577709489408335E-002
 -8.973701121255692E-002 -0.103696927531031      -0.117656843849504     
 -0.131616760167978       3.910132598008155E-004 -1.356890305867276E-002
 -2.752881937714658E-002 -4.148873569562013E-002 -5.544865201409375E-002
 -6.940856833256751E-002 -8.336848465104142E-002 -9.732840096951464E-002
 -0.111288317287989      -0.125248233606462      -0.139208149924936     
 -1.212820964676461E-002 -2.608812596523764E-002 -4.004804228371188E-002
 -5.400795860218522E-002 -6.796787492065881E-002 -8.192779123913257E-002
 -9.588770755760649E-002 -0.109847623876080      -0.123807540194554     
 -0.137767456513027      -0.151727372831501      -2.937783007907901E-002
 -4.333774639755224E-002 -5.729766271602590E-002 -7.125757903450011E-002
 -8.521749535297350E-002 -9.917741167144720E-002 -0.113137327989921     
 -0.127097244308394      -0.141057160626868      -0.155017076945342     
 -0.168976993263815      -5.108581121850110E-002 -6.504572753697471E-002
 -7.900564385544794E-002 -9.296556017392210E-002 -0.106925476492396     
 -0.120885392810870      -0.134845309129343      -0.148805225447816     
 -0.162765141766290      -0.176725058084764      -0.190684974403238     
 -7.690980523474351E-002 -9.086972155321694E-002 -0.104829637871691     
 -0.118789554190165      -0.132749470508638      -0.146709386827112     
 -0.160669303145585      -0.174629219464060      -0.188589135782533     
 -0.202549052101006      -0.216508968419479      -0.106442552315663     
 -0.120402468634137      -0.134362384952611      -0.148322301271085     
 -0.162282217589558      -0.176242133908032      -0.190202050226506     
 -0.204161966544980      -0.218121882863453      -0.232081799181926     
 -0.246041715500401      -0.139218303397787      -0.153178219716261     
 -0.167138136034734      -0.181098052353208      -0.195057968671682     
 -0.209017884990155      -0.222977801308629      -0.236937717627102     
 -0.250897633945576      -0.264857550264051      -0.278817466582523     
 -0.174720165307264      -0.188680081625738      -0.202639997944211     
 -0.216599914262685      -0.230559830581159      -0.244519746899632     
 -0.258479663218107      -0.272439579536579      -0.286399495855054     
 -0.300359412173527      -0.314319328492001      -0.212388252473998     
 -0.226348168792472      -0.240308085110946      -0.254268001429420     
 -0.268227917747893      -0.282187834066367      -0.296147750384840     
 -0.310107666703314      -0.324067583021788      -0.338027499340262     
 -0.351987415658735      -0.251628516661544      -0.265588432980020     
 -0.279548349298492      -0.293508265616966      -0.307468181935440     
 -0.321428098253915      -0.335388014572388      -0.349347930890861     
 -0.363307847209334      -0.377267763527808      -0.391227679846281     
 -0.291822115462669      -0.305782031781145      -0.319741948099617     
 -0.333701864418092      -0.347661780736565      -0.361621697055039     
 -0.375581613373513      -0.389541529691987      -0.403501446010460     
 -0.417461362328932      -0.431421278647406      -0.332335171813787     
 -0.346295088132261      -0.360255004450735      -0.374214920769208     
 -0.388174837087681      -0.402134753406156      -0.416094669724629     
 -0.430054586043104      -0.444014502361577      -0.457974418680051     
 -0.471934334998524      -0.372528770614912      -0.386488686933386     
 -0.400448603251860      -0.414408519570333      -0.428368435888806     
 -0.442328352207280      -0.456288268525754      -0.470248184844229     
 -0.484208101162702      -0.498168017481175      -0.512127933799650     
 -0.411769034802461      -0.425728951120934      -0.439688867439408     
 -0.453648783757882      -0.467608700076354      -0.481568616394828     
 -0.495528532713301      -0.509488449031777      -0.523448365350250     
 -0.537408281668723      -0.551368197987197      -0.449437121969193     
 -0.463397038287667      -0.477356954606141      -0.491316870924615     
 -0.505276787243089      -0.519236703561562      -0.533196619880037     
 -0.547156536198509      -0.561116452516983      -0.575076368835457     
 -0.589036285153931      -0.484938983878671      -0.498898900197144     
 -0.512858816515619      -0.526818732834092      -0.540778649152566     
 -0.554738565471040      -0.568698481789513      -0.582658398107987     
 -0.596618314426461      -0.610578230744935      -0.624538147063407     
 -0.517714734960793      -0.531674651279268      -0.545634567597742     
 -0.559594483916217      -0.573554400234688      -0.587514316553162     
 -0.601474232871636      -0.615434149190110      -0.629394065508585     
 -0.643353981827057      -0.657313898145530      -0.547247482041714     
 -0.561207398360189      -0.575167314678661      -0.589127230997135     
 -0.603087147315609      -0.617047063634083      -0.631006979952557     
 -0.644966896271031      -0.658926812589502      -0.672886728907978     
 -0.686846645226450      -0.573071476057954      -0.587031392376431     
 -0.600991308694905      -0.614951225013376      -0.628911141331851     
 -0.642871057650324      -0.656830973968799      -0.670790890287273     
 -0.684750806605747      -0.698710722924219      -0.712670639242692     
 -0.594779457197378      -0.608739373515852      -0.622699289834327     
 -0.636659206152800      -0.650619122471272      -0.664579038789749     
 -0.678538955108220      -0.692498871426695      -0.706458787745168     
 -0.720418704063643      -0.734378620382118      -0.612029077629693     
 -0.625988993948167      -0.639948910266640      -0.653908826585114     
 -0.667868742903589      -0.681828659222061      -0.695788575540534     
 -0.709748491859009      -0.723708408177482      -0.737668324495957     
 -0.751628240814429      -0.624548300536259      -0.638508216854733     
 -0.652468133173206      -0.666428049491681      -0.680387965810154     
 -0.694347882128631      -0.708307798447098      -0.722267714765573     
 -0.736227631084049      -0.750187547402520      -0.764147463720996     
 -0.632139690293216      -0.646099606611690      -0.660059522930167     
 -0.674019439248638      -0.687979355567111      -0.701939271885582     
 -0.715899188204059      -0.729859104522532      -0.743819020841004     
 -0.757778937159478      -0.771738853477952      -0.634683526149223     
 -0.648643442467696      -0.662603358786170      -0.676563275104644     
 -0.690523191423116      -0.704483107741591      -0.718443024060065     
 -0.732402940378541      -0.746362856697013      -0.760322773015484     
 -0.774282689333962     
  1.660316899342888E-002  1.494285209408599E-002  1.328253519474311E-002
  1.162221829540022E-002  9.961901396057328E-003  8.301584496714441E-003
  6.641267597371552E-003  4.980950698028665E-003  3.320633798685776E-003
  1.660316899342887E-003  0.000000000000000E+000  1.660316899342888E-002
  1.494285209408599E-002  1.328253519474311E-002  1.162221829540022E-002
  9.961901396057328E-003  8.301584496714441E-003  6.641267597371552E-003
  4.980950698028665E-003  3.320633798685776E-003  1.660316899342887E-003
  0.000000000000000E+000  1.660316899342888E-002  1.494285209408599E-002
  1.328253519474311E-002  1.162221829540022E-002  9.961901396057328E-003
  8.301584496714441E-003  6.641267597371552E-003  4.980950698028665E-003
  3.320633798685776E-003  1.660316899342887E-003  0.000000000000000E+000
  1.660316899342888E-002  1.494285209408599E-002  1.328253519474311E-002
  1.162221829540022E-002  9.961901396057328E-003  8.301584496714441E-003
  6.641267597371552E-003  4.980950698028665E-003  3.320633798685776E-003
  1.660316899342887E-003  0.000000000000000E+000  1.660316899342888E-002
  1.494285209408599E-002  1.328253519474311E-002  1.162221829540022E-002
  9.961901396057328E-003  8.301584496714441E-003  6.641267597371552E-003
  4.980950698028665E-003  3.320633798685776E-003  1.660316899342887E-003
  0.000000000000000E+000  1.660316899342888E-002  1.494285209408599E-002
  1.328253519474311E-002  1.162221829540022E-002  9.961901396057328E-003
  8.301584496714441E-003  6.641267597371552E-003  4.980950698028665E-003
  3.320633798685776E-003  1.660316899342887E-003  0.000000000000000E+000
  1.660316899342888E-002  1.494285209408599E-002  1.328253519474311E-002
  1.162221829540022E-002  9.961901396057328E-003  8.301584496714441E-003
  6.641267597371552E-003  4.980950698028665E-003  3.320633798685776E-003
  1.660316899342887E-003  0.000000000000000E+000  1.660316899342888E-002
  1.494285209408599E-002  1.328253519474311E-002  1.162221829540022E-002
  9.961901396057328E-003  8.301584496714441E-003  6.641267597371552E-003
  4.980950698028665E-003  3.320633798685776E-003  1.660316899342887E-003
  0.000000000000000E+000  1.660316899342888E-002  1.494285209408599E-002
  1.328253519474311E-002  1.162221829540022E-002  9.961901396057328E-003
  8.301584496714441E-003  6.641267597371552E-003  4.980950698028665E-003
  3.320633798685776E-003  1.660316899342887E-003  0.000000000000000E+000
  1.660316899342888E-002  1.494285209408599E-002  1.328253519474311E-002
  1.162221829540022E-002  9.961901396057328E-003  8.301584496714441E-003
  6.641267597371552E-003  4.980950698028665E-003  3.320633798685776E-003
  1.660316899342887E-003  0.000000000000000E+000  1.660316899342888E-002
  1.494285209408599E-002  1.328253519474311E-002  1.162221829540022E-002
  9.961901396057328E-003  8.301584496714441E-003  6.641267597371552E-003
  4.980950698028665E-003  3.320633798685776E-003  1.660316899342887E-003
  0.000000000000000E+000  1.660316899342888E-002  1.494285209408599E-002
  1.328253519474311E-002  1.162221829540022E-002  9.961901396057328E-003
  8.301584496714441E-003  6.641267597371552E-003  4.980950698028665E-003
  3.320633798685776E-003  1.660316899342887E-003  0.000000000000000E+000
  1.660316899342888E-002  1.494285209408599E-002  1.328253519474311E-002
  1.162221829540022E-002  9.961901396057328E-003  8.301584496714441E-003
  6.641267597371552E-003  4.980950698028665E-003  3.320633798685776E-003
  1.660316899342887E-003  0.000000000000000E+000  1.660316899342888E-002
  1.494285209408599E-002  1.328253519474311E-002  1.162221829540022E-002
  9.961901396057328E-003  8.301584496714441E-003  6.641267597371552E-003
  4.980950698028665E-003  3.320633798685776E-003  1.660316899342887E-003
  0.000000000000000E+000  1.660316899342888E-002  1.494285209408599E-002
  1.328253519474311E-002  1.162221829540022E-002  9.961901396057328E-003
  8.301584496714441E-003  6.641267597371552E-003  4.980950698028665E-003
  3.320633798685776E-003  1.660316899342887E-003  0.000000000000000E+000
  1.660316899342888E-002  1.494285209408599E-002  1.328253519474311E-002
  1.162221829540022E-002  9.961901396057328E-003  8.301584496714441E-003
  6.641267597371552E-003  4.980950698028665E-003  3.320633798685776E-003
  1.660316899342887E-003  0.000000000000000E+000  1.660316899342888E-002
  1.494285209408599E-002  1.328253519474311E-002  1.162221829540022E-002
  9.961901396057328E-003  8.301584496714441E-003  6.641267597371552E-003
  4.980950698028665E-003  3.320633798685776E-003  1.660316899342887E-003
  0.000000000000000E+000  1.660316899342888E-002  1.494285209408599E-002
  1.328253519474311E-002  1.162221829540022E-002  9.961901396057328E-003
  8.301584496714441E-003  6.641267597371552E-003  4.980950698028665E-003
  3.320633798685776E-003  1.660316899342887E-003  0.000000000000000E+000
  1.660316899342888E-002  1.494285209408599E-002  1.328253519474311E-002
  1.162221829540022E-002  9.961901396057328E-003  8.301584496714441E-003
  6.641267597371552E-003  4.980950698028665E-003  3.320633798685776E-003
  1.660316899342887E-003  0.000000000000000E+000  1.660316899342888E-002
  1.494285209408599E-002  1.328253519474311E-002  1.162221829540022E-002
  9.961901396057328E-003  8.301584496714441E-003  6.641267597371552E-003
  4.980950698028665E-003  3.320633798685776E-003  1.660316899342887E-003
  0.000000000000000E+000  1.660316899342888E-002  1.494285209408599E-002
  1.328253519474311E-002  1.162221829540022E-002  9.961901396057328E-003
  8.301584496714441E-003  6.641267597371552E-003  4.980950698028665E-003
  3.320633798685776E-003  1.660316899342887E-003  0.000000000000000E+000
  1.660316899342888E-002  1.494285209408599E-002  1.328253519474311E-002
  1.162221829540022E-002  9.961901396057328E-003  8.301584496714441E-003
  6.641267597371552E-003  4.980950698028665E-003  3.320633798685776E-003
  1.660316899342887E-003  0.000000000000000E+000  1.660316899342888E-002
  1.494285209408599E-002  1.328253519474311E-002  1.162221829540022E-002
  9.961901396057328E-003  8.301584496714441E-003  6.641267597371552E-003
  4.980950698028665E-003  3.320633798685776E-003  1.660316899342887E-003
  0.000000000000000E+000  1.660316899342888E-002  1.494285209408599E-002
  1.328253519474311E-002  1.162221829540022E-002  9.961901396057328E-003
  8.301584496714441E-003  6.641267597371552E-003  4.980950698028665E-003
  3.320633798685776E-003  1.660316899342887E-003  0.000000000000000E+000
  1.660316899342888E-002  1.494285209408599E-002  1.328253519474311E-002
  1.162221829540022E-002  9.961901396057328E-003  8.301584496714441E-003
  6.641267597371552E-003  4.980950698028665E-003  3.320633798685776E-003
  1.660316899342887E-003  0.000000000000000E+000  1.660316899342888E-002
  1.494285209408599E-002  1.328253519474311E-002  1.162221829540022E-002
  9.961901396057328E-003  8.301584496714441E-003  6.641267597371552E-003
  4.980950698028665E-003  3.320633798685776E-003  1.660316899342887E-003
  0.000000000000000E+000
  3.112304258772623E-002  5.922171012074952E-002  9.122974878024173E-002
  0.127519498226844       0.164396349138189       0.196952482723350     
  0.221761943041760       0.237645426811096       0.246579671941456     
  0.251542978357468       5.335063743522948E-002  0.100881284130450     
  0.154346993351268       0.214197057780485       0.274778520005267     
  0.328530708242600       0.370311006961857       0.397967577894247     
  0.414053750538562       0.424251704932598       7.599619136443306E-002
  0.141085363449650       0.212099722390213       0.289314135167547     
  0.366894840494384       0.437090672441365       0.493777684607467     
  0.533438257736308       0.557485197789074       0.572371042742751     
  9.687381659007457E-002  0.174266715324406       0.254871554591953     
  0.340241892209675       0.426619582865837       0.506521779211068     
  0.571988580208401       0.619122329314271       0.649156189469678     
  0.667266708559255       0.114495996643791       0.198646770977177     
  0.282039890021645       0.368733393776164       0.457286635866467     
  0.539493789982690       0.606280122193023       0.655582115811451     
  0.689362186774581       0.708792825752979       0.129474575734738     
  0.217449729220837       0.300507132392836       0.383483998556367     
  0.465422865744418       0.541339455768769       0.605245459801914     
  0.653036981569047       0.683744961488733       0.696432127535365     
  0.144472501537861       0.234830895916157       0.314492793463623     
  0.388978793264840       0.458385018285454       0.521248926562279     
  0.572567088021212       0.608311004548376       0.625973695238448     
  0.625259624157367       0.159691760905929       0.251099254725018     
  0.325694539021460       0.390128122969728       0.445613131969536     
  0.491464419648326       0.525826783048295       0.546286771744780     
  0.551467898547807       0.542088003591695       0.178917920719755     
  0.273866819313771       0.346569537376490       0.405827164757595     
  0.453995423286288       0.491603408308289       0.518426930751974     
  0.533879125177423       0.537535673363304       0.529994603151826     
  0.204623996230815       0.308157517021887       0.384653338484257     
  0.445523897402913       0.494489986462836       0.533041202379094     
  0.561766200762552       0.580791976699699       0.589982541217048     
  0.589088705622415       0.238594255510191       0.356085965634411     
  0.441336514116187       0.508611816444996       0.562895377741610     
  0.606390966135600       0.640136048824879       0.664536714472831     
  0.679480924610850       0.684205900683144       0.280181358119409     
  0.415763521812810       0.512929292947636       0.589089128873031     
  0.650514590728649       0.700107439275811       0.739336995004015     
  0.768869595415366       0.788680453332667       0.797777302681905     
  0.327183413568817       0.483683525539962       0.594834317075053     
  0.681428656358345       0.751093670275260       0.807456709004429     
  0.852427103252127       0.886940202610512       0.911105530944133     
  0.923834053403363       0.377829465950846       0.557132043584740     
  0.683640540520760       0.781706731488592       0.860370311592370     
  0.924002908467965       0.974954000540145        1.01443009531205     
   1.04269144232105        1.05861010704597       0.431005493996976     
  0.634356793798817       0.777098524094151       0.887275420690232     
  0.975375175282032        1.04653139197657        1.10354891867639     
   1.14791749714045        1.18006549899992        1.19886057197674     
  0.486382504934405       0.714814236135920       0.874456288491608     
  0.997160259109983        1.09489990267689        1.17359566848030     
   1.23654744089354        1.28557271418765        1.32130528348806     
   1.34265973712071       0.545101276714642       0.800251085858031     
  0.977779957663652        1.11350787851205        1.22099503485994     
   1.30703750164182        1.37551287560425        1.42866416587825     
   1.46743481620888        1.49089174166161       0.616832508711061     
  0.903586637589441        1.10123471466497        1.25076959538601     
   1.36795109411049        1.46079790991586        1.53397733465183     
   1.59030684742101        1.63118709504181        1.65602596192802     
  0.746068019922602        1.07737344260891        1.29856840213385     
   1.46287560540874        1.58992903991517        1.68939878898818     
   1.76699868577316        1.82630158435407        1.86925700549747     
   1.89560796074323       0.945598253870727        1.33824178558416     
   1.58713869694713        1.76565353398483        1.89973162925565     
   2.00252217053382        2.08162488675385        2.14165368440264     
   2.18518895702056        2.21241141572694        1.05024480254902     
   1.47383586276405        1.73256978327801        1.91098063451522     
   2.04117671839060        2.13872777907931        2.21233715681175     
   2.26712549493140        2.30593638300092        2.32952380586228     
   1.02273372252523        1.42080354787652        1.65578882567352     
   1.81302602634972        1.92518727373900        2.00786987670016     
   2.06940973407870        2.11444515373733        2.14534879138891     
   2.16276681890625       0.898257520143656        1.22205097911465     
   1.40615127983482        1.52742419214409        1.61332164713289     
   1.67642396305679        1.72328709971940        1.75750967150740     
   1.78097341214456        1.79431491477941       0.691256517956660     
  0.911301223202410        1.03477683232528        1.11633271864824     
   1.17431815619798        1.21707491450117        1.24898091507990     
   1.27251894922927        1.28930979509046        1.30164903165832     
  0.421051115442320       0.544346978107959       0.614219016854781     
  0.660649240202532       0.693786391512163       0.718284569773697     
  0.736598029493737       0.750095940932927       0.759536175802895     
  0.765190524181217     
  0.000000000000000E+000  0.000000000000000E+000  0.000000000000000E+000
  0.000000000000000E+000  0.000000000000000E+000  0.000000000000000E+000
  0.000000000000000E+000  0.000000000000000E+000  0.000000000000000E+000
  0.000000000000000E+000  0.000000000000000E+000  0.000000000000000E+000
  0.000000000000000E+000  0.000000000000000E+000  0.000000000000000E+000
  0.000000000000000E+000  0.000000000000000E+000  0.000000000000000E+000
  0.000000000000000E+000  0.000000000000000E+000  0.000000000000000E+000
  0.000000000000000E+000  0.000000000000000E+000  0.000000000000000E+000
  0.000000000000000E+000  0.000000000000000E+000  0.000000000000000E+000
  0.000000000000000E+000  0.000000000000000E+000  0.000000000000000E+000
  0.000000000000000E+000  0.000000000000000E+000  0.000000000000000E+000
  0.000000000000000E+000  0.000000000000000E+000  0.000000000000000E+000
  0.000000000000000E+000  0.000000000000000E+000  0.000000000000000E+000
  0.000000000000000E+000  0.000000000000000E+000  0.000000000000000E+000
  0.000000000000000E+000  0.000000000000000E+000  0.000000000000000E+000
  0.000000000000000E+000  0.000000000000000E+000  0.000000000000000E+000
  0.000000000000000E+000  0.000000000000000E+000  0.000000000000000E+000
  0.000000000000000E+000  0.000000000000000E+000  0.000000000000000E+000
  0.000000000000000E+000  0.000000000000000E+000  0.000000000000000E+000
  0.000000000000000E+000  0.000000000000000E+000  0.000000000000000E+000
  0.000000000000000E+000  0.000000000000000E+000  0.000000000000000E+000
  0.000000000000000E+000  0.000000000000000E+000  0.000000000000000E+000
  0.000000000000000E+000  0.000000000000000E+000  0.000000000000000E+000
  0.000000000000000E+000  0.000000000000000E+000  0.000000000000000E+000
  0.000000000000000E+000  0.000000000000000E+000  0.000000000000000E+000
  0.000000000000000E+000  0.000000000000000E+000  0.000000000000000E+000
  0.000000000000000E+000  0.000000000000000E+000  0.000000000000000E+000
  0.000000000000000E+000  0.000000000000000E+000  0.000000000000000E+000
  0.000000000000000E+000  0.000000000000000E+000  0.000000000000000E+000
  0.000000000000000E+000  0.000000000000000E+000  0.000000000000000E+000
  0.000000000000000E+000  0.000000000000000E+000  0.000000000000000E+000
  0.000000000000000E+000  0.000000000000000E+000  0.000000000000000E+000
  0.000000000000000E+000  0.000000000000000E+000  0.000000000000000E+000
  0.000000000000000E+000  0.000000000000000E+000  0.000000000000000E+000
  0.000000000000000E+000  0.000000000000000E+000  0.000000000000000E+000
  0.000000000000000E+000  0.000000000000000E+000  0.000000000000000E+000
  0.000000000000000E+000  0.000000000000000E+000  0.000000000000000E+000
  0.000000000000000E+000  0.000000000000000E+000  0.000000000000000E+000
  0.000000000000000E+000  0.000000000000000E+000  0.000000000000000E+000