 Title = "Wing and Wake"
 VARIABLES = "X" "Y" "Z" "GAM" "skew"
 Zone I=   11 J=   26 K=1  T="Blade"
 DATAPACKING=BLOCK
 VARLOCATION=([4]=CELLCENTERED,[5]=CELLCENTERED)
  9.310396920223901E-002  0.101081923490199       0.109059877778159     
  0.117037832066120       0.125015786354080       0.132993740642040     
  0.140971694930000       0.148949649217960       0.156927603505921     
  0.164905557793881       0.172883512081841       9.651124674933521E-002
  0.104489201037295       0.112467155325255       0.120445109613216     
  0.128423063901176       0.136401018189136       0.144378972477096     
  0.152356926765056       0.160334881053017       0.168312835340977     
  0.176290789628937       0.106679344588296       0.114657298876256     
  0.122635253164217       0.130613207452177       0.138591161740137     
  0.146569116028097       0.154547070316058       0.162525024604018     
  0.170502978891978       0.178480933179939       0.186458887467899     
  0.123447905742076       0.131425860030035       0.139403814317996     
  0.147381768605956       0.155359722893916       0.163337677181877     
  0.171315631469837       0.179293585757797       0.187271540045757     
  0.195249494333718       0.203227448621677       0.146552479984225     
  0.154530434272185       0.162508388560144       0.170486342848105     
  0.178464297136065       0.186442251424026       0.194420205711986     
  0.202398159999946       0.210376114287906       0.218354068575866     
  0.226332022863827       0.175628694376941       0.183606648664901     
  0.191584602952860       0.199562557240821       0.207540511528782     
  0.215518465816742       0.223496420104702       0.231474374392662     
  0.239452328680623       0.247430282968583       0.255408237256543     
  0.210217999649963       0.218195953937923       0.226173908225883     
  0.234151862513844       0.242129816801804       0.250107771089764     
  0.258085725377724       0.266063679665685       0.274041633953644     
  0.282019588241605       0.289997542529564       0.249774901796485     
  0.257752856084446       0.265730810372406       0.273708764660366     
  0.281686718948327       0.289664673236287       0.297642627524248     
  0.305620581812208       0.313598536100168       0.321576490388128     
  0.329554444676088       0.293675564839511       0.301653519127471     
  0.309631473415431       0.317609427703391       0.325587381991352     
  0.333565336279311       0.341543290567272       0.349521244855231     
  0.357499199143193       0.365477153431153       0.373455107719113     
  0.341227649097864       0.349205603385824       0.357183557673784     
  0.365161511961745       0.373139466249705       0.381117420537665     
  0.389095374825626       0.397073329113585       0.405051283401547     
  0.413029237689506       0.421007191977466       0.391681229796554     
  0.399659184084514       0.407637138372475       0.415615092660436     
  0.423593046948395       0.431571001236355       0.439548955524315     
  0.447526909812275       0.455504864100237       0.463482818388197     
  0.471460772676156       0.444240623828453       0.452218578116415     
  0.460196532404373       0.468174486692334       0.476152440980295     
  0.484130395268256       0.492108349556215       0.500086303844175     
  0.508064258132135       0.516042212420095       0.524020166708056     
  0.498076938152218       0.506054892440182       0.514032846728140     
  0.522010801016101       0.529988755304060       0.537966709592022     
  0.545944663879982       0.553922618167942       0.561900572455902     
  0.569878526743861       0.577856481031822       0.552341141930711     
  0.560319096218672       0.568297050506633       0.576275004794592     
  0.584252959082552       0.592230913370513       0.600208867658472     
  0.608186821946434       0.616164776234394       0.624142730522355     
  0.632120684810314       0.606177456254478       0.614155410542438     
  0.622133364830398       0.630111319118359       0.638089273406318     
  0.646067227694279       0.654045181982239       0.662023136270200     
  0.670001090558161       0.677979044846119       0.685956999134081     
  0.658736850286379       0.666714804574338       0.674692758862299     
  0.682670713150260       0.690648667438218       0.698626621726179     
  0.706604576014138       0.714582530302101       0.722560484590060     
  0.730538438878019       0.738516393165981       0.709190430985067     
  0.717168385273028       0.725146339560987       0.733124293848948     
  0.741102248136909       0.749080202424869       0.757058156712829     
  0.765036111000789       0.773014065288750       0.780992019576709     
  0.788969973864671       0.756742515243421       0.764720469531381     
  0.772698423819342       0.780676378107302       0.788654332395262     
  0.796632286683223       0.804610240971183       0.812588195259142     
  0.820566149547103       0.828544103835065       0.836522058123023     
  0.800643178286444       0.808621132574406       0.816599086862367     
  0.824577041150329       0.832554995438286       0.840532949726246     
  0.848510904014207       0.856488858302168       0.864466812590129     
  0.872444766878088       0.880422721166048       0.840200080432968     
  0.848178034720932       0.856155989008888       0.864133943296850     
  0.872111897584811       0.880089851872771       0.888067806160731     
  0.896045760448691       0.904023714736649       0.912001669024612     
  0.919979623312570       0.874789385705988       0.882767339993951     
  0.890745294281913       0.898723248569870       0.906701202857831     
  0.914679157145791       0.922657111433753       0.930635065721713     
  0.938613020009674       0.946590974297631       0.954568928585592     
  0.903865600098707       0.911843554386667       0.919821508674627     
  0.927799462962588       0.935777417250545       0.943755371538511     
  0.951733325826468       0.959711280114429       0.967689234402390     
  0.975667188690351       0.983645142978312       0.926970174340856     
  0.934948128628817       0.942926082916776       0.950904037204736     
  0.958881991492697       0.966859945780657       0.974837900068616     
  0.982815854356578       0.990793808644537       0.998771762932500     
   1.00674971722046       0.943738735494636       0.951716689782596     
  0.959694644070556       0.967672598358517       0.975650552646478     
  0.983628506934440       0.991606461222395       0.999584415510356     
   1.00756236979832        1.01554032408628        1.02351827837424     
  0.953906833333595       0.961884787621557       0.969862741909520     
  0.977840696197477       0.985818650485437       0.993796604773395     
   1.00177455906136        1.00975251334932        1.01773046763728     
   1.02570842192524        1.03368637621320       0.957314110880693     
  0.965292065168651       0.973270019456611       0.981247973744573     
  0.989225928032531       0.997203882320494        1.00518183660845     
   1.01315979089642        1.02113774518437        1.02911569947233     
   1.03709365376030     
  0.252291504513673       0.235072384525330       0.217853264536987     
  0.200634144548644       0.183415024560300       0.166195904571956     
  0.148976784583613       0.131757664595270       0.114538544606926     
  9.731942461858251E-002  8.010030463023961E-002  0.253870162687582     
  0.236651042699239       0.219431922710896       0.202212802722553     
  0.184993682734209       0.167774562745866       0.150555442757522     
  0.133336322769179       0.116117202780836       9.889808279249220E-002
  8.167896280414905E-002  0.258581240826864       0.241362120838521     
  0.224143000850178       0.206923880861833       0.189704760873490     
  0.172485640885147       0.155266520896803       0.138047400908460     
  0.120828280920117       0.103609160931773       8.639004094342997E-002
  0.266350442414998       0.249131322426655       0.231912202438312     
  0.214693082449968       0.197473962461625       0.180254842473281     
  0.163035722484937       0.145816602496595       0.128597482508252     
  0.111378362519908       9.415924253156456E-002  0.277055242501846     
  0.259836122513502       0.242617002525158       0.225397882536815     
  0.208178762548472       0.190959642560128       0.173740522571785     
  0.156521402583441       0.139302282595098       0.122083162606755     
  0.104864042618412       0.290526819995298       0.273307700006955     
  0.256088580018610       0.238869460030268       0.221650340041924     
  0.204431220053581       0.187212100065237       0.169992980076894     
  0.152773860088551       0.135554740100207       0.118335620111864     
  0.306552720070753       0.289333600082410       0.272114480094067     
  0.254895360105724       0.237676240117380       0.220457120129036     
  0.203238000140693       0.186018880152349       0.168799760164005     
  0.151580640175663       0.134361520187319       0.324880204710614     
  0.307661084722271       0.290441964733927       0.273222844745584     
  0.256003724757240       0.238784604768897       0.221565484780554     
  0.204346364792211       0.187127244803867       0.169908124815523     
  0.152689004827180       0.345220238533799       0.328001118545456     
  0.310781998557112       0.293562878568769       0.276343758580426     
  0.259124638592082       0.241905518603739       0.224686398615395     
  0.207467278627053       0.190248158638709       0.173029038650366     
  0.367252047056372       0.350032927068027       0.332813807079685     
  0.315594687091341       0.298375567102998       0.281156447114655     
  0.263937327126312       0.246718207137968       0.229499087149624     
  0.212279967161282       0.195060847172938       0.390628175496766     
  0.373409055508422       0.356189935520078       0.338970815531736     
  0.321751695543391       0.304532575555048       0.287313455566706     
  0.270094335578360       0.252875215590019       0.235656095601675     
  0.218436975613331       0.414979968345253       0.397760848356909     
  0.380541728368564       0.363322608380223       0.346103488391879     
  0.328884368403535       0.311665248415192       0.294446128426849     
  0.277227008438505       0.260007888450162       0.242788768461819     
  0.439923383281556       0.422704263293214       0.405485143304870     
  0.388266023316527       0.371046903328182       0.353827783339841     
  0.336608663351498       0.319389543363154       0.302170423374810     
  0.284951303386467       0.267732183398124       0.465065047751660     
  0.447845927763316       0.430626807774973       0.413407687786630     
  0.396188567798286       0.378969447809942       0.361750327821598     
  0.344531207833257       0.327312087844914       0.310092967856569     
  0.292873847868226       0.490008462687965       0.472789342699621     
  0.455570222711278       0.438351102722935       0.421131982734591     
  0.403912862746247       0.386693742757904       0.369474622769561     
  0.352255502781217       0.335036382792874       0.317817262804531     
  0.514360255536451       0.497141135548108       0.479922015559765     
  0.462702895571422       0.445483775583077       0.428264655594734     
  0.411045535606392       0.393826415618049       0.376607295629705     
  0.359388175641360       0.342169055653019       0.537736383976845     
  0.520517263988503       0.503298144000158       0.486079024011814     
  0.468859904023471       0.451640784035129       0.434421664046784     
  0.417202544058441       0.399983424070099       0.382764304081755     
  0.365545184093413       0.559768192499417       0.542549072511075     
  0.525329952522730       0.508110832534387       0.490891712546044     
  0.473672592557701       0.456453472569357       0.439234352581013     
  0.422015232592669       0.404796112604328       0.387576992615984     
  0.580108226322603       0.562889106334259       0.545669986345916     
  0.528450866357574       0.511231746369231       0.494012626380887     
  0.476793506392542       0.459574386404200       0.442355266415855     
  0.425136146427513       0.407917026439169       0.598435710962464     
  0.581216590974122       0.563997470985776       0.546778350997434     
  0.529559231009092       0.512340111020747       0.495120991032404     
  0.477901871044059       0.460682751055716       0.443463631067374     
  0.426244511079031       0.614461611037919       0.597242491049574     
  0.580023371061234       0.562804251072889       0.545585131084545     
  0.528366011096203       0.511146891107860       0.493927771119516     
  0.476708651131173       0.459489531142828       0.442270411154485     
  0.627933188531372       0.610714068543029       0.593494948554683     
  0.576275828566341       0.559056708577997       0.541837588589655     
  0.524618468601311       0.507399348612967       0.490180228624626     
  0.472961108636282       0.455741988647938       0.638637988618220     
  0.621418868629875       0.604199748641532       0.586980628653187     
  0.569761508664845       0.552542388676503       0.535323268688159     
  0.518104148699816       0.500885028711472       0.483665908723129     
  0.466446788734784       0.646407190206355       0.629188070218010     
  0.611968950229667       0.594749830241322       0.577530710252981     
  0.560311590264635       0.543092470276295       0.525873350287950     
  0.508654230299607       0.491435110311264       0.474215990322919     
  0.651118268345633       0.633899148357291       0.616680028368947     
  0.599460908380604       0.582241788392260       0.565022668403916     
  0.547803548415574       0.530584428427230       0.513365308438886     
  0.496146188450543       0.478927068462200       0.652696926519542     
  0.635477806531199       0.618258686542856       0.601039566554513     
  0.583820446566169       0.566601326577828       0.549382206589483     
  0.532163086601139       0.514943966612797       0.497724846624452     
  0.480505726636110     
  1.660316899342888E-002  1.494285209408599E-002  1.328253519474311E-002
  1.162221829540022E-002  9.961901396057328E-003  8.301584496714441E-003
  6.641267597371552E-003  4.980950698028665E-003  3.320633798685776E-003
  1.660316899342887E-003  0.000000000000000E+000  1.660316899342888E-002
  1.494285209408599E-002  1.328253519474311E-002  1.162221829540022E-002
  9.961901396057328E-003  8.301584496714441E-003  6.641267597371552E-003
  4.980950698028665E-003  3.320633798685776E-003  1.660316899342887E-003
  0.000000000000000E+000  1.660316899342888E-002  1.494285209408599E-002
  1.328253519474311E-002  1.162221829540022E-002  9.961901396057328E-003
  8.301584496714441E-003  6.641267597371552E-003  4.980950698028665E-003
  3.320633798685776E-003  1.660316899342887E-003  0.000000000000000E+000
  1.660316899342888E-002  1.494285209408599E-002  1.328253519474311E-002
  1.162221829540022E-002  9.961901396057328E-003  8.301584496714441E-003
  6.641267597371552E-003  4.980950698028665E-003  3.320633798685776E-003
  1.660316899342887E-003  0.000000000000000E+000  1.660316899342888E-002
  1.494285209408599E-002  1.328253519474311E-002  1.162221829540022E-002
  9.961901396057328E-003  8.301584496714441E-003  6.641267597371552E-003
  4.980950698028665E-003  3.320633798685776E-003  1.660316899342887E-003
  0.000000000000000E+000  1.660316899342888E-002  1.494285209408599E-002
  1.328253519474311E-002  1.162221829540022E-002  9.961901396057328E-003
  8.301584496714441E-003  6.641267597371552E-003  4.980950698028665E-003
  3.320633798685776E-003  1.660316899342887E-003  0.000000000000000E+000
  1.660316899342888E-002  1.494285209408599E-002  1.328253519474311E-002
  1.162221829540022E-002  9.961901396057328E-003  8.301584496714441E-003
  6.641267597371552E-003  4.980950698028665E-003  3.320633798685776E-003
  1.660316899342887E-003  0.000000000000000E+000  1.660316899342888E-002
  1.494285209408599E-002  1.328253519474311E-002  1.162221829540022E-002
  9.961901396057328E-003  8.301584496714441E-003  6.641267597371552E-003
  4.980950698028665E-003  3.320633798685776E-003  1.660316899342887E-003
  0.000000000000000E+000  1.660316899342888E-002  1.494285209408599E-002
  1.328253519474311E-002  1.162221829540022E-002  9.961901396057328E-003
  8.301584496714441E-003  6.641267597371552E-003  4.980950698028665E-003
  3.320633798685776E-003  1.660316899342887E-003  0.000000000000000E+000
  1.660316899342888E-002  1.494285209408599E-002  1.328253519474311E-002
  1.162221829540022E-002  9.961901396057328E-003  8.301584496714441E-003
  6.641267597371552E-003  4.980950698028665E-003  3.320633798685776E-003
  1.660316899342887E-003  0.000000000000000E+000  1.660316899342888E-002
  1.494285209408599E-002  1.328253519474311E-002  1.162221829540022E-002
  9.961901396057328E-003  8.301584496714441E-003  6.641267597371552E-003
  4.980950698028665E-003  3.320633798685776E-003  1.660316899342887E-003
  0.000000000000000E+000  1.660316899342888E-002  1.494285209408599E-002
  1.328253519474311E-002  1.162221829540022E-002  9.961901396057328E-003
  8.301584496714441E-003  6.641267597371552E-003  4.980950698028665E-003
  3.320633798685776E-003  1.660316899342887E-003  0.000000000000000E+000
  1.660316899342888E-002  1.494285209408599E-002  1.328253519474311E-002
  1.162221829540022E-002  9.961901396057328E-003  8.301584496714441E-003
  6.641267597371552E-003  4.980950698028665E-003  3.320633798685776E-003
  1.660316899342887E-003  0.000000000000000E+000  1.660316899342888E-002
  1.494285209408599E-002  1.328253519474311E-002  1.162221829540022E-002
  9.961901396057328E-003  8.301584496714441E-003  6.641267597371552E-003
  4.980950698028665E-003  3.320633798685776E-003  1.660316899342887E-003
  0.000000000000000E+000  1.660316899342888E-002  1.494285209408599E-002
  1.328253519474311E-002  1.162221829540022E-002  9.961901396057328E-003
  8.301584496714441E-003  6.641267597371552E-003  4.980950698028665E-003
  3.320633798685776E-003  1.660316899342887E-003  0.000000000000000E+000
  1.660316899342888E-002  1.494285209408599E-002  1.328253519474311E-002
  1.162221829540022E-002  9.961901396057328E-003  8.301584496714441E-003
  6.641267597371552E-003  4.980950698028665E-003  3.320633798685776E-003
  1.660316899342887E-003  0.000000000000000E+000  1.660316899342888E-002
  1.494285209408599E-002  1.328253519474311E-002  1.162221829540022E-002
  9.961901396057328E-003  8.301584496714441E-003  6.641267597371552E-003
  4.980950698028665E-003  3.320633798685776E-003  1.660316899342887E-003
  0.000000000000000E+000  1.660316899342888E-002  1.494285209408599E-002
  1.328253519474311E-002  1.162221829540022E-002  9.961901396057328E-003
  8.301584496714441E-003  6.641267597371552E-003  4.980950698028665E-003
  3.320633798685776E-003  1.660316899342887E-003  0.000000000000000E+000
  1.660316899342888E-002  1.494285209408599E-002  1.328253519474311E-002
  1.162221829540022E-002  9.961901396057328E-003  8.301584496714441E-003
  6.641267597371552E-003  4.980950698028665E-003  3.320633798685776E-003
  1.660316899342887E-003  0.000000000000000E+000  1.660316899342888E-002
  1.494285209408599E-002  1.328253519474311E-002  1.162221829540022E-002
  9.961901396057328E-003  8.301584496714441E-003  6.641267597371552E-003
  4.980950698028665E-003  3.320633798685776E-003  1.660316899342887E-003
  0.000000000000000E+000  1.660316899342888E-002  1.494285209408599E-002
  1.328253519474311E-002  1.162221829540022E-002  9.961901396057328E-003
  8.301584496714441E-003  6.641267597371552E-003  4.980950698028665E-003
  3.320633798685776E-003  1.660316899342887E-003  0.000000000000000E+000
  1.660316899342888E-002  1.494285209408599E-002  1.328253519474311E-002
  1.162221829540022E-002  9.961901396057328E-003  8.301584496714441E-003
  6.641267597371552E-003  4.980950698028665E-003  3.320633798685776E-003
  1.660316899342887E-003  0.000000000000000E+000  1.660316899342888E-002
  1.494285209408599E-002  1.328253519474311E-002  1.162221829540022E-002
  9.961901396057328E-003  8.301584496714441E-003  6.641267597371552E-003
  4.980950698028665E-003  3.320633798685776E-003  1.660316899342887E-003
  0.000000000000000E+000  1.660316899342888E-002  1.494285209408599E-002
  1.328253519474311E-002  1.162221829540022E-002  9.961901396057328E-003
  8.301584496714441E-003  6.641267597371552E-003  4.980950698028665E-003
  3.320633798685776E-003  1.660316899342887E-003  0.000000000000000E+000
  1.660316899342888E-002  1.494285209408599E-002  1.328253519474311E-002
  1.162221829540022E-002  9.961901396057328E-003  8.301584496714441E-003
  6.641267597371552E-003  4.980950698028665E-003  3.320633798685776E-003
  1.660316899342887E-003  0.000000000000000E+000  1.660316899342888E-002
  1.494285209408599E-002  1.328253519474311E-002  1.162221829540022E-002
  9.961901396057328E-003  8.301584496714441E-003  6.641267597371552E-003
  4.980950698028665E-003  3.320633798685776E-003  1.660316899342887E-003
  0.000000000000000E+000
  1.326207210983179E-002  2.575706283802360E-002  3.950151196997032E-002
  5.402418698714249E-002  6.812012012823732E-002  8.227175705517895E-002
  9.617335679547996E-002  0.109569401198874       0.122630742997397     
  0.134715940281218       1.941789612770577E-002  3.964501339146769E-002
  6.210890599767933E-002  8.594294736993106E-002  0.109465758818335     
  0.133201701171256       0.156573399056316       0.179194941545685     
  0.201480452925934       0.222959372472641       1.797479624483762E-002
  4.239184527678774E-002  7.054614556886321E-002  0.100775139755118     
  0.131464454418414       0.162748426273080       0.193803879250625     
  0.224200373844527       0.254537474441979       0.284130354430405     
  1.126863528531606E-002  3.473024262274433E-002  6.350095278552671E-002
  9.522989142868346E-002  0.128489200278358       0.162580584110256     
  0.196844890201348       0.230719865935659       0.263461929938482     
  0.293262109016506       6.941122915714419E-003  2.734930953316945E-002
  5.343518763409194E-002  8.258683364186672E-002  0.113385674677560     
  0.144953195624817       0.176629859414290       0.207557761075747     
  0.236518607980505       0.261499198170026       1.058135079962117E-002
  3.003651622916836E-002  5.373430342575244E-002  7.967665491952441E-002
  0.106618284716170       0.133785833537640       0.160567402083570     
  0.186271528375257       0.210047934962016       0.230297430890744     
  2.350153284387937E-002  4.623992338672624E-002  7.034962699164245E-002
  9.521936068871779E-002  0.120199721694160       0.144776945404924     
  0.168512579550083       0.190947285734773       0.211516434629440     
  0.229024902340976       4.625804504716803E-002  7.756831883401924E-002
  0.106344757340280       0.133904222175807       0.160377230812948     
  0.185611625669259       0.209358775128263       0.231332894720237     
  0.251182831717032       0.267951195777047       7.993585655526587E-002
  0.125147191634799       0.162468710927436       0.195858129792096     
  0.226498064223788       0.254770981887770       0.280748361383487     
  0.304354748580920       0.325347843590069       0.342744052278376     
  0.122646105506356       0.186277474283501       0.235358796265123     
  0.277002665896362       0.313677972665954       0.346463666173169     
  0.375856460711659       0.402033752293446       0.424856351661640     
  0.443284303202330       0.171627198326703       0.256943124576008     
  0.320229949246185       0.372065243674377       0.416299524845445     
  0.454751484455380       0.488368404703532       0.517599754865505     
  0.542441815515697       0.561851672175650       0.224994774191076     
  0.334283135129622       0.413516764830462       0.476961713491522     
  0.529909390782703       0.574926449549393       0.613399783652512     
  0.646046045875737       0.673006494753743       0.693260643187110     
  0.281448824248768       0.416309172011128       0.512717011333595     
  0.588790328438723       0.651299867826233       0.703562043988305     
  0.747397686523025       0.783783323514739       0.812990433572127     
  0.834000008154786       0.339970594639879       0.501459495504334     
  0.615850733029584       0.705231311586321       0.777886514591829     
  0.837895853389493       0.887518105210034       0.927984897240958     
  0.959686382190410       0.981589111887793       0.399815704572075     
  0.588583950515365       0.721441379527227       0.824524134132319     
  0.907661103062313       0.975709746642146        1.03137558435569     
   1.07615488414335        1.11057266564499        1.13359684986513     
  0.460501808127654       0.677062333959936       0.828780982614535     
  0.945851066619180        1.03964569375138        1.11580908309905     
   1.17751370251282        1.22655411341838        1.26363797768502     
   1.28780049559598       0.522877238696757       0.768509293088571     
  0.940030276310679        1.07165022655410        1.17630724200798     
   1.26048068552538        1.32786272096594        1.38059596147725     
   1.41963120804151        1.44421289926430       0.600587480365754     
  0.880921879840261        1.07486962485655        1.22213290765237     
   1.33791093479689        1.42985727613895        1.50233125654461     
   1.55783772535526        1.59746237219472        1.62057171551002     
  0.752644942565057        1.08500364706801        1.30610812738079     
   1.47026367079764        1.59758567647969        1.69769276945720     
   1.77603856602715        1.83581895649697        1.87842188462825     
   1.90297601825858       0.959095480932888        1.35807534249391     
   1.61111385479284        1.79275782588980        1.93045671194601     
   2.03744619384286        2.12144039442004        2.18722938601038     
   2.23743395108644        2.27167409952615        1.06378178079758     
   1.49469345483015        1.75928010065343        1.94310410260373     
   2.07939353005819        2.18453875449143        2.26796029471350     
   2.33559860567028        2.39092965216120        2.43336271702235     
   1.03435374624560        1.43879679819444        1.67926183784572     
   1.84212718750410        1.96096837079910        2.05233229058024     
   2.12575765974929        2.18763137847062        2.24257704896304     
   2.29094048731523       0.907358702511453        1.23597657610984     
   1.42430576835658        1.55005334921032        1.64130013680097     
   1.71133598035093        1.76770063141300        1.81556737380262     
   1.85956518747370        1.90395161729972       0.697658265655896     
  0.920855659727411        1.04710185369142        1.13159089937252     
   1.19302302423698        1.24009991368753        1.27764190193790     
   1.30868170130783        1.33530423675938        1.35900623735203     
  0.424789247311196       0.549838340317912       0.621256352649201     
  0.669315852039619       0.704346461205501       0.731176790409609     
  0.752454087097952       0.769733761032640       0.783702382140988     
  0.792898262426066     
  0.000000000000000E+000  0.000000000000000E+000  0.000000000000000E+000
  0.000000000000000E+000  0.000000000000000E+000  0.000000000000000E+000
  0.000000000000000E+000  0.000000000000000E+000  0.000000000000000E+000
  0.000000000000000E+000  0.000000000000000E+000  0.000000000000000E+000
  0.000000000000000E+000  0.000000000000000E+000  0.000000000000000E+000
  0.000000000000000E+000  0.000000000000000E+000  0.000000000000000E+000
  0.000000000000000E+000  0.000000000000000E+000  0.000000000000000E+000
  0.000000000000000E+000  0.000000000000000E+000  0.000000000000000E+000
  0.000000000000000E+000  0.000000000000000E+000  0.000000000000000E+000
  0.000000000000000E+000  0.000000000000000E+000  0.000000000000000E+000
  0.000000000000000E+000  0.000000000000000E+000  0.000000000000000E+000
  0.000000000000000E+000  0.000000000000000E+000  0.000000000000000E+000
  0.000000000000000E+000  0.000000000000000E+000  0.000000000000000E+000
  0.000000000000000E+000  0.000000000000000E+000  0.000000000000000E+000
  0.000000000000000E+000  0.000000000000000E+000  0.000000000000000E+000
  0.000000000000000E+000  0.000000000000000E+000  0.000000000000000E+000
  0.000000000000000E+000  0.000000000000000E+000  0.000000000000000E+000
  0.000000000000000E+000  0.000000000000000E+000  0.000000000000000E+000
  0.000000000000000E+000  0.000000000000000E+000  0.000000000000000E+000
  0.000000000000000E+000  0.000000000000000E+000  0.000000000000000E+000
  0.000000000000000E+000  0.000000000000000E+000  0.000000000000000E+000
  0.000000000000000E+000  0.000000000000000E+000  0.000000000000000E+000
  0.000000000000000E+000  0.000000000000000E+000  0.000000000000000E+000
  0.000000000000000E+000  0.000000000000000E+000  0.000000000000000E+000
  0.000000000000000E+000  0.000000000000000E+000  0.000000000000000E+000
  0.000000000000000E+000  0.000000000000000E+000  0.000000000000000E+000
  0.000000000000000E+000  0.000000000000000E+000  0.000000000000000E+000
  0.000000000000000E+000  0.000000000000000E+000  0.000000000000000E+000
  0.000000000000000E+000  0.000000000000000E+000  0.000000000000000E+000
  0.000000000000000E+000  0.000000000000000E+000  0.000000000000000E+000
  0.000000000000000E+000  0.000000000000000E+000  0.000000000000000E+000
  0.000000000000000E+000  0.000000000000000E+000  0.000000000000000E+000
  0.000000000000000E+000  0.000000000000000E+000  0.000000000000000E+000
  0.000000000000000E+000  0.000000000000000E+000  0.000000000000000E+000
  0.000000000000000E+000  0.000000000000000E+000  0.000000000000000E+000
  0.000000000000000E+000  0.000000000000000E+000  0.000000000000000E+000
  0.000000000000000E+000  0.000000000000000E+000  0.000000000000000E+000
  0.000000000000000E+000  0.000000000000000E+000  0.000000000000000E+000
  0.000000000000000E+000  0.000000000000000E+000  0.000000000000000E+000