 Title = "Wing and Tip"
 VARIABLES = "X" "Y" "Z" "GAM"
 Zone I=   11 J=   26 K=1  T="Blade"
 DATAPACKING=BLOCK
 VARLOCATION=([4]=CELLCENTERED)
  0.268719415519329       0.255859913754343       0.243000411989356     
  0.230140910224369       0.217281408459381       0.204421906694394     
  0.191562404929407       0.178702903164421       0.165843401399434     
  0.152983899634446       0.140124397869460       0.271481059524080     
  0.258621557759093       0.245762055994106       0.232902554229119     
  0.220043052464132       0.207183550699145       0.194324048934158     
  0.181464547169171       0.168605045404184       0.155745543639197     
  0.142886041874210       0.279722438762649       0.266862936997662     
  0.254003435232675       0.241143933467688       0.228284431702701     
  0.215424929937714       0.202565428172727       0.189705926407740     
  0.176846424642753       0.163986922877766       0.151127421112779     
  0.293313581761284       0.280454079996297       0.267594578231310     
  0.254735076466323       0.241875574701336       0.229016072936349     
  0.216156571171362       0.203297069406375       0.190437567641388     
  0.177578065876401       0.164718564111414       0.312040148075940     
  0.299180646310953       0.286321144545966       0.273461642780979     
  0.260602141015992       0.247742639251005       0.234883137486018     
  0.222023635721031       0.209164133956044       0.196304632191057     
  0.183445130426070       0.335606808569128       0.322747306804141     
  0.309887805039154       0.297028303274167       0.284168801509180     
  0.271309299744193       0.258449797979206       0.245590296214219     
  0.232730794449232       0.219871292684245       0.207011790919258     
  0.363641902926829       0.350782401161842       0.337922899396855     
  0.325063397631868       0.312203895866881       0.299344394101894     
  0.286484892336907       0.273625390571920       0.260765888806933     
  0.247906387041946       0.235046885276959       0.395703300963668     
  0.382843799198681       0.369984297433695       0.357124795668708     
  0.344265293903720       0.331405792138733       0.318546290373747     
  0.305686788608759       0.292827286843772       0.279967785078786     
  0.267108283313798       0.431285375280054       0.418425873515067     
  0.405566371750080       0.392706869985093       0.379847368220107     
  0.366987866455119       0.354128364690133       0.341268862925145     
  0.328409361160158       0.315549859395171       0.302690357630184     
  0.469826975308317       0.456967473543330       0.444107971778343     
  0.431248470013356       0.418388968248369       0.405529466483382     
  0.392669964718395       0.379810462953408       0.366950961188421     
  0.354091459423434       0.341231957658447       0.510720276992374     
  0.497860775227388       0.485001273462401       0.472141771697413     
  0.459282269932426       0.446422768167440       0.433563266402453     
  0.420703764637465       0.407844262872479       0.394984761107491     
  0.382125259342504       0.553320368536195       0.540460866771208     
  0.527601365006220       0.514741863241234       0.501882361476247     
  0.489022859711260       0.476163357946273       0.463303856181286     
  0.450444354416298       0.437584852651312       0.424725350886325     
  0.596955421048071       0.584095919283084       0.571236417518097     
  0.558376915753110       0.545517413988123       0.532657912223136     
  0.519798410458149       0.506938908693162       0.494079406928175     
  0.481219905163188       0.468360403398201       0.640937283683573     
  0.628077781918586       0.615218280153600       0.602358778388613     
  0.589499276623625       0.576639774858638       0.563780273093651     
  0.550920771328664       0.538061269563678       0.525201767798690     
  0.512342266033703       0.684572336195450       0.671712834430462     
  0.658853332665475       0.645993830900488       0.633134329135501     
  0.620274827370514       0.607415325605527       0.594555823840541     
  0.581696322075553       0.568836820310566       0.555977318545579     
  0.727172427739270       0.714312925974283       0.701453424209296     
  0.688593922444309       0.675734420679322       0.662874918914334     
  0.650015417149348       0.637155915384361       0.624296413619374     
  0.611436911854386       0.598577410089400       0.768065729423327     
  0.755206227658341       0.742346725893353       0.729487224128366     
  0.716627722363379       0.703768220598392       0.690908718833405     
  0.678049217068418       0.665189715303431       0.652330213538444     
  0.639470711773457       0.806607329451590       0.793747827686603     
  0.780888325921616       0.768028824156629       0.755169322391641     
  0.742309820626654       0.729450318861667       0.716590817096680     
  0.703731315331693       0.690871813566707       0.678012311801719     
  0.842189403767976       0.829329902002988       0.816470400238001     
  0.803610898473015       0.790751396708028       0.777891894943041     
  0.765032393178053       0.752172891413066       0.739313389648079     
  0.726453887883093       0.713594386118106       0.874250801804815     
  0.861391300039828       0.848531798274841       0.835672296509854     
  0.822812794744867       0.809953292979879       0.797093791214893     
  0.784234289449906       0.771374787684919       0.758515285919932     
  0.745655784154945       0.902285896162515       0.889426394397528     
  0.876566892632542       0.863707390867555       0.850847889102568     
  0.837988387337581       0.825128885572594       0.812269383807607     
  0.799409882042619       0.786550380277632       0.773690878512646     
  0.925852556655704       0.912993054890717       0.900133553125730     
  0.887274051360743       0.874414549595756       0.861555047830768     
  0.848695546065781       0.835836044300794       0.822976542535808     
  0.810117040770821       0.797257539005834       0.944579122970361     
  0.931719621205373       0.918860119440386       0.906000617675399     
  0.893141115910412       0.880281614145425       0.867422112380439     
  0.854562610615451       0.841703108850464       0.828843607085478     
  0.815984105320490       0.958170265968996       0.945310764204008     
  0.932451262439021       0.919591760674035       0.906732258909047     
  0.893872757144060       0.881013255379074       0.868153753614086     
  0.855294251849100       0.842434750084113       0.829575248319125     
  0.966411645207564       0.953552143442577       0.940692641677590     
  0.927833139912603       0.914973638147616       0.902114136382628     
  0.889254634617642       0.876395132852654       0.863535631087668     
  0.850676129322682       0.837816627557694       0.969173289212314     
  0.956313787447327       0.943454285682340       0.930594783917353     
  0.917735282152367       0.904875780387381       0.892016278622392     
  0.879156776857406       0.866297275092418       0.853437773327431     
  0.840578271562445     
  1.045122260481667E-002 -3.505104352876992E-003 -1.746143131057097E-002
 -3.141775826826475E-002 -4.537408522595860E-002 -5.933041218365255E-002
 -7.328673914134633E-002 -8.724306609904021E-002 -0.101199393056734     
 -0.115155720014428      -0.129112046972122       7.906615699217370E-003
 -6.049711258476640E-003 -2.000603821617031E-002 -3.396236517386416E-002
 -4.791869213155810E-002 -6.187501908925184E-002 -7.583134604694576E-002
 -8.978767300463944E-002 -0.103743999962334      -0.117700326920027     
 -0.131656653877721       3.129249533953063E-004 -1.364340200429849E-002
 -2.759972896199236E-002 -4.155605591968628E-002 -5.551238287738010E-002
 -6.946870983507383E-002 -8.342503679276778E-002 -9.738136375046147E-002
 -0.111337690708156      -0.125294017665849      -0.139250344623543     
 -1.221009259333738E-002 -2.616641955103111E-002 -4.012274650872512E-002
 -5.407907346641887E-002 -6.803540042411253E-002 -8.199172738180642E-002
 -9.594805433950034E-002 -0.109904381297194      -0.123860708254888     
 -0.137817035212582      -0.151773362170276      -2.946494147337996E-002
 -4.342126843107379E-002 -5.737759538876763E-002 -7.133392234646144E-002
 -8.529024930415535E-002 -9.924657626184920E-002 -0.113202903219543     
 -0.127159230177237      -0.141115557134931      -0.155071884092625     
 -0.169028211050318      -5.117950241234755E-002 -6.513582937004123E-002
 -7.909215632773516E-002 -9.304848328542888E-002 -0.107004810243123     
 -0.120961137200817      -0.134917464158510      -0.148873791116204     
 -0.162830118073898      -0.176786445031592      -0.190742771989286     
 -7.701132381258234E-002 -9.096765077027615E-002 -0.104923977727970     
 -0.118880304685664      -0.132836631643358      -0.146792958601052     
 -0.160749285558745      -0.174705612516439      -0.188661939474133     
 -0.202618266431827      -0.216574593389521      -0.106553022419421     
 -0.120509349377115      -0.134465676334809      -0.148422003292503     
 -0.162378330250196      -0.176334657207890      -0.190290984165584     
 -0.204247311123278      -0.218203638080972      -0.232159965038666     
 -0.246116291996360      -0.139338707998478      -0.153295034956172     
 -0.167251361913865      -0.181207688871559      -0.195164015829253     
 -0.209120342786947      -0.223076669744641      -0.237032996702335     
 -0.250989323660029      -0.264945650617722      -0.278901977575416     
 -0.174851330702952      -0.188807657660646      -0.202763984618340     
 -0.216720311576034      -0.230676638533728      -0.244632965491421     
 -0.258589292449115      -0.272545619406809      -0.286501946364503     
 -0.300458273322197      -0.314414600279890      -0.212530835258582     
 -0.226487162216276      -0.240443489173970      -0.254399816131663     
 -0.268356143089357      -0.282312470047051      -0.296268797004745     
 -0.310225123962439      -0.324181450920133      -0.338137777877826     
 -0.352094104835520      -0.251782993369879      -0.265739320327573     
 -0.279695647285267      -0.293651974242961      -0.307608301200655     
 -0.321564628158349      -0.335520955116042      -0.349477282073737     
 -0.363433609031430      -0.377389935989124      -0.391346262946818     
 -0.291988775055327      -0.305945102013022      -0.319901428970715     
 -0.333857755928409      -0.347814082886103      -0.361770409843797     
 -0.375726736801491      -0.389683063759185      -0.403639390716878     
 -0.417595717674572      -0.431552044632266      -0.332514111119976     
 -0.346470438077670      -0.360426765035364      -0.374383091993058     
 -0.388339418950752      -0.402295745908446      -0.416252072866140     
 -0.430208399823833      -0.444164726781527      -0.458121053739221     
 -0.472077380696915      -0.372719892805424      -0.386676219763118     
 -0.400632546720812      -0.414588873678506      -0.428545200636199     
 -0.442501527593893      -0.456457854551587      -0.470414181509281     
 -0.484370508466975      -0.498326835424669      -0.512283162382363     
 -0.411972050916722      -0.425928377874416      -0.439884704832110     
 -0.453841031789804      -0.467797358747498      -0.481753685705191     
 -0.495710012662885      -0.509666339620580      -0.523622666578273     
 -0.537578993535966      -0.551535320493661      -0.449651555472352     
 -0.463607882430045      -0.477564209387739      -0.491520536345433     
 -0.505476863303127      -0.519433190260821      -0.533389517218515     
 -0.547345844176209      -0.561302171133902      -0.575258498091596     
 -0.589214825049290      -0.485164178176826      -0.499120505134520     
 -0.513076832092214      -0.527033159049908      -0.540989486007601     
 -0.554945812965295      -0.568902139922989      -0.582858466880682     
 -0.596814793838377      -0.610771120796071      -0.624727447753764     
 -0.517949863755883      -0.531906190713576      -0.545862517671271     
 -0.559818844628965      -0.573775171586658      -0.587731498544352     
 -0.601687825502046      -0.615644152459740      -0.629600479417434     
 -0.643556806375127      -0.657513133332821      -0.547491562362721     
 -0.561447889320415      -0.575404216278109      -0.589360543235803     
 -0.603316870193497      -0.617273197151190      -0.631229524108885     
 -0.645185851066579      -0.659142178024272      -0.673098504981966     
 -0.687054831939660      -0.573323383762956      -0.587279710720650     
 -0.601236037678344      -0.615192364636037      -0.629148691593731     
 -0.643105018551425      -0.657061345509119      -0.671017672466813     
 -0.684973999424506      -0.698930326382201      -0.712886653339895     
 -0.595037944701923      -0.608994271659618      -0.622950598617312     
 -0.636906925575005      -0.650863252532699      -0.664819579490392     
 -0.678775906448086      -0.692732233405781      -0.706688560363474     
 -0.720644887321168      -0.734601214278862      -0.612292793581967     
 -0.626249120539660      -0.640205447497354      -0.654161774455049     
 -0.668118101412742      -0.682074428370435      -0.696030755328130     
 -0.709987082285823      -0.723943409243517      -0.737899736201211     
 -0.751856063158905      -0.624815811128699      -0.638772138086394     
 -0.652728465044087      -0.666684792001782      -0.680641118959474     
 -0.694597445917169      -0.708553772874862      -0.722510099832556     
 -0.736466426790250      -0.750422753747945      -0.764379080705637     
 -0.632409501874521      -0.646365828832215      -0.660322155789909     
 -0.674278482747603      -0.688234809705296      -0.702191136662990     
 -0.716147463620683      -0.730103790578377      -0.744060117536071     
 -0.758016444493765      -0.771972771451459      -0.634954108780121     
 -0.648910435737814      -0.662866762695508      -0.676823089653202     
 -0.690779416610895      -0.704735743568590      -0.718692070526283     
 -0.732648397483978      -0.746604724441671      -0.760561051399364     
 -0.774517378357060     
  1.660316899342888E-002  1.494285209408599E-002  1.328253519474311E-002
  1.162221829540022E-002  9.961901396057328E-003  8.301584496714441E-003
  6.641267597371552E-003  4.980950698028665E-003  3.320633798685776E-003
  1.660316899342887E-003  0.000000000000000E+000  1.660316899342888E-002
  1.494285209408599E-002  1.328253519474311E-002  1.162221829540022E-002
  9.961901396057328E-003  8.301584496714441E-003  6.641267597371552E-003
  4.980950698028665E-003  3.320633798685776E-003  1.660316899342887E-003
  0.000000000000000E+000  1.660316899342888E-002  1.494285209408599E-002
  1.328253519474311E-002  1.162221829540022E-002  9.961901396057328E-003
  8.301584496714441E-003  6.641267597371552E-003  4.980950698028665E-003
  3.320633798685776E-003  1.660316899342887E-003  0.000000000000000E+000
  1.660316899342888E-002  1.494285209408599E-002  1.328253519474311E-002
  1.162221829540022E-002  9.961901396057328E-003  8.301584496714441E-003
  6.641267597371552E-003  4.980950698028665E-003  3.320633798685776E-003
  1.660316899342887E-003  0.000000000000000E+000  1.660316899342888E-002
  1.494285209408599E-002  1.328253519474311E-002  1.162221829540022E-002
  9.961901396057328E-003  8.301584496714441E-003  6.641267597371552E-003
  4.980950698028665E-003  3.320633798685776E-003  1.660316899342887E-003
  0.000000000000000E+000  1.660316899342888E-002  1.494285209408599E-002
  1.328253519474311E-002  1.162221829540022E-002  9.961901396057328E-003
  8.301584496714441E-003  6.641267597371552E-003  4.980950698028665E-003
  3.320633798685776E-003  1.660316899342887E-003  0.000000000000000E+000
  1.660316899342888E-002  1.494285209408599E-002  1.328253519474311E-002
  1.162221829540022E-002  9.961901396057328E-003  8.301584496714441E-003
  6.641267597371552E-003  4.980950698028665E-003  3.320633798685776E-003
  1.660316899342887E-003  0.000000000000000E+000  1.660316899342888E-002
  1.494285209408599E-002  1.328253519474311E-002  1.162221829540022E-002
  9.961901396057328E-003  8.301584496714441E-003  6.641267597371552E-003
  4.980950698028665E-003  3.320633798685776E-003  1.660316899342887E-003
  0.000000000000000E+000  1.660316899342888E-002  1.494285209408599E-002
  1.328253519474311E-002  1.162221829540022E-002  9.961901396057328E-003
  8.301584496714441E-003  6.641267597371552E-003  4.980950698028665E-003
  3.320633798685776E-003  1.660316899342887E-003  0.000000000000000E+000
  1.660316899342888E-002  1.494285209408599E-002  1.328253519474311E-002
  1.162221829540022E-002  9.961901396057328E-003  8.301584496714441E-003
  6.641267597371552E-003  4.980950698028665E-003  3.320633798685776E-003
  1.660316899342887E-003  0.000000000000000E+000  1.660316899342888E-002
  1.494285209408599E-002  1.328253519474311E-002  1.162221829540022E-002
  9.961901396057328E-003  8.301584496714441E-003  6.641267597371552E-003
  4.980950698028665E-003  3.320633798685776E-003  1.660316899342887E-003
  0.000000000000000E+000  1.660316899342888E-002  1.494285209408599E-002
  1.328253519474311E-002  1.162221829540022E-002  9.961901396057328E-003
  8.301584496714441E-003  6.641267597371552E-003  4.980950698028665E-003
  3.320633798685776E-003  1.660316899342887E-003  0.000000000000000E+000
  1.660316899342888E-002  1.494285209408599E-002  1.328253519474311E-002
  1.162221829540022E-002  9.961901396057328E-003  8.301584496714441E-003
  6.641267597371552E-003  4.980950698028665E-003  3.320633798685776E-003
  1.660316899342887E-003  0.000000000000000E+000  1.660316899342888E-002
  1.494285209408599E-002  1.328253519474311E-002  1.162221829540022E-002
  9.961901396057328E-003  8.301584496714441E-003  6.641267597371552E-003
  4.980950698028665E-003  3.320633798685776E-003  1.660316899342887E-003
  0.000000000000000E+000  1.660316899342888E-002  1.494285209408599E-002
  1.328253519474311E-002  1.162221829540022E-002  9.961901396057328E-003
  8.301584496714441E-003  6.641267597371552E-003  4.980950698028665E-003
  3.320633798685776E-003  1.660316899342887E-003  0.000000000000000E+000
  1.660316899342888E-002  1.494285209408599E-002  1.328253519474311E-002
  1.162221829540022E-002  9.961901396057328E-003  8.301584496714441E-003
  6.641267597371552E-003  4.980950698028665E-003  3.320633798685776E-003
  1.660316899342887E-003  0.000000000000000E+000  1.660316899342888E-002
  1.494285209408599E-002  1.328253519474311E-002  1.162221829540022E-002
  9.961901396057328E-003  8.301584496714441E-003  6.641267597371552E-003
  4.980950698028665E-003  3.320633798685776E-003  1.660316899342887E-003
  0.000000000000000E+000  1.660316899342888E-002  1.494285209408599E-002
  1.328253519474311E-002  1.162221829540022E-002  9.961901396057328E-003
  8.301584496714441E-003  6.641267597371552E-003  4.980950698028665E-003
  3.320633798685776E-003  1.660316899342887E-003  0.000000000000000E+000
  1.660316899342888E-002  1.494285209408599E-002  1.328253519474311E-002
  1.162221829540022E-002  9.961901396057328E-003  8.301584496714441E-003
  6.641267597371552E-003  4.980950698028665E-003  3.320633798685776E-003
  1.660316899342887E-003  0.000000000000000E+000  1.660316899342888E-002
  1.494285209408599E-002  1.328253519474311E-002  1.162221829540022E-002
  9.961901396057328E-003  8.301584496714441E-003  6.641267597371552E-003
  4.980950698028665E-003  3.320633798685776E-003  1.660316899342887E-003
  0.000000000000000E+000  1.660316899342888E-002  1.494285209408599E-002
  1.328253519474311E-002  1.162221829540022E-002  9.961901396057328E-003
  8.301584496714441E-003  6.641267597371552E-003  4.980950698028665E-003
  3.320633798685776E-003  1.660316899342887E-003  0.000000000000000E+000
  1.660316899342888E-002  1.494285209408599E-002  1.328253519474311E-002
  1.162221829540022E-002  9.961901396057328E-003  8.301584496714441E-003
  6.641267597371552E-003  4.980950698028665E-003  3.320633798685776E-003
  1.660316899342887E-003  0.000000000000000E+000  1.660316899342888E-002
  1.494285209408599E-002  1.328253519474311E-002  1.162221829540022E-002
  9.961901396057328E-003  8.301584496714441E-003  6.641267597371552E-003
  4.980950698028665E-003  3.320633798685776E-003  1.660316899342887E-003
  0.000000000000000E+000  1.660316899342888E-002  1.494285209408599E-002
  1.328253519474311E-002  1.162221829540022E-002  9.961901396057328E-003
  8.301584496714441E-003  6.641267597371552E-003  4.980950698028665E-003
  3.320633798685776E-003  1.660316899342887E-003  0.000000000000000E+000
  1.660316899342888E-002  1.494285209408599E-002  1.328253519474311E-002
  1.162221829540022E-002  9.961901396057328E-003  8.301584496714441E-003
  6.641267597371552E-003  4.980950698028665E-003  3.320633798685776E-003
  1.660316899342887E-003  0.000000000000000E+000  1.660316899342888E-002
  1.494285209408599E-002  1.328253519474311E-002  1.162221829540022E-002
  9.961901396057328E-003  8.301584496714441E-003  6.641267597371552E-003
  4.980950698028665E-003  3.320633798685776E-003  1.660316899342887E-003
  0.000000000000000E+000
  0.116484070656143       0.165708162544386       0.203501289990247     
  0.235679160956310       0.263579965757931       0.286947884600595     
  0.306089139083315       0.321906447345811       0.334799684719472     
  0.344825881887768       0.188935841550288       0.273612939430196     
  0.337924391802563       0.392450871333123       0.439736109977618     
  0.479440675135883       0.512033798798194       0.539109280321009     
  0.561511926716087       0.580119804260152       0.236406347092827     
  0.353222988753913       0.442125909310520       0.516854284698813     
  0.581647361456610       0.636524056564508       0.681991201197022     
  0.719980838735972       0.751254292820791       0.775105666136289     
  0.251346206684319       0.385994189312453       0.490897151648425     
  0.579401944321174       0.656002188915966       0.721420763034692     
  0.776167815654955       0.821801125724397       0.858534236646421     
  0.884557168991691       0.236988584377970       0.372089843227138     
  0.481289665461708       0.575312862702461       0.657270727760017     
  0.727587805152761       0.786797148877058       0.835962898524402     
  0.875005730655704       0.901450473164779       0.208485500964616     
  0.330548187204936       0.431708317545024       0.520612176079069     
  0.599358435424985       0.668221701490350       0.726960240154159     
  0.775351229082633       0.812973866528952       0.837994798076436     
  0.190489591888953       0.298921377398104       0.387644664571465     
  0.465446325892363       0.534713898409756       0.595879422981035     
  0.648644623130251       0.692571284240059       0.727002231093631     
  0.750012107456869       0.194400641556662       0.299015846108974     
  0.381472730058562       0.452046918730287       0.513946711407668     
  0.568224156645196       0.615078558231863       0.654357757599777     
  0.685502431642469       0.706701258886770       0.215877258029711     
  0.326721213879396       0.410914352777204       0.480887843014393     
  0.540860360108515       0.592582225589400       0.636811473085411     
  0.673783452997951       0.703154101750304       0.723304067363233     
  0.246936728037265       0.370019984113136       0.461141745489993     
  0.535190015863374       0.597433913534186       0.650270131242760     
  0.694904005807378       0.731868492936865       0.761041814472784     
  0.781001866605222       0.282380538426437       0.420524669269951     
  0.521040160611178       0.601451242607799       0.668105275207992     
  0.723993820132824       0.770696108859446       0.808991050550756     
  0.838928116624248       0.859211111210539       0.319001973228731     
  0.473123850569317       0.583928993095238       0.671586361257119     
  0.743517282036710       0.803285452095431       0.852801429426762     
  0.893039755320355       0.924169729669653       0.944962244170682     
  0.354690958540361       0.524578168465314       0.645690374067135     
  0.740723347398943       0.818096328336364       0.881892797591483     
  0.934331058394081       0.976571487060551        1.00888898795519     
   1.03010014312545       0.387962160839432       0.572634692865275     
  0.703465793443692       0.805470184641326       0.887976189667527     
  0.955538413126311        1.01064580881707        1.05461832800945     
   1.08782231661117        1.10912933016969       0.418110203486157     
  0.616184477835657       0.755812260933433       0.864095010396896     
  0.951163207891824        1.02197733384500        1.07925622920443     
   1.12446112312743        1.15804982234478        1.17897197497892     
  0.446298908758830       0.656736518235281       0.804361271887675     
  0.918228397020060        1.00919792410935        1.08259297930340     
   1.14136059661685        1.18713280097983        1.22049960622156     
   1.24053279176053       0.477460038184071       0.700832722373479     
  0.856391766576001       0.975457404741703        1.06973030686250     
   1.14497535424372        1.20446457985846        1.25011073387592     
   1.28272326513765        1.30155046081417       0.521180682990484     
  0.761006927225176       0.925428328668226        1.04936303955784     
   1.14600917041093        1.22199477564069        1.28119633404813     
   1.32599352297469        1.35755537585063        1.37537496818202     
  0.585948099091634       0.847323658305431        1.02106499981515     
   1.14823779329005        1.24482400788271        1.31913347930162     
   1.37611297486779        1.41881706492947        1.44890720942849     
   1.46629490609511       0.669234691011060       0.953605948668530     
   1.13370586237841        1.25970451593543        1.35163854631920     
   1.42001953866201        1.47110994704343        1.50882974956144     
   1.53553697496378        1.55195527584509       0.742446297211225     
   1.04005846122813        1.21805285707862        1.33617065411506     
   1.41835115967447        1.47689979075542        1.51899550798982     
   1.54914045613993        1.57022959174647        1.58386649797045     
  0.764756065541835        1.05048989369380        1.21117405431401     
   1.31272710810299        1.38064909641987        1.42738422812590     
   1.45987850984438        1.48237840108919        1.49763523648663     
   1.50748896774676       0.710753051649546       0.949903394578721     
   1.07657088891232        1.15410356236216        1.20486633178959     
   1.23914916258712        1.26253904485902        1.27845410820928     
   1.28923514901468        1.29673317410713       0.568010436988456     
  0.732494120901852       0.817401971538398       0.869097783275910     
  0.902807335765855       0.925446805829984       0.940807606943568     
  0.951298907051092       0.958848243418975       0.966254849252229     
  0.350984769703867       0.443126084573800       0.491045208795171     
  0.520340723493842       0.539467849062089       0.552301824786272     
  0.560985522096157       0.566873130256308       0.570957671981695     
  0.574087373030314     
 Zone I=   91 J=1    K=1  T="NearWake"
 DATAPACKING=BLOCK
 VARLOCATION=([4]=CELLCENTERED)
  0.790148748517885       0.582101663756417       0.334257284570829     
  7.234880177070965E-002 -0.190157083041936      -0.442531791681590     
 -0.657659153063492      -0.838873564120201      -0.960028375370057     
  -1.02811957144540       -1.04013717880196      -0.986816850372684     
 -0.868463948565066      -0.711760051315188      -0.487357502031271     
 -0.239121526721783       7.782703873581790E-003  0.300115085221312     
  0.562581359823078       0.791043340672126       0.986314942161477     
   1.10085268792965        1.16557957854316        1.14818126281293     
   1.07888401063287       0.912530294343060       0.719011250764295     
  0.453134153754006       0.177179655346679      -0.115775276581999     
 -0.411085584244612      -0.672684077477197      -0.865433429190435     
  -1.03249727994538       -1.12370617173671       -1.13145844221893     
  -1.09623004247692      -0.974455361708685      -0.807363403590190     
 -0.598707661979195      -0.345057105556683      -8.602136815050619E-002
  0.202304270028351       0.477681773294830       0.701364235256602     
  0.898096014521724        1.00149146655642        1.09244042007393     
   1.13833019522609        1.12010195417234        1.05562824729802     
  0.913581008720028       0.771729033222908       0.588269905283872     
  0.393836184319544       0.209666835018057       8.073040655363569E-003
 -0.198293709086559      -0.387159245721815      -0.557464703139630     
 -0.711990948201855      -0.836431032718686      -0.915772107183708     
  -1.01254979173989       -1.07908472054319       -1.07927021313776     
  -1.10502024373295       -1.09485172663739       -1.08984479636019     
  -1.06352950013936       -1.03899559738870      -0.935623592709366     
 -0.899778574398200      -0.822649986774542      -0.764692638000449     
 -0.715051238398412      -0.617774636694258      -0.575155936275244     
 -0.491757348682192      -0.422806031004638      -0.385435293383435     
 -0.332088678364452      -0.274439288979038      -0.225578357112892     
 -0.185046082795108      -0.139012641108218      -9.995779476548941E-002
 -7.826499628960323E-002 -6.406555163274251E-002 -6.170505819439924E-002
 -5.177509802290932E-002
 -0.747241881211146      -0.919057417438615       -1.02254343384305     
  -1.06354405404507       -1.04108308748304      -0.958273160211988     
 -0.817058103862470      -0.627176601074070      -0.399850533272693     
 -0.150970096561571       0.108758832049717       0.361142870334529     
  0.597744247868156       0.802659123546170       0.945076376502720     
   1.07248358789262        1.11204672979293        1.07007837652156     
  0.983984636227069       0.814650908019882       0.613058187578454     
  0.345661146341691       7.137498737063955E-002 -0.220304361679369     