 Title = "Wing and Tip"
 VARIABLES = "X" "Y" "Z" "GAM"
 Zone I=   11 J=   26 K=1  T="Blade"
 DATAPACKING=BLOCK
 VARLOCATION=([4]=CELLCENTERED)
  0.252727633037218       0.244737594292913       0.236747555548607     
  0.228757516804302       0.220767478059996       0.212777439315691     
  0.204787400571385       0.196797361827080       0.188807323082774     
  0.180817284338469       0.172827245594163       0.256133801655315     
  0.248143762911009       0.240153724166704       0.232163685422398     
  0.224173646678093       0.216183607933787       0.208193569189482     
  0.200203530445176       0.192213491700871       0.184223452956565     
  0.176233414212260       0.266298590195749       0.258308551451444     
  0.250318512707139       0.242328473962833       0.234338435218528     
  0.226348396474222       0.218358357729917       0.210368318985611     
  0.202378280241306       0.194388241497000       0.186398202752695     
  0.283061693871091       0.275071655126785       0.267081616382480     
  0.259091577638174       0.251101538893869       0.243111500149563     
  0.235121461405257       0.227131422660952       0.219141383916647     
  0.211151345172341       0.203161306428036       0.306158748522584     
  0.298168709778279       0.290178671033973       0.282188632289668     
  0.274198593545362       0.266208554801057       0.258218516056751     
  0.250228477312446       0.242238438568140       0.234248399823835     
  0.226258361079529       0.335225499800865       0.327235461056559     
  0.319245422312254       0.311255383567949       0.303265344823643     
  0.295275306079337       0.287285267335032       0.279295228590726     
  0.271305189846421       0.263315151102115       0.255325112357810     
  0.369803547674639       0.361813508930333       0.353823470186028     
  0.345833431441722       0.337843392697417       0.329853353953111     
  0.321863315208806       0.313873276464500       0.305883237720195     
  0.297893198975889       0.289903160231584       0.409347575673012     
  0.401357536928706       0.393367498184401       0.385377459440095     
  0.377387420695790       0.369397381951484       0.361407343207179     
  0.353417304462874       0.345427265718568       0.337437226974263     
  0.329447188229957       0.453233950851992       0.445243912107687     
  0.437253873363381       0.429263834619076       0.421273795874770     
  0.413283757130465       0.405293718386160       0.397303679641854     
  0.389313640897548       0.381323602153243       0.373333563408937     
  0.500770558858558       0.492780520114252       0.484790481369947     
  0.476800442625641       0.468810403881336       0.460820365137031     
  0.452830326392725       0.444840287648419       0.436850248904114     
  0.428860210159809       0.420870171415503       0.551207718987452     
  0.543217680243147       0.535227641498841       0.527237602754535     
  0.519247564010230       0.511257525265925       0.503267486521619     
  0.495277447777313       0.487287409033008       0.479297370288703     
  0.471307331544397       0.603750007093743       0.595759968349438     
  0.587769929605132       0.579779890860826       0.571789852116521     
  0.563799813372216       0.555809774627910       0.547819735883605     
  0.539829697139299       0.531839658394994       0.523849619650688     
  0.657568799906753       0.649578761162448       0.641588722418142     
  0.633598683673836       0.625608644929531       0.617618606185225     
  0.609628567440920       0.601638528696615       0.593648489952309     
  0.585658451208003       0.577668412463698       0.711815342914033     
  0.703825304169727       0.695835265425422       0.687845226681116     
  0.679855187936811       0.671865149192505       0.663875110448199     
  0.655885071703894       0.647895032959589       0.639904994215283     
  0.631914955470977       0.765634135727042       0.757644096982737     
  0.749654058238431       0.741664019494126       0.733673980749820     
  0.725683942005515       0.717693903261209       0.709703864516904     
  0.701713825772598       0.693723787028293       0.685733748283987     
  0.818176423833333       0.810186385089028       0.802196346344722     
  0.794206307600417       0.786216268856111       0.778226230111806     
  0.770236191367500       0.762246152623195       0.754256113878889     
  0.746266075134584       0.738276036390279       0.868613583962228     
  0.860623545217922       0.852633506473616       0.844643467729311     
  0.836653428985006       0.828663390240700       0.820673351496394     
  0.812683312752089       0.804693274007783       0.796703235263478     
  0.788713196519172       0.916150191968793       0.908160153224488     
  0.900170114480183       0.892180075735877       0.884190036991571     
  0.876199998247265       0.868209959502960       0.860219920758654     
  0.852229882014348       0.844239843270044       0.836249804525737     
  0.960036567147773       0.952046528403468       0.944056489659162     
  0.936066450914857       0.928076412170551       0.920086373426246     
  0.912096334681940       0.904106295937635       0.896116257193329     
  0.888126218449024       0.880136179704718       0.999580595146146     
  0.991590556401841       0.983600517657535       0.975610478913230     
  0.967620440168924       0.959630401424619       0.951640362680314     
  0.943650323936008       0.935660285191702       0.927670246447397     
  0.919680207703092        1.03415864301992        1.02616860427561     
   1.01817856553131        1.01018852678700        1.00219848804270     
  0.994208449298393       0.986218410554087       0.978228371809782     
  0.970238333065476       0.962248294321170       0.954258255576865     
   1.06322539429820        1.05523535555390        1.04724531680959     
   1.03925527806528        1.03126523932098        1.02327520057667     
   1.01528516183237        1.00729512308806       0.999305084343757     
  0.991315045599452       0.983325006855147        1.08632244894970     
   1.07833241020539        1.07034237146108        1.06235233271678     
   1.05436229397247        1.04637225522817        1.03838221648386     
   1.03039217773956        1.02240213899525        1.01441210025095     
   1.00642206150664        1.10308555262504        1.09509551388073     
   1.08710547513642        1.07911543639212        1.07112539764781     
   1.06313535890351        1.05514532015920        1.04715528141490     
   1.03916524267059        1.03117520392629        1.02318516518198     
   1.11325034116547        1.10526030242117        1.09727026367686     
   1.08928022493255        1.08129018618825        1.07330014744394     
   1.06531010869964        1.05732006995533        1.04933003121103     
   1.04133999246672        1.03334995372242        1.11665650978357     
   1.10866647103926        1.10067643229496        1.09268639355065     
   1.08469635480635        1.07670631606204        1.06871627731773     
   1.06072623857343        1.05273619982912        1.04474616108482     
   1.03675612234051     
  9.191352365343589E-002  7.470000778193980E-002  5.748649191044349E-002
  4.027297603894727E-002  2.305946016745098E-002  5.845944295954683E-003
 -1.136757157554157E-002 -2.858108744703780E-002 -4.579460331853399E-002
 -6.300811919003026E-002 -8.022163506152655E-002  9.033247423672197E-002
  7.311895836522561E-002  5.590544249372940E-002  3.869192662223317E-002
  2.147841075073684E-002  4.264894879240677E-003 -1.294862099225562E-002
 -3.016213686375187E-002 -4.737565273524819E-002 -6.458916860674435E-002
 -8.180268447824064E-002  8.561426008035457E-002  6.840074420885833E-002
  5.118722833736211E-002  3.397371246586584E-002  1.676019659436958E-002
 -4.533192771267064E-004 -1.766683514862294E-002 -3.488035102011915E-002
 -5.209386689161546E-002 -6.930738276311167E-002 -8.652089863460802E-002
  7.783329024010414E-002  6.061977436860793E-002  4.340625849711160E-002
  2.619274262561539E-002  8.979226754119270E-003 -8.234289117377110E-003
 -2.544780498887333E-002 -4.266132086036967E-002 -5.987483673186586E-002
 -7.708835260336211E-002 -9.430186847485837E-002  6.711227525847774E-002
  4.989875938698154E-002  3.268524351548521E-002  1.547172764398888E-002
 -1.741788227507266E-003 -1.895530409900357E-002 -3.616881997049971E-002
 -5.338233584199610E-002 -7.059585171349231E-002 -8.780936758498856E-002
 -0.105022883456485       5.362029194615932E-002  3.640677607466314E-002
  1.919326020316689E-002  1.979744331670649E-003 -1.523377153982566E-002
 -3.244728741132186E-002 -4.966080328281808E-002 -6.687431915431427E-002
 -8.408783502581059E-002 -0.101301350897307      -0.118514866768803     
  3.757011693970454E-002  2.035660106820822E-002  3.143085196711996E-003
 -1.407043067478441E-002 -3.128394654628055E-002 -4.849746241777687E-002
 -6.571097828927290E-002 -8.292449416076932E-002 -0.100138010032266     
 -0.117351525903762      -0.134565041775258       1.921487108687458E-002
  2.001355215378430E-003 -1.521216065611779E-002 -3.242567652761417E-002
 -4.963919239911026E-002 -6.685270827060673E-002 -8.406622414210287E-002
 -0.101279740013599      -0.118493255885096      -0.135706771756592     
 -0.152920287628088      -1.155972420338904E-003 -1.836948829183497E-002
 -3.558300416333107E-002 -5.279652003482754E-002 -7.001003590632367E-002
 -8.722355177781996E-002 -0.104437067649316      -0.121650583520812     
 -0.138864099392309      -0.156077615263805      -0.173291131135301     
 -2.322115321087460E-002 -4.043466908237074E-002 -5.764818495386705E-002
 -7.486170082536306E-002 -9.207521669685945E-002 -0.109288732568356     
 -0.126502248439852      -0.143715764311348      -0.160929280182845     
 -0.178142796054341      -0.195356311925837      -4.663269020256596E-002
 -6.384620607406227E-002 -8.105972194555851E-002 -9.827323781705488E-002
 -0.115486753688551      -0.132700269560047      -0.149913785431544     
 -0.167127301303040      -0.184340817174536      -0.201554333046032     
 -0.218767848917529      -7.102136947168003E-002 -8.823488534317639E-002
 -0.105448401214673      -0.122661917086169      -0.139875432957665     
 -0.157088948829162      -0.174302464700658      -0.191515980572154     
 -0.208729496443650      -0.225943012315146      -0.243156528186643     
 -9.600256697705166E-002 -0.113216082848548      -0.130429598720044     
 -0.147643114591541      -0.164856630463037      -0.182070146334533     
 -0.199283662206029      -0.216497178077526      -0.233710693949022     
 -0.250924209820518      -0.268137725692015      -0.121182314310978     
 -0.138395830182474      -0.155609346053970      -0.172822861925466     
 -0.190036377796963      -0.207249893668459      -0.224463409539955     
 -0.241676925411451      -0.258890441282948      -0.276103957154444     
 -0.293317473025940      -0.146163511816349      -0.163377027687846     
 -0.180590543559342      -0.197804059430838      -0.215017575302334     
 -0.232231091173831      -0.249444607045327      -0.266658122916823     
 -0.283871638788319      -0.301085154659816      -0.318298670531312     
 -0.170552191085463      -0.187765706956960      -0.204979222828456     
 -0.222192738699952      -0.239406254571449      -0.256619770442945     
 -0.273833286314441      -0.291046802185937      -0.308260318057433     
 -0.325473833928930      -0.342687349800426      -0.193963728077155     
 -0.211177243948651      -0.228390759820148      -0.245604275691644     
 -0.262817791563140      -0.280031307434637      -0.297244823306133     
 -0.314458339177629      -0.331671855049125      -0.348885370920622     
 -0.366098886792118      -0.216028908867691      -0.233242424739187     
 -0.250455940610683      -0.267669456482180      -0.284882972353676     
 -0.302096488225172      -0.319310004096668      -0.336523519968164     
 -0.353737035839661      -0.370950551711157      -0.388164067582653     
 -0.236399752374904      -0.253613268246400      -0.270826784117897     
 -0.288040299989393      -0.305253815860889      -0.322467331732386     
 -0.339680847603882      -0.356894363475378      -0.374107879346874     
 -0.391321395218370      -0.408534911089867      -0.254754998227734     
 -0.271968514099230      -0.289182029970726      -0.306395545842223     
 -0.323609061713719      -0.340822577585215      -0.358036093456712     
 -0.375249609328208      -0.392463125199704      -0.409676641071200     
 -0.426890156942696      -0.270805173234189      -0.288018689105685     
 -0.305232204977181      -0.322445720848677      -0.339659236720174     
 -0.356872752591670      -0.374086268463166      -0.391299784334663     
 -0.408513300206159      -0.425726816077655      -0.442940331949151     
 -0.284297156546507      -0.301510672418003      -0.318724188289500     
 -0.335937704160996      -0.353151220032492      -0.370364735903988     
 -0.387578251775484      -0.404791767646981      -0.422005283518477     
 -0.439218799389973      -0.456432315261470      -0.295018171528134     
 -0.312231687399630      -0.329445203271126      -0.346658719142623     
 -0.363872235014119      -0.381085750885615      -0.398299266757111     
 -0.415512782628607      -0.432726298500104      -0.449939814371600     
 -0.467153330243097      -0.302799141368384      -0.320012657239881     
 -0.337226173111376      -0.354439688982873      -0.371653204854369     
 -0.388866720725866      -0.406080236597361      -0.423293752468858     
 -0.440507268340354      -0.457720784211851      -0.474934300083347     
 -0.307517355524752      -0.324730871396248      -0.341944387267744     
 -0.359157903139240      -0.376371419010736      -0.393584934882233     
 -0.410798450753729      -0.428011966625225      -0.445225482496721     
 -0.462438998368217      -0.479652514239714      -0.309098404941465     
 -0.326311920812962      -0.343525436684458      -0.360738952555954     
 -0.377952468427450      -0.395165984298946      -0.412379500170443     
 -0.429593016041939      -0.446806531913436      -0.464020047784932     
 -0.481233563656428     
  1.660316899342888E-002  1.494285209408599E-002  1.328253519474311E-002
  1.162221829540022E-002  9.961901396057328E-003  8.301584496714441E-003
  6.641267597371552E-003  4.980950698028665E-003  3.320633798685776E-003
  1.660316899342887E-003  0.000000000000000E+000  1.660316899342888E-002
  1.494285209408599E-002  1.328253519474311E-002  1.162221829540022E-002
  9.961901396057328E-003  8.301584496714441E-003  6.641267597371552E-003
  4.980950698028665E-003  3.320633798685776E-003  1.660316899342887E-003
  0.000000000000000E+000  1.660316899342888E-002  1.494285209408599E-002
  1.328253519474311E-002  1.162221829540022E-002  9.961901396057328E-003
  8.301584496714441E-003  6.641267597371552E-003  4.980950698028665E-003
  3.320633798685776E-003  1.660316899342887E-003  0.000000000000000E+000
  1.660316899342888E-002  1.494285209408599E-002  1.328253519474311E-002
  1.162221829540022E-002  9.961901396057328E-003  8.301584496714441E-003
  6.641267597371552E-003  4.980950698028665E-003  3.320633798685776E-003
  1.660316899342887E-003  0.000000000000000E+000  1.660316899342888E-002
  1.494285209408599E-002  1.328253519474311E-002  1.162221829540022E-002
  9.961901396057328E-003  8.301584496714441E-003  6.641267597371552E-003
  4.980950698028665E-003  3.320633798685776E-003  1.660316899342887E-003
  0.000000000000000E+000  1.660316899342888E-002  1.494285209408599E-002
  1.328253519474311E-002  1.162221829540022E-002  9.961901396057328E-003
  8.301584496714441E-003  6.641267597371552E-003  4.980950698028665E-003
  3.320633798685776E-003  1.660316899342887E-003  0.000000000000000E+000
  1.660316899342888E-002  1.494285209408599E-002  1.328253519474311E-002
  1.162221829540022E-002  9.961901396057328E-003  8.301584496714441E-003
  6.641267597371552E-003  4.980950698028665E-003  3.320633798685776E-003
  1.660316899342887E-003  0.000000000000000E+000  1.660316899342888E-002
  1.494285209408599E-002  1.328253519474311E-002  1.162221829540022E-002
  9.961901396057328E-003  8.301584496714441E-003  6.641267597371552E-003
  4.980950698028665E-003  3.320633798685776E-003  1.660316899342887E-003
  0.000000000000000E+000  1.660316899342888E-002  1.494285209408599E-002
  1.328253519474311E-002  1.162221829540022E-002  9.961901396057328E-003
  8.301584496714441E-003  6.641267597371552E-003  4.980950698028665E-003
  3.320633798685776E-003  1.660316899342887E-003  0.000000000000000E+000
  1.660316899342888E-002  1.494285209408599E-002  1.328253519474311E-002
  1.162221829540022E-002  9.961901396057328E-003  8.301584496714441E-003
  6.641267597371552E-003  4.980950698028665E-003  3.320633798685776E-003
  1.660316899342887E-003  0.000000000000000E+000  1.660316899342888E-002
  1.494285209408599E-002  1.328253519474311E-002  1.162221829540022E-002
  9.961901396057328E-003  8.301584496714441E-003  6.641267597371552E-003
  4.980950698028665E-003  3.320633798685776E-003  1.660316899342887E-003
  0.000000000000000E+000  1.660316899342888E-002  1.494285209408599E-002
  1.328253519474311E-002  1.162221829540022E-002  9.961901396057328E-003
  8.301584496714441E-003  6.641267597371552E-003  4.980950698028665E-003
  3.320633798685776E-003  1.660316899342887E-003  0.000000000000000E+000
  1.660316899342888E-002  1.494285209408599E-002  1.328253519474311E-002
  1.162221829540022E-002  9.961901396057328E-003  8.301584496714441E-003
  6.641267597371552E-003  4.980950698028665E-003  3.320633798685776E-003
  1.660316899342887E-003  0.000000000000000E+000  1.660316899342888E-002
  1.494285209408599E-002  1.328253519474311E-002  1.162221829540022E-002
  9.961901396057328E-003  8.301584496714441E-003  6.641267597371552E-003
  4.980950698028665E-003  3.320633798685776E-003  1.660316899342887E-003
  0.000000000000000E+000  1.660316899342888E-002  1.494285209408599E-002
  1.328253519474311E-002  1.162221829540022E-002  9.961901396057328E-003
  8.301584496714441E-003  6.641267597371552E-003  4.980950698028665E-003
  3.320633798685776E-003  1.660316899342887E-003  0.000000000000000E+000
  1.660316899342888E-002  1.494285209408599E-002  1.328253519474311E-002
  1.162221829540022E-002  9.961901396057328E-003  8.301584496714441E-003
  6.641267597371552E-003  4.980950698028665E-003  3.320633798685776E-003
  1.660316899342887E-003  0.000000000000000E+000  1.660316899342888E-002
  1.494285209408599E-002  1.328253519474311E-002  1.162221829540022E-002
  9.961901396057328E-003  8.301584496714441E-003  6.641267597371552E-003
  4.980950698028665E-003  3.320633798685776E-003  1.660316899342887E-003
  0.000000000000000E+000  1.660316899342888E-002  1.494285209408599E-002
  1.328253519474311E-002  1.162221829540022E-002  9.961901396057328E-003
  8.301584496714441E-003  6.641267597371552E-003  4.980950698028665E-003
  3.320633798685776E-003  1.660316899342887E-003  0.000000000000000E+000
  1.660316899342888E-002  1.494285209408599E-002  1.328253519474311E-002
  1.162221829540022E-002  9.961901396057328E-003  8.301584496714441E-003
  6.641267597371552E-003  4.980950698028665E-003  3.320633798685776E-003
  1.660316899342887E-003  0.000000000000000E+000  1.660316899342888E-002
  1.494285209408599E-002  1.328253519474311E-002  1.162221829540022E-002
  9.961901396057328E-003  8.301584496714441E-003  6.641267597371552E-003
  4.980950698028665E-003  3.320633798685776E-003  1.660316899342887E-003
  0.000000000000000E+000  1.660316899342888E-002  1.494285209408599E-002
  1.328253519474311E-002  1.162221829540022E-002  9.961901396057328E-003
  8.301584496714441E-003  6.641267597371552E-003  4.980950698028665E-003
  3.320633798685776E-003  1.660316899342887E-003  0.000000000000000E+000
  1.660316899342888E-002  1.494285209408599E-002  1.328253519474311E-002
  1.162221829540022E-002  9.961901396057328E-003  8.301584496714441E-003
  6.641267597371552E-003  4.980950698028665E-003  3.320633798685776E-003
  1.660316899342887E-003  0.000000000000000E+000  1.660316899342888E-002
  1.494285209408599E-002  1.328253519474311E-002  1.162221829540022E-002
  9.961901396057328E-003  8.301584496714441E-003  6.641267597371552E-003
  4.980950698028665E-003  3.320633798685776E-003  1.660316899342887E-003
  0.000000000000000E+000  1.660316899342888E-002  1.494285209408599E-002
  1.328253519474311E-002  1.162221829540022E-002  9.961901396057328E-003
  8.301584496714441E-003  6.641267597371552E-003  4.980950698028665E-003
  3.320633798685776E-003  1.660316899342887E-003  0.000000000000000E+000
  1.660316899342888E-002  1.494285209408599E-002  1.328253519474311E-002
  1.162221829540022E-002  9.961901396057328E-003  8.301584496714441E-003
  6.641267597371552E-003  4.980950698028665E-003  3.320633798685776E-003
  1.660316899342887E-003  0.000000000000000E+000  1.660316899342888E-002
  1.494285209408599E-002  1.328253519474311E-002  1.162221829540022E-002
  9.961901396057328E-003  8.301584496714441E-003  6.641267597371552E-003
  4.980950698028665E-003  3.320633798685776E-003  1.660316899342887E-003
  0.000000000000000E+000
  0.121676938950144       0.169008353804263       0.203291867717424     
  0.231218382992492       0.255347314802004       0.275778955754641     
  0.292326323653098       0.305505189935661       0.315622484190877     
  0.322530705706895       0.203382814005432       0.286783403526967     
  0.346046086321851       0.394102680351607       0.435512976166335     
  0.470559835889870       0.499143583686279       0.522208764625526     
  0.540188915138547       0.553535069780573       0.277499065955167     
  0.400313675519928       0.486198649366324       0.554966361281298     
  0.613872015071756       0.663581063116872       0.704569533385675     
  0.738395786485551       0.764634644357407       0.782616382574573     
  0.343670103893971       0.502626355623978       0.614235303669447     
  0.702443281776715       0.776182967628146       0.838013751432480     
  0.890290185039505       0.933484510015114       0.966119215310592     
  0.987297417691910       0.405712611130104       0.597628265866581     
  0.733459330848440       0.840023842046952       0.927292168502906     
  0.999800383604943        1.06035821894008        1.10991927470266     
   1.14833346777668        1.17195392006482       0.465427609405675     
  0.687712655407907       0.845907701557325       0.969625651188861     
   1.07045300615110        1.15439589521400        1.22363006778139     
   1.27871219414820        1.32040090911283        1.34637748541836     
  0.523715947730833       0.774530309788579       0.953197561784175     
   1.09349934776344        1.20801033861277        1.30265818926520     
   1.38005860865986        1.44160921809277        1.48747764672771     
   1.51565938776876       0.580873450770013       0.858913043206871     
   1.05734686649647        1.21327149531475        1.34036496343448     
   1.44509754948273        1.53055123925714        1.59859297670609     
   1.64933123350067        1.68050976770551       0.636978761109791     
  0.941621586974058        1.15881575718121        1.32935499558951     
   1.46834893449715        1.58272955768330        1.67624851064562     
   1.75063606827024        1.80605560594026        1.84025147365387     
  0.692317444310074        1.02271912154178        1.25788359532560     
   1.44246782122545        1.59247592575891        1.71575499077038     
   1.81663480242210        1.89697253958972        1.95706606971335     
   1.99428703414858       0.745899855980625        1.10105254560122     
   1.35341907030609        1.55089979699314        1.71112763984597     
   1.84293966311176        1.95069337605627        2.03653257014673     
   2.10096607088569        2.14103280089989       0.796801352432401     
   1.17533292822421        1.44349330049518        1.65280685897947     
   1.82262095042067        1.96216793419652        2.07594145739225     
   2.16652874336948        2.23460407737421        2.27716308118063     
  0.843663735265652        1.24329935762484        1.52560921472352     
   1.74551366769430        1.92355328907695        2.06945322096884     
   2.18828129733727        2.28292123483675        2.35403846837105     
   2.39868710611689       0.884753075712788        1.30262056670650     
   1.59694241084663        1.82547558366353        2.00985858538097     
   2.16059534293644        2.28331547543731        2.38101082761742     
   2.45436517984455        2.50058134955517       0.918413408175721     
   1.35070362392155        1.65403199754068        1.88862054485250     
   2.07721709280041        2.23101496556090        2.35600655864311     
   2.45530171902498        2.52975360905550        2.57679810905719     
  0.942404457680868        1.38405251977277        1.69252036789224     
   1.93004055404456        2.12024934407666        2.27480590569630     
   2.39997065471713        2.49905496656838        2.57318588229795     
   2.62009991428619       0.953536758662219        1.39801391382073     
   1.70680475226636        1.94338544439243        2.13192322950547     
   2.28436795652247        2.40722762734046        2.50406377518506     
   2.57627612941160        2.62195748912255       0.947843781403392     
   1.38694493233851        1.69011384121412        1.92097414699368     
   2.10382275000114        2.25074265338480        2.36843810495119     
   2.46071509630892        2.52923817550221        2.57252007580155     
  0.922392923556178        1.34677583915644        1.63746962876580     
   1.85697230679018        2.02933595021671        2.16665048676346     
   2.27575061681133        2.36064468665373        2.42328135668313     
   2.46273060936096       0.883486218933250        1.28459712760100     
   1.55504742378526        1.75615784922770        1.91195752284499     
   2.03456820716278        2.13084198711138        2.20487438086256     
   2.25882779601894        2.29239313820088       0.859240301269453     
   1.23124976132844        1.47165604242565        1.64466650530625     
   1.77597284545395        1.87776581394898        1.95632320104820     
   2.01545834312557        2.05736795560015        2.08235016697825     
  0.830931117304019        1.16378118214232        1.36598986052053     
   1.50502865089922        1.60796743548766        1.68667571290644     
   1.74644233837918        1.79046837556895        1.82042577048887     
   1.83688287190164       0.748482864041504        1.01795208850800     
   1.17221880588130        1.27477735926484        1.34908701671038     
   1.40605359656195        1.44941674350178        1.48132247657337     
   1.50297974869504        1.51469489296237       0.587452912446945     
  0.771101075446268       0.873772974954281       0.941511862446570     
  0.990398168859500        1.02820078213597        1.05722943326336     
   1.07881219857598        1.09393700188745        1.10428826385139     
  0.360365345860500       0.463354844733091       0.521368637003673     
  0.559767170419902       0.587535437855602       0.609073825335039     
  0.625665131639722       0.637982744353616       0.646410656911514     
  0.651021282875466     
 Zone I=   41 J=1    K=1  T="NearWake"
 DATAPACKING=BLOCK
 VARLOCATION=([4]=CELLCENTERED)
  0.974825871024557       0.859618016659453       0.712685637612225     
  0.544183808233498       0.360713269954857       0.168528472923968     
 -2.788630623731963E-002 -0.216978713245219      -0.394754747263577     
 -0.557012935943590      -0.700416515924471      -0.822708059021320     
 -0.922634300820731      -0.999837427681293       -1.05472387287148     
  -1.08832456888891       -1.10215749005743       -1.09810227241936     
  -1.07830618117620       -1.04520790132464       -1.00244888190452     
 -0.954138279878259      -0.884710724335108      -0.833894414430374     
 -0.756969775513130      -0.695564274364950      -0.611955255473044     
 -0.554878832176639      -0.480521950793147      -0.414219108629999     
 -0.355103472215062      -0.293730637628268      -0.239041972053758     
 -0.192713483833724      -0.146788262316740      -0.104076505219529     
 -7.110704936937222E-002 -4.398958572301666E-002 -1.974228311117724E-002
 -1.096384575925308E-003  9.115742301602205E-003
 -0.468046697901828      -0.655622881390505      -0.811360677387930     
 -0.934110421888451       -1.02260882731013       -1.07451402901971     
  -1.08977414974156       -1.07050064086939       -1.02048147950938     
 -0.943762225754785      -0.844761927043339      -0.728124364453103     
 -0.598466234798989      -0.460197050395023      -0.317383123950900     
 -0.173653908058963      -3.214606762162588E-002  0.104517105312780     
  0.234208702434079       0.355190691023546       0.465500081408943     
  0.572828438646008       0.655277253173329       0.748582474205764     
  0.812895083513487       0.884271856149865       0.922818600501266     
  0.976548115120952        1.01541441382369        1.04068093006715     
   1.06341160164881        1.08898953153458        1.09732753728171     
   1.10139899098734        1.11039383271700        1.12220403810582     
   1.12280375954342        1.12655778010053        1.06683299067721     
   1.07925406821706        1.07977640535436     
 -1.234742260732710E-003 -1.234742260732710E-003 -1.192637396281684E-002
 -2.121484146475951E-002 -2.703955221739093E-002 -3.063945204381460E-002
 -2.965593264418736E-002 -3.280848460793095E-002 -3.495049157946350E-002
 -3.666475009076282E-002 -3.803739980505334E-002 -3.915011570147154E-002
 -4.005924895715361E-002 -4.079981857764669E-002 -4.139162661434768E-002
 -4.184044217638543E-002 -4.213619719396897E-002 -4.224321419762250E-002
 -4.207234847726951E-002 -4.140602908113290E-002 -3.959721156399468E-002
 -4.700666958433772E-002 -3.870791878520682E-002 -4.841321564436086E-002
 -4.457971880587200E-002 -4.282002554697509E-002 -4.581431670677581E-002
 -4.383657694624033E-002 -3.863608585420770E-002 -4.562034457705910E-002
 -3.784026150252347E-002 -3.420688719910595E-002 -3.602504100952542E-002