 Title = "Wing and Tip"
 VARIABLES = "X" "Y" "Z" "GAM"
 Zone I=   11 J=   26 K=1  T="Blade"
 DATAPACKING=BLOCK
 VARLOCATION=([4]=CELLCENTERED)
 -0.240479468727368      -0.222485281740203      -0.204491094753037     
 -0.186496907765871      -0.168502720778706      -0.150508533791540     
 -0.132514346804375      -0.114520159817209      -9.652597283004324E-002
 -7.853178584287757E-002 -6.053759885571195E-002 -0.241672574992115     
 -0.223678388004949      -0.205684201017783      -0.187690014030618     
 -0.169695827043452      -0.151701640056286      -0.133707453069121     
 -0.115713266081955      -9.771907909478947E-002 -7.972489210762382E-002
 -6.173070512045820E-002 -0.245233077787831      -0.227238890800665     
 -0.209244703813500      -0.191250516826334      -0.173256329839168     
 -0.155262142852003      -0.137267955864837      -0.119273768877672     
 -0.101279581890506      -8.328539490334022E-002 -6.529120791617460E-002
 -0.251104825858488      -0.233110638871322      -0.215116451884157     
 -0.197122264896991      -0.179128077909826      -0.161133890922660     
 -0.143139703935494      -0.125145516948329      -0.107151329961163     
 -8.915714297399728E-002 -7.116295598683167E-002 -0.259195218229399     
 -0.241201031242233      -0.223206844255068      -0.205212657267902     
 -0.187218470280736      -0.169224283293571      -0.151230096306405     
 -0.133235909319240      -0.115241722332074      -9.724753534490826E-002
 -7.925334835774263E-002 -0.269376664579909      -0.251382477592743     
 -0.233388290605577      -0.215394103618412      -0.197399916631246     
 -0.179405729644080      -0.161411542656915      -0.143417355669749     
 -0.125423168682583      -0.107428981695418      -8.943479470825216E-002
 -0.281488597418968      -0.263494410431802      -0.245500223444637     
 -0.227506036457471      -0.209511849470305      -0.191517662483140     
 -0.173523475495974      -0.155529288508808      -0.137535101521643     
 -0.119540914534477      -0.101546727547312      -0.295340004330387     
 -0.277345817343222      -0.259351630356056      -0.241357443368890     
 -0.223363256381725      -0.205369069394559      -0.187374882407393     
 -0.169380695420228      -0.151386508433062      -0.133392321445896     
 -0.115398134458731      -0.310712440352744      -0.292718253365578     
 -0.274724066378413      -0.256729879391247      -0.238735692404081     
 -0.220741505416916      -0.202747318429750      -0.184753131442584     
 -0.166758944455419      -0.148764757468253      -0.130770570481087     
 -0.327363472986917      -0.309369285999751      -0.291375099012586     
 -0.273380912025420      -0.255386725038255      -0.237392538051089     
 -0.219398351063923      -0.201404164076758      -0.183409977089592     
 -0.165415790102426      -0.147421603115261      -0.345030505501421     
 -0.327036318514256      -0.309042131527090      -0.291047944539925     
 -0.273053757552759      -0.255059570565593      -0.237065383578428     
 -0.219071196591262      -0.201077009604096      -0.183082822616931     
 -0.165088635629765      -0.363434918239729      -0.345440731252564     
 -0.327446544265398      -0.309452357278232      -0.291458170291067     
 -0.273463983303901      -0.255469796316735      -0.237475609329570     
 -0.219481422342404      -0.201487235355239      -0.183493048368073     
 -0.382286462618695      -0.364292275631529      -0.346298088644363     
 -0.328303901657198      -0.310309714670032      -0.292315527682866     
 -0.274321340695701      -0.256327153708535      -0.238332966721369     
 -0.220338779734204      -0.202344592747038      -0.401287838522094     
 -0.383293651534928      -0.365299464547762      -0.347305277560597     
 -0.329311090573431      -0.311316903586266      -0.293322716599100     
 -0.275328529611934      -0.257334342624769      -0.239340155637603     
 -0.221345968650437      -0.420139382901059      -0.402145195913893     
 -0.384151008926727      -0.366156821939562      -0.348162634952396     
 -0.330168447965231      -0.312174260978065      -0.294180073990899     
 -0.276185887003734      -0.258191700016568      -0.240197513029402     
 -0.438543795639367      -0.420549608652201      -0.402555421665035     
 -0.384561234677870      -0.366567047690704      -0.348572860703539     
 -0.330578673716373      -0.312584486729207      -0.294590299742042     
 -0.276596112754876      -0.258601925767710      -0.456210828153871     
 -0.438216641166705      -0.420222454179540      -0.402228267192374     
 -0.384234080205208      -0.366239893218043      -0.348245706230877     
 -0.330251519243712      -0.312257332256546      -0.294263145269380     
 -0.276268958282215      -0.472861860788044      -0.454867673800879     
 -0.436873486813713      -0.418879299826547      -0.400885112839382     
 -0.382890925852216      -0.364896738865050      -0.346902551877885     
 -0.328908364890719      -0.310914177903554      -0.292919990916388     
 -0.488234296810401      -0.470240109823235      -0.452245922836070     
 -0.434251735848904      -0.416257548861738      -0.398263361874573     
 -0.380269174887407      -0.362274987900241      -0.344280800913076     
 -0.326286613925910      -0.308292426938744      -0.502085703721820     
 -0.484091516734655      -0.466097329747489      -0.448103142760323     
 -0.430108955773158      -0.412114768785992      -0.394120581798826     
 -0.376126394811661      -0.358132207824495      -0.340138020837329     
 -0.322143833850164      -0.514197636560880      -0.496203449573714     
 -0.478209262586548      -0.460215075599383      -0.442220888612217     
 -0.424226701625051      -0.406232514637886      -0.388238327650720     
 -0.370244140663554      -0.352249953676389      -0.334255766689223     
 -0.524379082911389      -0.506384895924223      -0.488390708937058     
 -0.470396521949892      -0.452402334962726      -0.434408147975561     
 -0.416413960988395      -0.398419774001230      -0.380425587014064     
 -0.362431400026898      -0.344437213039733      -0.532469475282300     
 -0.514475288295134      -0.496481101307969      -0.478486914320803     
 -0.460492727333638      -0.442498540346472      -0.424504353359306     
 -0.406510166372141      -0.388515979384975      -0.370521792397809     
 -0.352527605410644      -0.538341223352957      -0.520347036365791     
 -0.502352849378626      -0.484358662391460      -0.466364475404295     
 -0.448370288417129      -0.430376101429963      -0.412381914442798     
 -0.394387727455632      -0.376393540468466      -0.358399353481301     
 -0.541901726148673      -0.523907539161508      -0.505913352174342     
 -0.487919165187177      -0.469924978200011      -0.451930791212845     
 -0.433936604225680      -0.415942417238514      -0.397948230251349     
 -0.379954043264183      -0.361959856277017      -0.543094832413420     
 -0.525100645426254      -0.507106458439089      -0.489112271451923     
 -0.471118084464757      -0.453123897477591      -0.435129710490426     
 -0.417135523503260      -0.399141336516095      -0.381147149528929     
 -0.363152962541764     
  0.120370168445460       0.126399686043466       0.132429203641473     
  0.138458721239480       0.144488238837487       0.150517756435494     
  0.156547274033501       0.162576791631508       0.168606309229515     
  0.174635826827522       0.180665344425529       0.123930814363551     
  0.129960331961558       0.135989849559565       0.142019367157572     
  0.148048884755578       0.154078402353585       0.160107919951592     
  0.166137437549599       0.172166955147606       0.178196472745613     
  0.184225990343620       0.134556598604669       0.140586116202676     
  0.146615633800683       0.152645151398690       0.158674668996697     
  0.164704186594704       0.170733704192711       0.176763221790717     
  0.182792739388724       0.188822256986731       0.194851774584738     
  0.152079946203797       0.158109463801804       0.164138981399810     
  0.170168498997817       0.176198016595824       0.182227534193831     
  0.188257051791838       0.194286569389845       0.200316086987852     
  0.206345604585859       0.212375122183866       0.176224503501354     
  0.182254021099361       0.188283538697368       0.194313056295375     
  0.200342573893382       0.206372091491389       0.212401609089396     
  0.218431126687403       0.224460644285410       0.230490161883417     
  0.236519679481424       0.206609496405500       0.212639014003507     
  0.218668531601514       0.224698049199521       0.230727566797528     
  0.236757084395535       0.242786601993542       0.248816119591549     
  0.254845637189556       0.260875154787563       0.266904672385570     
  0.242755735427022       0.248785253025029       0.254814770623035     
  0.260844288221042       0.266873805819049       0.272903323417056     
  0.278932841015063       0.284962358613070       0.290991876211077     
  0.297021393809084       0.303050911407091       0.284093172783832     
  0.290122690381839       0.296152207979846       0.302181725577853     
  0.308211243175860       0.314240760773867       0.320270278371874     
  0.326299795969881       0.332329313567887       0.338358831165894     
  0.344388348763901       0.329969892395027       0.335999409993034     
  0.342028927591040       0.348058445189047       0.354087962787054     
  0.360117480385061       0.366146997983068       0.372176515581075     
  0.378206033179082       0.384235550777089       0.390265068375096     
  0.379662390986913       0.385691908584920       0.391721426182927     
  0.397750943780934       0.403780461378941       0.409809978976947     
  0.415839496574954       0.421869014172961       0.427898531770968     
  0.433928049368975       0.439957566966982       0.432386988171837     
  0.438416505769844       0.444446023367851       0.450475540965858     
  0.456505058563865       0.462534576161871       0.468564093759878     
  0.474593611357885       0.480623128955892       0.486652646553899     
  0.492682164151906       0.487312185556045       0.493341703154052     
  0.499371220752059       0.505400738350066       0.511430255948072     
  0.517459773546079       0.523489291144086       0.529518808742093     
  0.535548326340100       0.541577843938107       0.547607361536114     
  0.543571779966065       0.549601297564072       0.555630815162079     
  0.561660332760086       0.567689850358093       0.573719367956100     
  0.579748885554107       0.585778403152114       0.591807920750120     
  0.597837438348127       0.603866955946134       0.600278523990199     
  0.606308041588206       0.612337559186213       0.618367076784220     
  0.624396594382227       0.630426111980234       0.636455629578241     
  0.642485147176248       0.648514664774255       0.654544182372262     
  0.660573699970268       0.656538118400219       0.662567635998226     
  0.668597153596233       0.674626671194240       0.680656188792247     
  0.686685706390254       0.692715223988261       0.698744741586268     
  0.704774259184275       0.710803776782282       0.716833294380289     
  0.711463315784428       0.717492833382434       0.723522350980441     
  0.729551868578448       0.735581386176455       0.741610903774462     
  0.747640421372469       0.753669938970476       0.759699456568483     
  0.765728974166490       0.771758491764497       0.764187912969352     
  0.770217430567359       0.776246948165365       0.782276465763373     
  0.788305983361379       0.794335500959386       0.800365018557393     
  0.806394536155400       0.812424053753407       0.818453571351414     
  0.824483088949421       0.813880411561238       0.819909929159245     
  0.825939446757252       0.831968964355259       0.837998481953265     
  0.844027999551272       0.850057517149279       0.856087034747286     
  0.862116552345293       0.868146069943300       0.874175587541307     
  0.859757131172432       0.865786648770439       0.871816166368446     
  0.877845683966453       0.883875201564460       0.889904719162467     
  0.895934236760474       0.901963754358481       0.907993271956487     
  0.914022789554494       0.920052307152502       0.901094568529243     
  0.907124086127249       0.913153603725257       0.919183121323264     
  0.925212638921270       0.931242156519277       0.937271674117284     
  0.943301191715291       0.949330709313298       0.955360226911305     
  0.961389744509312       0.937240807550764       0.943270325148771     
  0.949299842746778       0.955329360344784       0.961358877942792     
  0.967388395540798       0.973417913138806       0.979447430736812     
  0.985476948334819       0.991506465932826       0.997535983530833     
  0.967625800454910       0.973655318052917       0.979684835650924     
  0.985714353248931       0.991743870846938       0.997773388444945     
   1.00380290604295        1.00983242364096        1.01586194123897     
   1.02189145883697        1.02792097643498       0.991770357752468     
  0.997799875350475        1.00382939294848        1.00985891054649     
   1.01588842814450        1.02191794574250        1.02794746334051     
   1.03397698093852        1.04000649853652        1.04603601613453     
   1.05206553373254        1.00929370535159        1.01532322294960     
   1.02135274054761        1.02738225814562        1.03341177574362     
   1.03944129334163        1.04547081093964        1.05150032853764     
   1.05752984613565        1.06355936373366        1.06958888133166     
   1.01991948959271        1.02594900719072        1.03197852478873     
   1.03800804238673        1.04403755998474        1.05006707758275     
   1.05609659518076        1.06212611277876        1.06815563037677     
   1.07418514797478        1.08021466557278        1.02348013551080     
   1.02950965310881        1.03553917070682        1.04156868830483     
   1.04759820590283        1.05362772350084        1.05965724109885     
   1.06568675869685        1.07171627629486        1.07774579389287     
   1.08377531149087     
  1.660316899342888E-002  1.494285209408599E-002  1.328253519474311E-002
  1.162221829540022E-002  9.961901396057328E-003  8.301584496714441E-003
  6.641267597371552E-003  4.980950698028665E-003  3.320633798685776E-003
  1.660316899342887E-003  0.000000000000000E+000  1.660316899342888E-002
  1.494285209408599E-002  1.328253519474311E-002  1.162221829540022E-002
  9.961901396057328E-003  8.301584496714441E-003  6.641267597371552E-003
  4.980950698028665E-003  3.320633798685776E-003  1.660316899342887E-003
  0.000000000000000E+000  1.660316899342888E-002  1.494285209408599E-002
  1.328253519474311E-002  1.162221829540022E-002  9.961901396057328E-003
  8.301584496714441E-003  6.641267597371552E-003  4.980950698028665E-003
  3.320633798685776E-003  1.660316899342887E-003  0.000000000000000E+000
  1.660316899342888E-002  1.494285209408599E-002  1.328253519474311E-002
  1.162221829540022E-002  9.961901396057328E-003  8.301584496714441E-003
  6.641267597371552E-003  4.980950698028665E-003  3.320633798685776E-003
  1.660316899342887E-003  0.000000000000000E+000  1.660316899342888E-002
  1.494285209408599E-002  1.328253519474311E-002  1.162221829540022E-002
  9.961901396057328E-003  8.301584496714441E-003  6.641267597371552E-003
  4.980950698028665E-003  3.320633798685776E-003  1.660316899342887E-003
  0.000000000000000E+000  1.660316899342888E-002  1.494285209408599E-002
  1.328253519474311E-002  1.162221829540022E-002  9.961901396057328E-003
  8.301584496714441E-003  6.641267597371552E-003  4.980950698028665E-003
  3.320633798685776E-003  1.660316899342887E-003  0.000000000000000E+000
  1.660316899342888E-002  1.494285209408599E-002  1.328253519474311E-002
  1.162221829540022E-002  9.961901396057328E-003  8.301584496714441E-003
  6.641267597371552E-003  4.980950698028665E-003  3.320633798685776E-003
  1.660316899342887E-003  0.000000000000000E+000  1.660316899342888E-002
  1.494285209408599E-002  1.328253519474311E-002  1.162221829540022E-002
  9.961901396057328E-003  8.301584496714441E-003  6.641267597371552E-003
  4.980950698028665E-003  3.320633798685776E-003  1.660316899342887E-003
  0.000000000000000E+000  1.660316899342888E-002  1.494285209408599E-002
  1.328253519474311E-002  1.162221829540022E-002  9.961901396057328E-003
  8.301584496714441E-003  6.641267597371552E-003  4.980950698028665E-003
  3.320633798685776E-003  1.660316899342887E-003  0.000000000000000E+000
  1.660316899342888E-002  1.494285209408599E-002  1.328253519474311E-002
  1.162221829540022E-002  9.961901396057328E-003  8.301584496714441E-003
  6.641267597371552E-003  4.980950698028665E-003  3.320633798685776E-003
  1.660316899342887E-003  0.000000000000000E+000  1.660316899342888E-002
  1.494285209408599E-002  1.328253519474311E-002  1.162221829540022E-002
  9.961901396057328E-003  8.301584496714441E-003  6.641267597371552E-003
  4.980950698028665E-003  3.320633798685776E-003  1.660316899342887E-003
  0.000000000000000E+000  1.660316899342888E-002  1.494285209408599E-002
  1.328253519474311E-002  1.162221829540022E-002  9.961901396057328E-003
  8.301584496714441E-003  6.641267597371552E-003  4.980950698028665E-003
  3.320633798685776E-003  1.660316899342887E-003  0.000000000000000E+000
  1.660316899342888E-002  1.494285209408599E-002  1.328253519474311E-002
  1.162221829540022E-002  9.961901396057328E-003  8.301584496714441E-003
  6.641267597371552E-003  4.980950698028665E-003  3.320633798685776E-003
  1.660316899342887E-003  0.000000000000000E+000  1.660316899342888E-002
  1.494285209408599E-002  1.328253519474311E-002  1.162221829540022E-002
  9.961901396057328E-003  8.301584496714441E-003  6.641267597371552E-003
  4.980950698028665E-003  3.320633798685776E-003  1.660316899342887E-003
  0.000000000000000E+000  1.660316899342888E-002  1.494285209408599E-002
  1.328253519474311E-002  1.162221829540022E-002  9.961901396057328E-003
  8.301584496714441E-003  6.641267597371552E-003  4.980950698028665E-003
  3.320633798685776E-003  1.660316899342887E-003  0.000000000000000E+000
  1.660316899342888E-002  1.494285209408599E-002  1.328253519474311E-002
  1.162221829540022E-002  9.961901396057328E-003  8.301584496714441E-003
  6.641267597371552E-003  4.980950698028665E-003  3.320633798685776E-003
  1.660316899342887E-003  0.000000000000000E+000  1.660316899342888E-002
  1.494285209408599E-002  1.328253519474311E-002  1.162221829540022E-002
  9.961901396057328E-003  8.301584496714441E-003  6.641267597371552E-003
  4.980950698028665E-003  3.320633798685776E-003  1.660316899342887E-003
  0.000000000000000E+000  1.660316899342888E-002  1.494285209408599E-002
  1.328253519474311E-002  1.162221829540022E-002  9.961901396057328E-003
  8.301584496714441E-003  6.641267597371552E-003  4.980950698028665E-003
  3.320633798685776E-003  1.660316899342887E-003  0.000000000000000E+000
  1.660316899342888E-002  1.494285209408599E-002  1.328253519474311E-002
  1.162221829540022E-002  9.961901396057328E-003  8.301584496714441E-003
  6.641267597371552E-003  4.980950698028665E-003  3.320633798685776E-003
  1.660316899342887E-003  0.000000000000000E+000  1.660316899342888E-002
  1.494285209408599E-002  1.328253519474311E-002  1.162221829540022E-002
  9.961901396057328E-003  8.301584496714441E-003  6.641267597371552E-003
  4.980950698028665E-003  3.320633798685776E-003  1.660316899342887E-003
  0.000000000000000E+000  1.660316899342888E-002  1.494285209408599E-002
  1.328253519474311E-002  1.162221829540022E-002  9.961901396057328E-003
  8.301584496714441E-003  6.641267597371552E-003  4.980950698028665E-003
  3.320633798685776E-003  1.660316899342887E-003  0.000000000000000E+000
  1.660316899342888E-002  1.494285209408599E-002  1.328253519474311E-002
  1.162221829540022E-002  9.961901396057328E-003  8.301584496714441E-003
  6.641267597371552E-003  4.980950698028665E-003  3.320633798685776E-003
  1.660316899342887E-003  0.000000000000000E+000  1.660316899342888E-002
  1.494285209408599E-002  1.328253519474311E-002  1.162221829540022E-002
  9.961901396057328E-003  8.301584496714441E-003  6.641267597371552E-003
  4.980950698028665E-003  3.320633798685776E-003  1.660316899342887E-003
  0.000000000000000E+000  1.660316899342888E-002  1.494285209408599E-002
  1.328253519474311E-002  1.162221829540022E-002  9.961901396057328E-003
  8.301584496714441E-003  6.641267597371552E-003  4.980950698028665E-003
  3.320633798685776E-003  1.660316899342887E-003  0.000000000000000E+000
  1.660316899342888E-002  1.494285209408599E-002  1.328253519474311E-002
  1.162221829540022E-002  9.961901396057328E-003  8.301584496714441E-003
  6.641267597371552E-003  4.980950698028665E-003  3.320633798685776E-003
  1.660316899342887E-003  0.000000000000000E+000  1.660316899342888E-002
  1.494285209408599E-002  1.328253519474311E-002  1.162221829540022E-002
  9.961901396057328E-003  8.301584496714441E-003  6.641267597371552E-003
  4.980950698028665E-003  3.320633798685776E-003  1.660316899342887E-003
  0.000000000000000E+000
  2.022693391617502E-002  2.707719308991590E-002  3.125717321269321E-002
  3.408462430233528E-002  3.599814402253938E-002  3.719001435722805E-002
  3.774941758285096E-002  3.770996730621369E-002  3.707505809453131E-002
  3.589262144324749E-002  3.396548971062271E-002  4.625572760858832E-002
  5.368558462463058E-002  5.868724241604600E-002  6.206411783736075E-002
  6.416675579792708E-002  6.515895239372961E-002  6.510738296004437E-002
  6.403767046487964E-002  6.214052135747294E-002  4.688866000214195E-002
  6.559074765568176E-002  7.697709584421736E-002  8.461891768262284E-002
  8.976702237498273E-002  9.297604356312944E-002  9.450889403841214E-002
  9.447753678482280E-002  9.292599044966282E-002  9.006416834160823E-002
  5.911812825000803E-002  8.414426911188463E-002  9.978092336815123E-002
  0.110368732509711       0.117527871641383       0.122008439753365     
  0.124174337165065       0.124179763295958       0.122070307542789     
  0.118080211004741       7.146234973272170E-002  0.102610565053493     
  0.122499871099558       0.136153579154467       0.145471516937825     
  0.151357291239147       0.154262228129921       0.154385975090482     
  0.151799186420227       0.146819337806819       8.438520588946261E-002
  0.121687281470393       0.145823173187295       0.162581997397708     
  0.174139890168360       0.181537437699140       0.185304093577250     
  0.185686704664859       0.182791524634170       0.177016018067308     
  9.813975141110728E-002  0.141831043846746       0.170318682889761     
  0.190260171810025       0.204144119895640       0.213159992168611     
  0.217919177950490       0.218717215064200       0.215692766865022     
  0.209297160338589       0.112838970155940       0.163272380798184     
  0.196314267250337       0.219582366715934       0.235917488383583     
  0.246677747820486       0.252565802288226       0.253927920089033     
  0.250928301642507       0.244045009649538       0.128475771563057     
  0.186041971830684       0.223885893334933       0.250663765800469     
  0.269602326686019       0.282246111213760       0.289397991794969     
  0.291457000653638       0.288606718000484       0.281330022489394     
  0.144928005592644       0.209984157097694       0.252867545831303     
  0.283335711582590       0.305027555698649       0.319687718247193     
  0.328226189546081       0.331096285860590       0.328496014035921     
  0.320896013736041       0.161962907115015       0.234769152130560     
  0.282868986014919       0.317165199975539       0.341727027441320     
  0.358508628523165       0.368531808465488       0.372305023269460     
  0.370036701389181       0.362171796677000       0.179242629078176     
  0.259904751873160       0.313293149776592       0.351476555224095     
  0.378963704115434       0.397923296167546       0.409491498219702     
  0.414232142561523       0.412360971580537       0.404286767650842     
  0.196327775940385       0.284742950128193       0.343345527735409     
  0.385362868221382       0.415742171627039       0.436867035367575     
  0.449988431234873       0.455725347783856       0.454298850667282     
  0.446073984157451       0.212676783490401       0.308478589787089     
  0.372031865075913       0.417682421454356       0.450803396137027     
  0.473988694533520       0.488602518528967       0.495318605191592     
  0.494362882622303       0.486052354003812       0.227641500268848     
  0.330140738052344       0.398145152097530       0.447041224868051     
  0.482602866174281       0.507624583760065       0.523580402830808     
  0.531198573374727       0.530711470000623       0.522387569028583     
  0.240461875448967       0.348581043226023       0.420247191529277     
  0.471767881146774       0.509279245442786       0.535761655709490     
  0.552794012565236       0.561159354288174       0.561100540908118     
  0.552841339399471       0.250264733136215       0.362466236035301     
  0.436653727216136       0.489891778169671       0.528626920412628     
  0.556006040795048       0.573706622487547       0.582567175130320     
  0.582847260741061       0.574733779038761       0.256072275074532     
  0.370282735092902       0.445433697704650       0.499139026010784     
  0.538092136600573       0.565582975127712       0.583379209646445     
  0.592374166193806       0.592850170590058       0.584966574093125     
  0.256823375226741       0.370357187407004       0.444430008946446     
  0.496961202907350       0.534818867324039       0.561406959633557     
  0.578568309230603       0.587242998248553       0.587735394758947     
  0.580181245399094       0.251402202463174       0.360884343026987     
  0.431301064262789       0.480614596438555       0.515785087699643     
  0.540283562887212       0.555991220446757       0.563865818863689     
  0.564214936347628       0.557138538006468       0.238649643281551     
  0.339931853467222       0.403583519591581       0.447339636545165     
  0.478119345063182       0.499349053441276       0.512857530512026     
  0.519555360120752       0.519712328418073       0.513359238085974     
  0.217293095595644       0.305383711760050       0.358858680384110     
  0.394816283403261       0.419785461225398       0.436885086740348     
  0.447726760496739       0.453090155929070       0.453180236495104     
  0.447933985641764       0.185654796675155       0.254988582345197     
  0.295458603146638       0.322270233222563       0.340796886299197     
  0.353478894355605       0.361548591683783       0.365607496475868     
  0.365847023548897       0.362263704785640       0.141238285854251     
  0.187831630523183       0.214640157686556       0.232430267109669     
  0.244765919505344       0.253243954913714       0.258673674380631     
  0.261463882076010       0.261799200203138       0.259997165337490     
  8.572793520804058E-002  0.111786448728204       0.126912867182870     
  0.137002399943538       0.144020144111937       0.148852416949008     
  0.151948860782240       0.153531229573552       0.153673414853567     
  0.152355474754369     
 Zone I=   11 J=1    K=1  T="NearWake"
 DATAPACKING=BLOCK
 VARLOCATION=([4]=CELLCENTERED)
 -0.330179144322058      -0.273412299325682      -0.221145913790225     
 -0.173607605719479      -0.131022064271621      -9.353222920564973E-002
 -6.123130896017957E-002 -3.423598686961912E-002 -1.289074222464130E-002
  2.524131680314181E-003  1.386505270024958E-002
   1.02979018565977        1.04647104910534        1.05891380343605     
   1.06802922986191        1.07440562854943        1.07864274043977     
   1.08129114464607        1.08284869521754        1.08377180254594     
   1.14277559643907        1.14271772992531     
 -1.234742260732710E-003 -1.234742260732710E-003 -3.442799147602346E-003
 -4.912059932103771E-003 -5.736034019956030E-003 -5.911159103728609E-003
 -5.345839717734309E-003 -3.802581259886826E-003 -8.231446429301119E-004
  2.280335686400591E-003  2.792493049027026E-003
  0.580181245399094       0.504728198581511       0.431144684236261     
  0.359972250780134       0.291868356174862       0.227604035121005     
  0.168026035051425       0.113916668945016       6.545530706120968E-002
  0.000000000000000E+000
 Zone I=    2 J=1   K=1   T="FarWake"
 DATAPACKING=BLOCK
 VARLOCATION=([4]=CELLCENTERED)
  1.386505270024958E-002  1.386505270024958E-002
   1.14271772992531        1.14271772992531     
  2.792493049027026E-003  2.792493049027026E-003
  0.000000000000000E+000
 Zone I=   11 J=   26 K=1  T="Blade"
 DATAPACKING=BLOCK
 VARLOCATION=([4]=CELLCENTERED)
  0.240479468727368       0.222485281740203       0.204491094753037     
  0.186496907765871       0.168502720778706       0.150508533791540     
  0.132514346804374       0.114520159817209       9.652597283004322E-002
  7.853178584287754E-002  6.053759885571192E-002  0.241672574992115     
  0.223678388004949       0.205684201017783       0.187690014030618     
  0.169695827043452       0.151701640056286       0.133707453069121     
  0.115713266081955       9.771907909478944E-002  7.972489210762380E-002
  6.173070512045817E-002  0.245233077787831       0.227238890800665     
  0.209244703813500       0.191250516826334       0.173256329839168     
  0.155262142852003       0.137267955864837       0.119273768877672     
  0.101279581890506       8.328539490334021E-002  6.529120791617457E-002
  0.251104825858488       0.233110638871322       0.215116451884157     
  0.197122264896991       0.179128077909826       0.161133890922660     
  0.143139703935494       0.125145516948329       0.107151329961163     
  8.915714297399725E-002  7.116295598683164E-002  0.259195218229399     
  0.241201031242233       0.223206844255068       0.205212657267902     
  0.187218470280736       0.169224283293571       0.151230096306405     
  0.133235909319240       0.115241722332074       9.724753534490825E-002
  7.925334835774260E-002  0.269376664579909       0.251382477592743     