 Title = "Wing and Wake"
 VARIABLES = "X" "Y" "Z" "GAM"
 Zone I=   26 J=   25 K=1  T="Blade"
 DATAPACKING=BLOCK
 VARLOCATION=([4]=CELLCENTERED)
 -7.102522122779127E-002 -6.936287007553253E-002 -6.770051892327381E-002
 -6.603816777101515E-002 -6.437581661875651E-002 -6.271346546649778E-002
 -6.105111431423913E-002 -5.938876316198043E-002 -5.772641200972175E-002
 -5.606406085746307E-002 -5.440170970520441E-002 -5.273935855294564E-002
 -5.107700740068699E-002 -4.941465624842831E-002 -4.775230509616966E-002
 -4.608995394391096E-002 -4.442760279165224E-002 -4.276525163939360E-002
 -4.110290048713488E-002 -3.944054933487619E-002 -3.777819818261748E-002
 -3.611584703035883E-002 -3.445349587810011E-002 -3.279114472584141E-002
 -3.112879357358273E-002 -2.946644242132408E-002 -7.144710647226202E-002
 -6.978475532000336E-002 -6.812240416774470E-002 -6.646005301548591E-002
 -6.479770186322727E-002 -6.313535071096853E-002 -6.147299955870989E-002
 -5.981064840645121E-002 -5.814829725419256E-002 -5.648594610193380E-002
 -5.482359494967519E-002 -5.316124379741650E-002 -5.149889264515779E-002
 -4.983654149289910E-002 -4.817419034064035E-002 -4.651183918838170E-002
 -4.484948803612304E-002 -4.318713688386432E-002 -4.152478573160560E-002
 -3.986243457934692E-002 -3.820008342708829E-002 -3.653773227482953E-002
 -3.487538112257091E-002 -3.321302997031226E-002 -3.155067881805351E-002
 -2.988832766579483E-002 -7.270554363217270E-002 -7.104319247991406E-002
 -6.938084132765532E-002 -6.771849017539662E-002 -6.605613902313796E-002
 -6.439378787087925E-002 -6.273143671862061E-002 -6.106908556636188E-002
 -5.940673441410319E-002 -5.774438326184449E-002 -5.608203210958584E-002
 -5.441968095732713E-002 -5.275732980506842E-002 -5.109497865280981E-002
 -4.943262750055111E-002 -4.777027634829233E-002 -4.610792519603372E-002
 -4.444557404377499E-002 -4.278322289151636E-002 -4.112087173925765E-002
 -3.945852058699896E-002 -3.779616943474024E-002 -3.613381828248157E-002
 -3.447146713022291E-002 -3.280911597796420E-002 -3.114676482570548E-002
 -7.477900049881261E-002 -7.311664934655389E-002 -7.145429819429526E-002
 -6.979194704203658E-002 -6.812959588977791E-002 -6.646724473751919E-002
 -6.480489358526050E-002 -6.314254243300177E-002 -6.148019128074313E-002
 -5.981784012848444E-002 -5.815548897622568E-002 -5.649313782396703E-002
 -5.483078667170843E-002 -5.316843551944967E-002 -5.150608436719089E-002
 -4.984373321493233E-002 -4.818138206267361E-002 -4.651903091041487E-002
 -4.485667975815622E-002 -4.319432860589753E-002 -4.153197745363883E-002
 -3.986962630138013E-002 -3.820727514912142E-002 -3.654492399686284E-002
 -3.488257284460410E-002 -3.322022169234538E-002 -7.763199965032257E-002
 -7.596964849806385E-002 -7.430729734580516E-002 -7.264494619354653E-002
 -7.098259504128786E-002 -6.932024388902917E-002 -6.765789273677049E-002
 -6.599554158451180E-002 -6.433319043225307E-002 -6.267083927999441E-002
 -6.100848812773571E-002 -5.934613697547702E-002 -5.768378582321831E-002
 -5.602143467095965E-002 -5.435908351870094E-002 -5.269673236644234E-002
 -5.103438121418356E-002 -4.937203006192496E-002 -4.770967890966624E-002
 -4.604732775740752E-002 -4.438497660514880E-002 -4.272262545289012E-002
 -4.106027430063144E-002 -3.939792314837277E-002 -3.773557199611419E-002
 -3.607322084385542E-002 -8.121572548021955E-002 -7.955337432796085E-002
 -7.789102317570222E-002 -7.622867202344341E-002 -7.456632087118484E-002
 -7.290396971892607E-002 -7.124161856666750E-002 -6.957926741440872E-002
 -6.791691626215011E-002 -6.625456510989146E-002 -6.459221395763277E-002
 -6.292986280537399E-002 -6.126751165311529E-002 -5.960516050085660E-002
 -5.794280934859797E-002 -5.628045819633924E-002 -5.461810704408060E-002
 -5.295575589182192E-002 -5.129340473956323E-002 -4.963105358730452E-002
 -4.796870243504583E-002 -4.630635128278714E-002 -4.464400013052837E-002
 -4.298164897826979E-002 -4.131929782601117E-002 -3.965694667375232E-002
 -8.546885944595749E-002 -8.380650829369871E-002 -8.214415714144002E-002
 -8.048180598918138E-002 -7.881945483692269E-002 -7.715710368466404E-002
 -7.549475253240534E-002 -7.383240138014661E-002 -7.217005022788793E-002
 -7.050769907562919E-002 -6.884534792337048E-002 -6.718299677111185E-002
 -6.552064561885315E-002 -6.385829446659455E-002 -6.219594331433582E-002
 -6.053359216207716E-002 -5.887124100981849E-002 -5.720888985755979E-002
 -5.554653870530105E-002 -5.388418755304242E-002 -5.222183640078370E-002
 -5.055948524852504E-002 -4.889713409626632E-002 -4.723478294400766E-002
 -4.557243179174900E-002 -4.391008063949028E-002 -9.031862924619104E-002
 -8.865627809393238E-002 -8.699392694167359E-002 -8.533157578941504E-002
 -8.366922463715623E-002 -8.200687348489746E-002 -8.034452233263890E-002
 -7.868217118038015E-002 -7.701982002812148E-002 -7.535746887586287E-002
 -7.369511772360408E-002 -7.203276657134543E-002 -7.037041541908673E-002
 -6.870806426682817E-002 -6.704571311456943E-002 -6.538336196231062E-002
 -6.372101081005206E-002 -6.205865965779332E-002 -6.039630850553458E-002
 -5.873395735327590E-002 -5.707160620101726E-002 -5.540925504875852E-002
 -5.374690389649989E-002 -5.208455274424121E-002 -5.042220159198248E-002
 -4.875985043972383E-002 -9.568205397502799E-002 -9.401970282276928E-002
 -9.235735167051057E-002 -9.069500051825198E-002 -8.903264936599321E-002
 -8.737029821373447E-002 -8.570794706147586E-002 -8.404559590921715E-002
 -8.238324475695843E-002 -8.072089360469982E-002 -7.905854245244102E-002
 -7.739619130018234E-002 -7.573384014792366E-002 -7.407148899566506E-002
 -7.240913784340637E-002 -7.074678669114767E-002 -6.908443553888902E-002
 -6.742208438663029E-002 -6.575973323437163E-002 -6.409738208211294E-002
 -6.243503092985429E-002 -6.077267977759556E-002 -5.911032862533687E-002
 -5.744797747307815E-002 -5.578562632081954E-002 -5.412327516856071E-002
 -0.101467363948336      -9.980501279607699E-002 -9.814266164381835E-002
 -9.648031049155970E-002 -9.481795933930097E-002 -9.315560818704223E-002
 -9.149325703478366E-002 -8.983090588252492E-002 -8.816855473026623E-002
 -8.650620357800755E-002 -8.484385242574881E-002 -8.318150127349011E-002
 -8.151915012123138E-002 -7.985679896897267E-002 -7.819444781671407E-002
 -7.653209666445533E-002 -7.486974551219665E-002 -7.320739435993787E-002
 -7.154504320767928E-002 -6.988269205542064E-002 -6.822034090316194E-002
 -6.655798975090330E-002 -6.489563859864463E-002 -6.323328744638593E-002
 -6.157093629412721E-002 -5.990858514186856E-002 -0.107575570908480     
 -0.105913219756221      -0.104250868603963      -0.102588517451704     
 -0.100926166299445      -9.926381514718653E-002 -9.760146399492785E-002
 -9.593911284266921E-002 -9.427676169041055E-002 -9.261441053815174E-002
 -9.095205938589301E-002 -8.928970823363433E-002 -8.762735708137566E-002
 -8.596500592911695E-002 -8.430265477685839E-002 -8.264030362459956E-002
 -8.097795247234084E-002 -7.931560132008231E-002 -7.765325016782346E-002
 -7.599089901556497E-002 -7.432854786330612E-002 -7.266619671104733E-002
 -7.100384555878879E-002 -6.934149440653019E-002 -6.767914325427137E-002
 -6.601679210201282E-002 -0.113902161740858      -0.112239810588599     
 -0.110577459436340      -0.108915108284082      -0.107252757131823     
 -0.105590405979564      -0.103928054827306      -0.102265703675047     
 -0.100603352522788      -9.894100137052947E-002 -9.727865021827087E-002
 -9.561629906601227E-002 -9.395394791375342E-002 -9.229159676149484E-002
 -9.062924560923623E-002 -8.896689445697734E-002 -8.730454330471872E-002
 -8.564219215246013E-002 -8.397984100020128E-002 -8.231748984794265E-002
 -8.065513869568404E-002 -7.899278754342533E-002 -7.733043639116666E-002
 -7.566808523890800E-002 -7.400573408664930E-002 -7.234338293439058E-002
 -0.120338886722265      -0.118676535570006      -0.117014184417747     
 -0.115351833265489      -0.113689482113230      -0.112027130960971     
 -0.110364779808713      -0.108702428656454      -0.107040077504195     
 -0.105377726351936      -0.103715375199678      -0.102053024047419     
 -0.100390672895160      -9.872832174290178E-002 -9.706597059064298E-002
 -9.540361943838430E-002 -9.374126828612568E-002 -9.207891713386697E-002
 -9.041656598160833E-002 -8.875421482934960E-002 -8.709186367709099E-002
 -8.542951252483222E-002 -8.376716137257353E-002 -8.210481022031479E-002
 -8.044245906805632E-002 -7.878010791579751E-002 -0.126775611703672     
 -0.125113260551413      -0.123450909399154      -0.121788558246896     
 -0.120126207094637      -0.118463855942378      -0.116801504790120     
 -0.115139153637861      -0.113476802485602      -0.111814451333344     
 -0.110152100181085      -0.108489749028826      -0.106827397876567     
 -0.105165046724309      -0.103502695572050      -0.101840344419791     
 -0.100177993267533      -9.851564211527396E-002 -9.685329096301519E-002
 -9.519093981075663E-002 -9.352858865849789E-002 -9.186623750623900E-002
 -9.020388635398037E-002 -8.854153520172178E-002 -8.687918404946315E-002
 -8.521683289720440E-002 -0.133102202536049      -0.131439851383791     
 -0.129777500231532      -0.128115149079273      -0.126452797927015     
 -0.124790446774756      -0.123128095622497      -0.121465744470239     
 -0.119803393317980      -0.118141042165721      -0.116478691013462     
 -0.114816339861204      -0.113153988708945      -0.111491637556686     
 -0.109829286404428      -0.108166935252169      -0.106504584099910     
 -0.104842232947652      -0.103179881795393      -0.101517530643134     
 -9.985517949087556E-002 -9.819282833861694E-002 -9.653047718635829E-002
 -9.486812603409962E-002 -9.320577488184104E-002 -9.154342372958220E-002
 -0.139210409496194      -0.137548058343935      -0.135885707191676     
 -0.134223356039418      -0.132561004887159      -0.130898653734900     
 -0.129236302582641      -0.127573951430383      -0.125911600278124     
 -0.124249249125865      -0.122586897973607      -0.120924546821348     
 -0.119262195669089      -0.117599844516831      -0.115937493364572     
 -0.114275142212313      -0.112612791060055      -0.110950439907796     
 -0.109288088755537      -0.107625737603279      -0.105963386451020     
 -0.104301035298761      -0.102638684146503      -0.100976332994244     
 -9.931398184198525E-002 -9.765163068972674E-002 -0.144995719469501     
 -0.143333368317243      -0.141671017164984      -0.140008666012725     
 -0.138346314860467      -0.136683963708208      -0.135021612555949     
 -0.133359261403691      -0.131696910251432      -0.130034559099173     
 -0.128372207946914      -0.126709856794656      -0.125047505642397     
 -0.123385154490139      -0.121722803337880      -0.120060452185621     
 -0.118398101033362      -0.116735749881104      -0.115073398728845     
 -0.113411047576586      -0.111748696424328      -0.110086345272069     
 -0.108423994119810      -0.106761642967551      -0.105099291815293     
 -0.103436940663034      -0.150359144198338      -0.148696793046080     
 -0.147034441893821      -0.145372090741562      -0.143709739589304     
 -0.142047388437045      -0.140385037284786      -0.138722686132527     
 -0.137060334980269      -0.135397983828010      -0.133735632675752     
 -0.132073281523493      -0.130410930371234      -0.128748579218975     
 -0.127086228066717      -0.125423876914458      -0.123761525762199     
 -0.122099174609941      -0.120436823457682      -0.118774472305423     
 -0.117112121153165      -0.115449770000906      -0.113787418848647     
 -0.112125067696389      -0.110462716544130      -0.108800365391871     
 -0.155208913998572      -0.153546562846313      -0.151884211694055     
 -0.150221860541796      -0.148559509389537      -0.146897158237278     
 -0.145234807085020      -0.143572455932761      -0.141910104780502     
 -0.140247753628244      -0.138585402475985      -0.136923051323726     
 -0.135260700171468      -0.133598349019209      -0.131935997866950     
 -0.130273646714691      -0.128611295562433      -0.126948944410174     
 -0.125286593257916      -0.123624242105657      -0.121961890953398     
 -0.120299539801139      -0.118637188648881      -0.116974837496622     
 -0.115312486344364      -0.113650135192105      -0.159462047964310     
 -0.157799696812051      -0.156137345659793      -0.154474994507534     
 -0.152812643355275      -0.151150292203016      -0.149487941050758     
 -0.147825589898499      -0.146163238746240      -0.144500887593982     
 -0.142838536441723      -0.141176185289464      -0.139513834137206     
 -0.137851482984947      -0.136189131832688      -0.134526780680430     
 -0.132864429528171      -0.131202078375912      -0.129539727223654     
 -0.127877376071395      -0.126215024919136      -0.124552673766877     
 -0.122890322614619      -0.121227971462360      -0.119565620310101     
 -0.117903269157843      -0.163045773794207      -0.161383422641948     
 -0.159721071489689      -0.158058720337431      -0.156396369185172     
 -0.154734018032913      -0.153071666880655      -0.151409315728396     
 -0.149746964576137      -0.148084613423879      -0.146422262271620     
 -0.144759911119361      -0.143097559967103      -0.141435208814844     
 -0.139772857662585      -0.138110506510326      -0.136448155358068     
 -0.134785804205809      -0.133123453053551      -0.131461101901292     
 -0.129798750749033      -0.128136399596775      -0.126474048444516     
 -0.124811697292257      -0.123149346139998      -0.121486994987740     
 -0.165898772945717      -0.164236421793458      -0.162574070641199     
 -0.160911719488941      -0.159249368336682      -0.157587017184423     
 -0.155924666032165      -0.154262314879906      -0.152599963727647     
 -0.150937612575389      -0.149275261423130      -0.147612910270871     
 -0.145950559118613      -0.144288207966354      -0.142625856814095     
 -0.140963505661837      -0.139301154509578      -0.137638803357319     
 -0.135976452205060      -0.134314101052802      -0.132651749900543     
 -0.130989398748284      -0.129327047596026      -0.127664696443767     
 -0.126002345291508      -0.124339994139250      -0.167972229812357     
 -0.166309878660098      -0.164647527507839      -0.162985176355581     
 -0.161322825203322      -0.159660474051063      -0.157998122898805     
 -0.156335771746546      -0.154673420594287      -0.153011069442029     
 -0.151348718289770      -0.149686367137511      -0.148024015985253     
 -0.146361664832994      -0.144699313680735      -0.143036962528476     
 -0.141374611376218      -0.139712260223959      -0.138049909071700     
 -0.136387557919441      -0.134725206767183      -0.133062855614924     
 -0.131400504462665      -0.129738153310407      -0.128075802158148     
 -0.126413451005889      -0.169230666972267      -0.167568315820009     
 -0.165905964667750      -0.164243613515492      -0.162581262363233     
 -0.160918911210974      -0.159256560058715      -0.157594208906457     
 -0.155931857754198      -0.154269506601939      -0.152607155449681     
 -0.150944804297422      -0.149282453145163      -0.147620101992905     
 -0.145957750840646      -0.144295399688387      -0.142633048536128     
 -0.140970697383870      -0.139308346231611      -0.137645995079352     
 -0.135983643927094      -0.134321292774835      -0.132658941622576     
 -0.130996590470318      -0.129334239318059      -0.127671888165800     
 -0.169652552216738      -0.167990201064479      -0.166327849912221     
 -0.164665498759962      -0.163003147607703      -0.161340796455445     
 -0.159678445303186      -0.158016094150927      -0.156353742998669     
 -0.154691391846410      -0.153029040694151      -0.151366689541893     
 -0.149704338389634      -0.148041987237375      -0.146379636085116     
 -0.144717284932858      -0.143054933780599      -0.141392582628341     
 -0.139730231476082      -0.138067880323823      -0.136405529171565     
 -0.134743178019306      -0.133080826867047      -0.131418475714788     
 -0.129756124562530      -0.128093773410271     
  0.100146981729572       0.100587535424269       0.101028089118966     
  0.101468642813662       0.101909196508359       0.102349750203056     
  0.102790303897752       0.103230857592449       0.103671411287146     
  0.104111964981842       0.104552518676539       0.104993072371235     
  0.105433626065932       0.105874179760629       0.106314733455325     
  0.106755287150022       0.107195840844719       0.107636394539415     
  0.108076948234112       0.108517501928809       0.108958055623505     
  0.109398609318202       0.109839163012899       0.110279716707595     
  0.110720270402292       0.111160824096989       0.101738890799249     
  0.102179444493945       0.102619998188642       0.103060551883339     
  0.103501105578035       0.103941659272732       0.104382212967429     
  0.104822766662125       0.105263320356822       0.105703874051518     
  0.106144427746215       0.106584981440912       0.107025535135608     
  0.107466088830305       0.107906642525002       0.108347196219698     
  0.108787749914395       0.109228303609092       0.109668857303788     
  0.110109410998485       0.110549964693181       0.110990518387878     
  0.111431072082575       0.111871625777271       0.112312179471968     
  0.112752733166665       0.106487380002734       0.106927933697431     
  0.107368487392127       0.107809041086824       0.108249594781521     
  0.108690148476217       0.109130702170914       0.109571255865611     
  0.110011809560307       0.110452363255004       0.110892916949701     
  0.111333470644397       0.111774024339094       0.112214578033791     
  0.112655131728487       0.113095685423184       0.113536239117880     
  0.113976792812577       0.114417346507274       0.114857900201970     
  0.115298453896667       0.115739007591364       0.116179561286060     
  0.116620114980757       0.117060668675454       0.117501222370150     
  0.114311201373228       0.114751755067924       0.115192308762621     
  0.115632862457318       0.116073416152014       0.116513969846711     
  0.116954523541408       0.117395077236104       0.117835630930801     
  0.118276184625498       0.118716738320194       0.119157292014891     
  0.119597845709588       0.120038399404284       0.120478953098981     
  0.120919506793677       0.121360060488374       0.121800614183071     
  0.122241167877767       0.122681721572464       0.123122275267161     
  0.123562828961857       0.124003382656554       0.124443936351251     
  0.124884490045947       0.125325043740644       0.125076487157907     
  0.125517040852604       0.125957594547300       0.126398148241997     
  0.126838701936694       0.127279255631390       0.127719809326087     
  0.128160363020784       0.128600916715480       0.129041470410177     
  0.129482024104873       0.129922577799570       0.130363131494267     
  0.130803685188963       0.131244238883660       0.131684792578357     
  0.132125346273053       0.132565899967750       0.133006453662447     
  0.133447007357143       0.133887561051840       0.134328114746536     
  0.134768668441233       0.135209222135930       0.135649775830627     
  0.136090329525323       0.138599040332295       0.139039594026992     
  0.139480147721688       0.139920701416385       0.140361255111082     
  0.140801808805778       0.141242362500475       0.141682916195172     
  0.142123469889868       0.142564023584565       0.143004577279262     
  0.143445130973958       0.143885684668655       0.144326238363351     
  0.144766792058048       0.145207345752745       0.145647899447441     
  0.146088453142138       0.146529006836835       0.146969560531531     
  0.147410114226228       0.147850667920925       0.148291221615621     
  0.148731775310318       0.149172329005015       0.149612882699711     
  0.154647486262418       0.155088039957115       0.155528593651811     
  0.155969147346508       0.156409701041205       0.156850254735901     
  0.157290808430598       0.157731362125295       0.158171915819991     
  0.158612469514688       0.159053023209384       0.159493576904081     
  0.159934130598778       0.160374684293474       0.160815237988171     
  0.161255791682868       0.161696345377564       0.162136899072261     
  0.162577452766958       0.163018006461654       0.163458560156351     
  0.163899113851047       0.164339667545744       0.164780221240441     
  0.165220774935137       0.165661328629834       0.172947231588942     
  0.173387785283638       0.173828338978335       0.174268892673032     
  0.174709446367728       0.175150000062425       0.175590553757122     
  0.176031107451818       0.176471661146515       0.176912214841212     
  0.177352768535908       0.177793322230605       0.178233875925301     
  0.178674429619998       0.179114983314695       0.179555537009391     
  0.179996090704088       0.180436644398785       0.180877198093481     
  0.181317751788178       0.181758305482875       0.182198859177571     
  0.182639412872268       0.183079966566964       0.183520520261661     
  0.183961073956358       0.193185162595681       0.193625716290378     
  0.194066269985075       0.194506823679771       0.194947377374468     
  0.195387931069164       0.195828484763861       0.196269038458558     
  0.196709592153255       0.197150145847951       0.197590699542648     
  0.198031253237344       0.198471806932041       0.198912360626738     
  0.199352914321434       0.199793468016131       0.200234021710828     
  0.200674575405524       0.201115129100221       0.201555682794918     
  0.201996236489614       0.202436790184311       0.202877343879008     
  0.203317897573704       0.203758451268401       0.204199004963097     
  0.215015002672097       0.215455556366794       0.215896110061490     
  0.216336663756187       0.216777217450884       0.217217771145580     
  0.217658324840277       0.218098878534974       0.218539432229670     
  0.218979985924367       0.219420539619064       0.219861093313760     
  0.220301647008457       0.220742200703153       0.221182754397850     
  0.221623308092547       0.222063861787243       0.222504415481940     
  0.222944969176637       0.223385522871333       0.223826076566030     
  0.224266630260727       0.224707183955423       0.225147737650120     
  0.225588291344816       0.226028845039513       0.238063237202106     
  0.238503790896803       0.238944344591500       0.239384898286196     
  0.239825451980893       0.240266005675590       0.240706559370286     
  0.241147113064983       0.241587666759680       0.242028220454376     
  0.242468774149073       0.242909327843770       0.243349881538466     
  0.243790435233163       0.244230988927860       0.244671542622556     
  0.245112096317252       0.245552650011949       0.245993203706646     
  0.246433757401343       0.246874311096039       0.247314864790736     
  0.247755418485433       0.248195972180129       0.248636525874826     
  0.249077079569523       0.261935504502723       0.262376058197420     
  0.262816611892116       0.263257165586813       0.263697719281509     
  0.264138272976206       0.264578826670903       0.265019380365599     
  0.265459934060296       0.265900487754993       0.266341041449690     
  0.266781595144386       0.267222148839083       0.267662702533779     
  0.268103256228476       0.268543809923173       0.268984363617869     
  0.269424917312566       0.269865471007262       0.270306024701959     
  0.270746578396656       0.271187132091352       0.271627685786049     
  0.272068239480746       0.272508793175443       0.272949346870139     
  0.286223343461790       0.286663897156487       0.287104450851184     
  0.287545004545880       0.287985558240577       0.288426111935274     
  0.288866665629970       0.289307219324667       0.289747773019364     
  0.290188326714060       0.290628880408757       0.291069434103453     
  0.291509987798150       0.291950541492847       0.292391095187543     
  0.292831648882240       0.293272202576936       0.293712756271633     
  0.294153309966330       0.294593863661027       0.295034417355723     
  0.295474971050420       0.295915524745117       0.296356078439813     
  0.296796632134510       0.297237185829206       0.310511182420858     
  0.310951736115554       0.311392289810251       0.311832843504947     
  0.312273397199644       0.312713950894341       0.313154504589038     
  0.313595058283734       0.314035611978431       0.314476165673128     
  0.314916719367824       0.315357273062521       0.315797826757217     
  0.316238380451914       0.316678934146611       0.317119487841307     
  0.317560041536004       0.318000595230701       0.318441148925397     
  0.318881702620094       0.319322256314790       0.319762810009487     
  0.320203363704183       0.320643917398880       0.321084471093577     
  0.321525024788273       0.334383449721474       0.334824003416171     
  0.335264557110867       0.335705110805564       0.336145664500261     
  0.336586218194958       0.337026771889654       0.337467325584350     
  0.337907879279047       0.338348432973744       0.338788986668441     
  0.339229540363137       0.339670094057834       0.340110647752531     
  0.340551201447227       0.340991755141924       0.341432308836620     
  0.341872862531317       0.342313416226014       0.342753969920710     
  0.343194523615407       0.343635077310104       0.344075631004800     
  0.344516184699497       0.344956738394194       0.345397292088890     
  0.357431684251484       0.357872237946180       0.358312791640877     
  0.358753345335573       0.359193899030270       0.359634452724967     
  0.360075006419663       0.360515560114360       0.360956113809057     
  0.361396667503753       0.361837221198450       0.362277774893146     
  0.362718328587843       0.363158882282540       0.363599435977237     
  0.364039989671933       0.364480543366629       0.364921097061326     
  0.365361650756023       0.365802204450720       0.366242758145416     
  0.366683311840113       0.367123865534810       0.367564419229507     
  0.368004972924203       0.368445526618900       0.379261524327899     
  0.379702078022596       0.380142631717293       0.380583185411989     
  0.381023739106686       0.381464292801382       0.381904846496079     
  0.382345400190776       0.382785953885473       0.383226507580169     
  0.383667061274866       0.384107614969562       0.384548168664259     
  0.384988722358955       0.385429276053652       0.385869829748349     
  0.386310383443045       0.386750937137742       0.387191490832439     
  0.387632044527135       0.388072598221832       0.388513151916529     
  0.388953705611225       0.389394259305922       0.389834813000618     
  0.390275366695315       0.399499455334639       0.399940009029336     
  0.400380562724032       0.400821116418729       0.401261670113426     
  0.401702223808122       0.402142777502819       0.402583331197515     
  0.403023884892212       0.403464438586909       0.403904992281606     
  0.404345545976302       0.404786099670999       0.405226653365695     
  0.405667207060392       0.406107760755088       0.406548314449785     
  0.406988868144482       0.407429421839179       0.407869975533875     
  0.408310529228572       0.408751082923269       0.409191636617965     
  0.409632190312661       0.410072744007358       0.410513297702055     
  0.417799200661163       0.418239754355859       0.418680308050556     
  0.419120861745252       0.419561415439949       0.420001969134645     
  0.420442522829342       0.420883076524039       0.421323630218736     
  0.421764183913432       0.422204737608129       0.422645291302826     
  0.423085844997522       0.423526398692219       0.423966952386916     
  0.424407506081612       0.424848059776309       0.425288613471006     
  0.425729167165702       0.426169720860399       0.426610274555095     
  0.427050828249792       0.427491381944489       0.427931935639185     
  0.428372489333882       0.428813043028579       0.433847646591286     
  0.434288200285982       0.434728753980679       0.435169307675375     
  0.435609861370072       0.436050415064768       0.436490968759465     
  0.436931522454162       0.437372076148859       0.437812629843555     
  0.438253183538252       0.438693737232949       0.439134290927645     
  0.439574844622342       0.440015398317038       0.440455952011735     
  0.440896505706432       0.441337059401128       0.441777613095825     
  0.442218166790522       0.442658720485218       0.443099274179915     
  0.443539827874611       0.443980381569308       0.444420935264005     
  0.444861488958702       0.447370199765673       0.447810753460370     
  0.448251307155067       0.448691860849763       0.449132414544460     
  0.449572968239157       0.450013521933853       0.450454075628550     
  0.450894629323246       0.451335183017944       0.451775736712640     
  0.452216290407336       0.452656844102033       0.453097397796730     
  0.453537951491427       0.453978505186123       0.454419058880820     
  0.454859612575516       0.455300166270213       0.455740719964910     
  0.456181273659606       0.456621827354303       0.457062381048999     
  0.457502934743696       0.457943488438393       0.458384042133089     
  0.458135485550353       0.458576039245050       0.459016592939746     
  0.459457146634442       0.459897700329140       0.460338254023836     
  0.460778807718533       0.461219361413230       0.461659915107926     
  0.462100468802623       0.462541022497319       0.462981576192016     
  0.463422129886712       0.463862683581409       0.464303237276106     
  0.464743790970802       0.465184344665499       0.465624898360196     
  0.466065452054892       0.466506005749589       0.466946559444286     
  0.467387113138982       0.467827666833679       0.468268220528375     
  0.468708774223072       0.469149327917769       0.465959306920847     
  0.466399860615543       0.466840414310240       0.467280968004937     