 Title = "Wing and Wake"
 VARIABLES = "X" "Y" "Z" "GAM"
 Zone I=   26 J=   25 K=1  T="Blade"
 DATAPACKING=BLOCK
 VARLOCATION=([4]=CELLCENTERED)
  7.833152672568326E-002  7.918763813743279E-002  8.004374954918239E-002
  8.089986096093180E-002  8.175597237268126E-002  8.261208378443055E-002
  8.346819519617996E-002  8.432430660792939E-002  8.518041801967892E-002
  8.603652943142828E-002  8.689264084317774E-002  8.774875225492718E-002
  8.860486366667648E-002  8.946097507842597E-002  9.031708649017541E-002
  9.117319790192487E-002  9.202930931367437E-002  9.288542072542380E-002
  9.374153213717321E-002  9.459764354892278E-002  9.545375496067204E-002
  9.630986637242152E-002  9.716597778417090E-002  9.802208919592043E-002
  9.887820060766975E-002  9.973431201941924E-002  7.975982442754578E-002
  8.061593583929519E-002  8.147204725104482E-002  8.232815866279394E-002
  8.318427007454360E-002  8.404038148629306E-002  8.489649289804257E-002
  8.575260430979187E-002  8.660871572154137E-002  8.746482713329067E-002
  8.832093854504020E-002  8.917704995678959E-002  9.003316136853920E-002
  9.088927278028826E-002  9.174538419203790E-002  9.260149560378717E-002
  9.345760701553681E-002  9.431371842728631E-002  9.516982983903551E-002
  9.602594125078491E-002  9.688205266253457E-002  9.773816407428382E-002
  9.859427548603329E-002  9.945038689778253E-002  0.100306498309532     
  0.101162609721281       8.402027896345500E-002  8.487639037520454E-002
  8.573250178695384E-002  8.658861319870326E-002  8.744472461045261E-002
  8.830083602220222E-002  8.915694743395161E-002  9.001305884570099E-002
  9.086917025745055E-002  9.172528166919987E-002  9.258139308094938E-002
  9.343750449269893E-002  9.429361590444803E-002  9.514972731619767E-002
  9.600583872794702E-002  9.686195013969640E-002  9.771806155144597E-002
  9.857417296319518E-002  9.943028437494472E-002  0.100286395786694     
  0.101142507198444       0.101998618610193       0.102854730021943     
  0.103710841433692       0.104566952845441       0.105423064257191     
  9.103999277508058E-002  9.189610418683007E-002  9.275221559857939E-002
  9.360832701032901E-002  9.446443842207844E-002  9.532054983382765E-002
  9.617666124557744E-002  9.703277265732660E-002  9.788888406907606E-002
  9.874499548082558E-002  9.960110689257484E-002  0.100457218304325     
  0.101313329716074       0.102169441127823       0.103025552539573     
  0.103881663951322       0.104737775363072       0.105593886774821     
  0.106449998186570       0.107306109598320       0.108162221010069     
  0.109018332421819       0.109874443833568       0.110730555245318     
  0.111586666657067       0.112442778068816       0.100698856612874     
  0.101554968024623       0.102411079436372       0.103267190848122     
  0.104123302259871       0.104979413671621       0.105835525083370     
  0.106691636495120       0.107547747906869       0.108403859318618     
  0.109259970730368       0.110116082142117       0.110972193553866     
  0.111828304965616       0.112684416377365       0.113540527789115     
  0.114396639200864       0.115252750612614       0.116108862024363     
  0.116964973436112       0.117821084847862       0.118677196259611     
  0.119533307671361       0.120389419083110       0.121245530494860     
  0.122101641906609       0.112831604638625       0.113687716050375     
  0.114543827462124       0.115399938873874       0.116256050285623     
  0.117112161697372       0.117968273109122       0.118824384520871     
  0.119680495932621       0.120536607344370       0.121392718756120     
  0.122248830167869       0.123104941579619       0.123961052991368     
  0.124817164403117       0.125673275814867       0.126529387226616     
  0.127385498638366       0.128241610050115       0.129097721461865     
  0.129953832873614       0.130809944285364       0.131666055697113     
  0.132522167108862       0.133378278520612       0.134234389932361     
  0.127230642169783       0.128086753581533       0.128942864993282     
  0.129798976405031       0.130655087816781       0.131511199228530     
  0.132367310640280       0.133223422052029       0.134079533463779     
  0.134935644875528       0.135791756287277       0.136647867699027     
  0.137503979110776       0.138360090522526       0.139216201934275     
  0.140072313346024       0.140928424757773       0.141784536169523     
  0.142640647581273       0.143496758993022       0.144352870404772     
  0.145208981816521       0.146065093228270       0.146921204640020     
  0.147777316051769       0.148633427463519       0.143649597682021     
  0.144505709093770       0.145361820505519       0.146217931917269     
  0.147074043329019       0.147930154740768       0.148786266152518     
  0.149642377564267       0.150498488976016       0.151354600387766     
  0.152210711799515       0.153066823211265       0.153922934623014     
  0.154779046034763       0.155635157446513       0.156491268858262     
  0.157347380270012       0.158203491681761       0.159059603093511     
  0.159915714505260       0.160771825917010       0.161627937328759     
  0.162484048740509       0.163340160152258       0.164196271564007     
  0.165052382975757       0.161807538294330       0.162663649706079     
  0.163519761117829       0.164375872529578       0.165231983941327     
  0.166088095353077       0.166944206764826       0.167800318176576     
  0.168656429588325       0.169512541000074       0.170368652411824     
  0.171224763823574       0.172080875235323       0.172936986647073     
  0.173793098058822       0.174649209470571       0.175505320882321     
  0.176361432294070       0.177217543705819       0.178073655117569     
  0.178929766529319       0.179785877941068       0.180641989352817     
  0.181498100764567       0.182354212176316       0.183210323588065     
  0.181393776608501       0.182249888020251       0.183105999432000     
  0.183962110843749       0.184818222255499       0.185674333667248     
  0.186530445078998       0.187386556490747       0.188242667902497     
  0.189098779314246       0.189954890725995       0.190811002137745     
  0.191667113549494       0.192523224961243       0.193379336372993     
  0.194235447784742       0.195091559196492       0.195947670608241     
  0.196803782019991       0.197659893431740       0.198516004843490     
  0.199372116255239       0.200228227666989       0.201084339078738     
  0.201940450490487       0.202796561902237       0.202073186656648     
  0.202929298068398       0.203785409480147       0.204641520891896     
  0.205497632303645       0.206353743715395       0.207209855127145     
  0.208065966538894       0.208922077950643       0.209778189362393     
  0.210634300774142       0.211490412185892       0.212346523597642     
  0.213202635009390       0.214058746421140       0.214914857832889     
  0.215770969244638       0.216627080656388       0.217483192068138     
  0.218339303479887       0.219195414891636       0.220051526303386     
  0.220907637715136       0.221763749126885       0.222619860538634     
  0.223475971950384       0.223491937999431       0.224348049411181     
  0.225204160822930       0.226060272234679       0.226916383646429     
  0.227772495058178       0.228628606469927       0.229484717881677     
  0.230340829293426       0.231196940705176       0.232053052116926     
  0.232909163528676       0.233765274940424       0.234621386352174     
  0.235477497763924       0.236333609175673       0.237189720587422     
  0.238045831999171       0.238901943410921       0.239758054822670     
  0.240614166234420       0.241470277646169       0.242326389057919     
  0.243182500469668       0.244038611881418       0.244894723293167     
  0.245283549862976       0.246139661274725       0.246995772686475     
  0.247851884098224       0.248707995509974       0.249564106921723     
  0.250420218333473       0.251276329745223       0.252132441156972     
  0.252988552568721       0.253844663980470       0.254700775392219     
  0.255556886803970       0.256412998215719       0.257269109627469     
  0.258125221039218       0.258981332450966       0.259837443862717     
  0.260693555274466       0.261549666686216       0.262405778097965     
  0.263261889509714       0.264118000921463       0.264974112333212     
  0.265830223744962       0.266686335156712       0.267075161726521     
  0.267931273138270       0.268787384550020       0.269643495961769     
  0.270499607373518       0.271355718785268       0.272211830197018     
  0.273067941608767       0.273924053020516       0.274780164432266     
  0.275636275844015       0.276492387255765       0.277348498667514     
  0.278204610079263       0.279060721491013       0.279916832902762     
  0.280772944314512       0.281629055726261       0.282485167138011     
  0.283341278549760       0.284197389961509       0.285053501373259     
  0.285909612785008       0.286765724196757       0.287621835608507     
  0.288477947020256       0.288493913069304       0.289350024481054     
  0.290206135892803       0.291062247304553       0.291918358716302     
  0.292774470128051       0.293630581539801       0.294486692951550     
  0.295342804363300       0.296198915775049       0.297055027186798     
  0.297911138598548       0.298767250010297       0.299623361422047     
  0.300479472833796       0.301335584245546       0.302191695657295     
  0.303047807069044       0.303903918480794       0.304760029892543     
  0.305616141304293       0.306472252716042       0.307328364127791     
  0.308184475539541       0.309040586951290       0.309896698363039     
  0.309173323117451       0.310029434529200       0.310885545940950     
  0.311741657352699       0.312597768764449       0.313453880176199     
  0.314309991587947       0.315166102999697       0.316022214411447     
  0.316878325823196       0.317734437234946       0.318590548646695     
  0.319446660058445       0.320302771470193       0.321158882881943     
  0.322014994293692       0.322871105705441       0.323727217117192     
  0.324583328528941       0.325439439940690       0.326295551352440     
  0.327151662764190       0.328007774175939       0.328863885587688     
  0.329719996999437       0.330576108411187       0.328759561431622     
  0.329615672843372       0.330471784255121       0.331327895666870     
  0.332184007078620       0.333040118490369       0.333896229902119     
  0.334752341313869       0.335608452725618       0.336464564137367     
  0.337320675549117       0.338176786960867       0.339032898372616     
  0.339889009784365       0.340745121196115       0.341601232607863     
  0.342457344019613       0.343313455431363       0.344169566843112     
  0.345025678254861       0.345881789666611       0.346737901078360     
  0.347594012490110       0.348450123901859       0.349306235313608     
  0.350162346725358       0.346917502043931       0.347773613455681     
  0.348629724867430       0.349485836279180       0.350341947690929     
  0.351198059102679       0.352054170514428       0.352910281926177     
  0.353766393337926       0.354622504749676       0.355478616161426     
  0.356334727573176       0.357190838984925       0.358046950396674     
  0.358903061808423       0.359759173220173       0.360615284631922     
  0.361471396043672       0.362327507455421       0.363183618867171     
  0.364039730278920       0.364895841690669       0.365751953102420     
  0.366608064514168       0.367464175925917       0.368320287337667     
  0.363336457556169       0.364192568967918       0.365048680379668     
  0.365904791791417       0.366760903203167       0.367617014614917     
  0.368473126026665       0.369329237438415       0.370185348850164     
  0.371041460261914       0.371897571673663       0.372753683085413     
  0.373609794497162       0.374465905908912       0.375322017320661     
  0.376178128732411       0.377034240144160       0.377890351555910     
  0.378746462967659       0.379602574379408       0.380458685791158     
  0.381314797202907       0.382170908614657       0.383027020026406     
  0.383883131438156       0.384739242849905       0.377735495087327     
  0.378591606499075       0.379447717910826       0.380303829322576     
  0.381159940734325       0.382016052146073       0.382872163557824     
  0.383728274969574       0.384584386381323       0.385440497793071     
  0.386296609204821       0.387152720616570       0.388008832028320     
  0.388864943440069       0.389721054851819       0.390577166263568     
  0.391433277675318       0.392289389087067       0.393145500498816     
  0.394001611910566       0.394857723322315       0.395713834734066     
  0.396569946145814       0.397426057557564       0.398282168969313     
  0.399138280381063       0.389868243113079       0.390724354524829     
  0.391580465936578       0.392436577348327       0.393292688760077     
  0.394148800171827       0.395004911583575       0.395861022995326     
  0.396717134407074       0.397573245818824       0.398429357230573     
  0.399285468642322       0.400141580054072       0.400997691465822     
  0.401853802877571       0.402709914289320       0.403566025701070     
  0.404422137112819       0.405278248524569       0.406134359936318     
  0.406990471348067       0.407846582759817       0.408702694171566     
  0.409558805583315       0.410414916995065       0.411271028406814     
  0.399527106950871       0.400383218362621       0.401239329774371     
  0.402095441186119       0.402951552597870       0.403807664009618     
  0.404663775421368       0.405519886833118       0.406375998244867     
  0.407232109656617       0.408088221068367       0.408944332480115     
  0.409800443891865       0.410656555303614       0.411512666715364     
  0.412368778127113       0.413224889538863       0.414081000950612     
  0.414937112362361       0.415793223774111       0.416649335185861     
  0.417505446597609       0.418361558009359       0.419217669421108     
  0.420073780832858       0.420929892244607       0.406546820762497     
  0.407402932174247       0.408259043585996       0.409115154997746     
  0.409971266409495       0.410827377821244       0.411683489232994     
  0.412539600644743       0.413395712056493       0.414251823468242     
  0.415107934879991       0.415964046291740       0.416820157703490     
  0.417676269115240       0.418532380526989       0.419388491938739     
  0.420244603350488       0.421100714762238       0.421956826173986     
  0.422812937585736       0.423669048997485       0.424525160409235     
  0.425381271820984       0.426237383232734       0.427093494644483     
  0.427949606056233       0.410807275298407       0.411663386710156     
  0.412519498121905       0.413375609533654       0.414231720945404     
  0.415087832357154       0.415943943768904       0.416800055180652     
  0.417656166592401       0.418512278004151       0.419368389415902     
  0.420224500827650       0.421080612239399       0.421936723651149     
  0.422792835062898       0.423648946474648       0.424505057886398     
  0.425361169298146       0.426217280709896       0.427073392121645     
  0.427929503533395       0.428785614945144       0.429641726356893     
  0.430497837768643       0.431353949180392       0.432210060592142     
  0.412235573000268       0.413091684412018       0.413947795823768     
  0.414803907235517       0.415660018647267       0.416516130059017     
  0.417372241470766       0.418228352882515       0.419084464294265     
  0.419940575706014       0.420796687117763       0.421652798529512     
  0.422508909941262       0.423365021353011       0.424221132764761     
  0.425077244176510       0.425933355588259       0.426789467000009     
  0.427645578411758       0.428501689823508       0.429357801235257     
  0.430213912647007       0.431070024058756       0.431926135470505     
  0.432782246882255       0.433638358294004     
  9.454190563355264E-002  9.305040566305350E-002  9.155890569255427E-002
  9.006740572205503E-002  8.857590575155608E-002  8.708440578105689E-002
  8.559290581055767E-002  8.410140584005846E-002  8.260990586955921E-002
  8.111840589906000E-002  7.962690592856096E-002  7.813540595806162E-002
  7.664390598756264E-002  7.515240601706338E-002  7.366090604656424E-002
  7.216940607606503E-002  7.067790610556590E-002  6.918640613506678E-002
  6.769490616456739E-002  6.620340619406845E-002  6.471190622356905E-002
  6.322040625307000E-002  6.172890628257075E-002  6.023740631207160E-002
  5.874590634157242E-002  5.725440637107326E-002  9.536173934868891E-002
  9.387023937818986E-002  9.237873940769065E-002  9.088723943719131E-002
  8.939573946669216E-002  8.790423949619287E-002  8.641273952569406E-002
  8.492123955519466E-002  8.342973958469561E-002  8.193823961419629E-002
  8.044673964369718E-002  7.895523967319784E-002  7.746373970269885E-002
  7.597223973219953E-002  7.448073976170029E-002  7.298923979120110E-002
  7.149773982070198E-002  7.000623985020279E-002  6.851473987970362E-002
  6.702323990920442E-002  6.553173993870534E-002  6.404023996820618E-002
  6.254873999770702E-002  6.105724002720779E-002  5.956574005670855E-002
  5.807424008620943E-002  9.780721291193051E-002  9.631571294143147E-002
  9.482421297093223E-002  9.333271300043293E-002  9.184121302993388E-002
  9.034971305943471E-002  8.885821308893560E-002  8.736671311843634E-002
  8.587521314793727E-002  8.438371317743790E-002  8.289221320693882E-002
  8.140071323643963E-002  7.990921326594037E-002  7.841771329544131E-002
  7.692621332494209E-002  7.543471335444282E-002  7.394321338394368E-002
  7.245171341344450E-002  7.096021344294530E-002  6.946871347244632E-002
  6.797721350194699E-002  6.648571353144792E-002  6.499421356094866E-002
  6.350271359044948E-002  6.201121361995022E-002  6.051971364945109E-002
  0.101836483592597       0.100344983622098       9.885348365159907E-002
  9.736198368109990E-002  9.587048371060085E-002  9.437898374010159E-002
  9.288748376960242E-002  9.139598379910314E-002  8.990448382860403E-002
  8.841298385810482E-002  8.692148388760550E-002  8.542998391710657E-002
  8.393848394660733E-002  8.244698397610804E-002  8.095548400560887E-002
  7.946398403510985E-002  7.797248406461071E-002  7.648098409411128E-002
  7.498948412361221E-002  7.349798415311305E-002  7.200648418261379E-002
  7.051498421211462E-002  6.902348424161542E-002  6.753198427111645E-002
  6.604048430061718E-002  6.454898433011802E-002  0.107380609452218     
  0.105889109481719       0.104397609511220       0.102906109540721     
  0.101414609570222       9.992310959972245E-002  9.843160962922305E-002
  9.694010965872407E-002  9.544860968822466E-002  9.395710971772558E-002
  9.246560974722634E-002  9.097410977672730E-002  8.948260980622805E-002
  8.799110983572898E-002  8.649960986522977E-002  8.500810989473055E-002
  8.351660992423143E-002  8.202510995373224E-002  8.053360998323310E-002
  7.904211001273372E-002  7.755061004223472E-002  7.605911007173526E-002
  7.456761010123629E-002  7.307611013073739E-002  7.158461016023790E-002
  7.009311018973878E-002  0.114344728960213       0.112853228989714     
  0.111361729019215       0.109870229048715       0.108378729078216     
  0.106887229107717       0.105395729137218       0.103904229166719     
  0.102412729196220       0.100921229225721       9.942972925522149E-002
  9.793822928472182E-002  9.644672931422257E-002  9.495522934372343E-002
  9.346372937322441E-002  9.197222940272511E-002  9.048072943222606E-002
  8.898922946172676E-002  8.749772949122774E-002  8.600622952072862E-002
  8.451472955022936E-002  8.302322957973014E-002  8.153172960923083E-002
  8.004022963873179E-002  7.854872966823273E-002  7.705722969773322E-002
  0.122609684100981       0.121118184130482       0.119626684159982     
  0.118135184189483       0.116643684218984       0.115152184248485     
  0.113660684277986       0.112169184307486       0.110677684336987     
  0.109186184366488       0.107694684395989       0.106203184425490     
  0.104711684454991       0.103220184484491       0.101728684513992     
  0.100237184543493       9.874568457299387E-002  9.725418460249476E-002
  9.576268463199550E-002  9.427118466149642E-002  9.277968469099734E-002
  9.128818472049807E-002  8.979668474999868E-002  8.830518477949988E-002
  8.681368480900056E-002  8.532218483850142E-002  0.132034059200585     
  0.130542559230086       0.129051059259586       0.127559559289088     
  0.126068059318588       0.124576559348089       0.123085059377590     
  0.121593559407091       0.120102059436592       0.118610559466093     
  0.117119059495593       0.115627559525094       0.114136059554595     
  0.112644559584096       0.111153059613597       0.109661559643097     
  0.108170059672598       0.106678559702099       0.105187059731600     
  0.103695559761100       0.102204059790602       0.100712559820102     
  9.922105984960325E-002  9.772955987910409E-002  9.623805990860472E-002
  9.474655993810578E-002  0.142456600588141       0.140965100617642     
  0.139473600647143       0.137982100676644       0.136490600706144     
  0.134999100735645       0.133507600765146       0.132016100794647     
  0.130524600824148       0.129033100853648       0.127541600883149     
  0.126050100912650       0.124558600942151       0.123067100971652     
  0.121575601001153       0.120084101030653       0.118592601060154     
  0.117101101089655       0.115609601119156       0.114118101148657     
  0.112626601178157       0.111135101207658       0.109643601237159     
  0.108152101266660       0.106660601296161       0.105169101325662     
  0.153698975690833       0.152207475720334       0.150715975749835     
  0.149224475779336       0.147732975808836       0.146241475838337     
  0.144749975867838       0.143258475897339       0.141766975926840     
  0.140275475956341       0.138783975985841       0.137292476015342     
  0.135800976044843       0.134309476074344       0.132817976103845     
  0.131326476133345       0.129834976162846       0.128343476192347     
  0.126851976221848       0.125360476251349       0.123868976280850     
  0.122377476310350       0.120885976339851       0.119394476369352     
  0.117902976398853       0.116411476428354       0.165568824353679     
  0.164077324383180       0.162585824412681       0.161094324442182     
  0.159602824471683       0.158111324501183       0.156619824530684     
  0.155128324560185       0.153636824589686       0.152145324619186     
  0.150653824648687       0.149162324678188       0.147670824707689     
  0.146179324737190       0.144687824766691       0.143196324796191     
  0.141704824825692       0.140213324855193       0.138721824884694     
  0.137230324914195       0.135738824943695       0.134247324973196     
  0.132755825002697       0.131264325032198       0.129772825061699     
  0.128281325091200       0.177863050175114       0.176371550204615     
  0.174880050234116       0.173388550263616       0.171897050293117     
  0.170405550322618       0.168914050352118       0.167422550381619     
  0.165931050411120       0.164439550440621       0.162948050470122     
  0.161456550499623       0.159965050529124       0.158473550558625     
  0.156982050588126       0.155490550617626       0.153999050647127     
  0.152507550676628       0.151016050706129       0.149524550735629     
  0.148033050765130       0.146541550794631       0.145050050824132     
  0.143558550853633       0.142067050883134       0.140575550912634     
  0.190371295542729       0.188879795572230       0.187388295601731     
  0.185896795631232       0.184405295660733       0.182913795690233     
  0.181422295719734       0.179930795749235       0.178439295778736     
  0.176947795808236       0.175456295837737       0.173964795867238     
  0.172473295896739       0.170981795926240       0.169490295955741     
  0.167998795985242       0.166507296014742       0.165015796044244     
  0.163524296073744       0.162032796103245       0.160541296132746     
  0.159049796162247       0.157558296191748       0.156066796221248     
  0.154575296250749       0.153083796280250       0.202879540910345     
  0.201388040939845       0.199896540969347       0.198405040998847     
  0.196913541028348       0.195422041057849       0.193930541087350     
  0.192439041116851       0.190947541146352       0.189456041175853     
  0.187964541205353       0.186473041234855       0.184981541264355     
  0.183490041293856       0.181998541323356       0.180507041352857     
  0.179015541382358       0.177524041411859       0.176032541441360     
  0.174541041470861       0.173049541500361       0.171558041529862     
  0.170066541559363       0.168575041588864       0.167083541618364     
  0.165592041647865       0.215173766731780       0.213682266761281     
  0.212190766790781       0.210699266820282       0.209207766849783     
  0.207716266879284       0.206224766908785       0.204733266938286     
  0.203241766967786       0.201750266997287       0.200258767026787     
  0.198767267056289       0.197275767085789       0.195784267115291     
  0.194292767144791       0.192801267174292       0.191309767203792     
  0.189818267233294       0.188326767262794       0.186835267292295     
  0.185343767321796       0.183852267351297       0.182360767380797     
  0.180869267410299       0.179377767439799       0.177886267469300     
  0.227043615394626       0.225552115424126       0.224060615453628     
  0.222569115483128       0.221077615512629       0.219586115542130     
  0.218094615571630       0.216603115601131       0.215111615630632     
  0.213620115660133       0.212128615689634       0.210637115719135     
  0.209145615748635       0.207654115778136       0.206162615807637     
  0.204671115837137       0.203179615866638       0.201688115896140     
  0.200196615925640       0.198705115955141       0.197213615984642     
  0.195722116014143       0.194230616043644       0.192739116073145     
  0.191247616102645       0.189756116132146       0.238285990497318     
  0.236794490526819       0.235302990556320       0.233811490585820     
  0.232319990615321       0.230828490644822       0.229336990674323     
  0.227845490703824       0.226353990733324       0.224862490762825     
  0.223370990792326       0.221879490821827       0.220387990851328     
  0.218896490880829       0.217404990910330       0.215913490939830     
  0.214421990969330       0.212930490998831       0.211438991028332     
  0.209947491057833       0.208455991087334       0.206964491116835     
  0.205472991146335       0.203981491175836       0.202489991205337     
  0.200998491234838       0.248708531884873       0.247217031914374     
  0.245725531943875       0.244234031973376       0.242742532002877     
  0.241251032032378       0.239759532061879       0.238268032091379     
  0.236776532120881       0.235285032150381       0.233793532179882     
  0.232302032209382       0.230810532238883       0.229319032268384     
  0.227827532297885       0.226336032327386       0.224844532356887     
  0.223353032386388       0.221861532415889       0.220370032445390     
  0.218878532474890       0.217387032504391       0.215895532533892     
  0.214404032563393       0.212912532592893       0.211421032622394     
  0.258132906984478       0.256641407013978       0.255149907043480     
  0.253658407072980       0.252166907102481       0.250675407131982     
  0.249183907161482       0.247692407190984       0.246200907220484     
  0.244709407249985       0.243217907279485       0.241726407308987     
  0.240234907338487       0.238743407367988       0.237251907397489     
  0.235760407426990       0.234268907456491       0.232777407485992     
  0.231285907515493       0.229794407544994       0.228302907574494     
  0.226811407603995       0.225319907633496       0.223828407662997     
  0.222336907692498       0.220845407721998       0.266397862125246     
  0.264906362154746       0.263414862184248       0.261923362213748     
  0.260431862243249       0.258940362272750       0.257448862302251     
  0.255957362331751       0.254465862361253       0.252974362390753     
  0.251482862420254       0.249991362449755       0.248499862479256     
  0.247008362508756       0.245516862538257       0.244025362567758     
  0.242533862597259       0.241042362626761       0.239550862656261     
  0.238059362685761       0.236567862715262       0.235076362744763     
  0.233584862774264       0.232093362803764       0.230601862833265     
  0.229110362862767       0.273361981633240       0.271870481662741     
  0.270378981692242       0.268887481721743       0.267395981751244     
  0.265904481780745       0.264412981810245       0.262921481839746     
  0.261429981869247       0.259938481898748       0.258446981928249     
  0.256955481957749       0.255463981987250       0.253972482016751     
  0.252480982046252       0.250989482075753       0.249497982105254     
  0.248006482134754       0.246514982164255       0.245023482193756     
  0.243531982223257       0.242040482252757       0.240548982282258     
  0.239057482311759       0.237565982341260       0.236074482370761     
  0.278906107492861       0.277414607522361       0.275923107551863     
  0.274431607581363       0.272940107610865       0.271448607640366     
  0.269957107669866       0.268465607699367       0.266974107728867     
  0.265482607758368       0.263991107787869       0.262499607817369     
  0.261008107846871       0.259516607876372       0.258025107905872     
  0.256533607935374       0.255042107964875       0.253550607994375     
  0.252059108023876       0.250567608053377       0.249076108082878     
  0.247584608112378       0.246093108141879       0.244601608171380     
  0.243110108200881       0.241618608230382       0.282935378173528     
  0.281443878203029       0.279952378232530       0.278460878262031     