 Title = "Wing and Wake"
 VARIABLES = "X" "Y" "Z" "GAM"
 Zone I=   26 J=   25 K=1  T="Blade"
 DATAPACKING=BLOCK
 VARLOCATION=([4]=CELLCENTERED)
 -4.268991472756115E-002 -4.097018293731937E-002 -3.925045114707765E-002
 -3.753071935683595E-002 -3.581098756659433E-002 -3.409125577635255E-002
 -3.237152398611086E-002 -3.065179219586910E-002 -2.893206040562735E-002
 -2.721232861538566E-002 -2.549259682514400E-002 -2.377286503490216E-002
 -2.205313324466052E-002 -2.033340145441877E-002 -1.861366966417716E-002
 -1.689393787393543E-002 -1.517420608369363E-002 -1.345447429345197E-002
 -1.173474250321016E-002 -1.001501071296851E-002 -8.295278922726719E-003
 -6.575547132485060E-003 -4.855815342243330E-003 -3.136083552001612E-003
 -1.416351761759876E-003  3.033800284818462E-004 -4.268547636968111E-002
 -4.096574457943938E-002 -3.924601278919763E-002 -3.752628099895583E-002
 -3.580654920871416E-002 -3.408681741847239E-002 -3.236708562823076E-002
 -3.064735383798901E-002 -2.892762204774734E-002 -2.720789025750553E-002
 -2.548815846726388E-002 -2.376842667702215E-002 -2.204869488678045E-002
 -2.032896309653875E-002 -1.860923130629690E-002 -1.688949951605519E-002
 -1.516976772581352E-002 -1.345003593557179E-002 -1.173030414533002E-002
 -1.001057235508834E-002 -8.290840564846687E-003 -6.571108774604913E-003
 -4.851376984363253E-003 -3.131645194121568E-003 -1.411913403879715E-003
  3.078183863619035E-004 -4.267223723757460E-002 -4.095250544733289E-002
 -3.923277365709112E-002 -3.751304186684942E-002 -3.579331007660771E-002
 -3.407357828636598E-002 -3.235384649612436E-002 -3.063411470588251E-002
 -2.891438291564086E-002 -2.719465112539909E-002 -2.547491933515741E-002
 -2.375518754491564E-002 -2.203545575467399E-002 -2.031572396443223E-002
 -1.859599217419055E-002 -1.687626038394875E-002 -1.515652859370709E-002
 -1.343679680346532E-002 -1.171706501322370E-002 -9.997333222981958E-003
 -8.277601432740190E-003 -6.557869642498534E-003 -4.838137852256745E-003
 -3.118406062015092E-003 -1.398674271773286E-003  3.210575184683973E-004
 -4.265042385646272E-002 -4.093069206622097E-002 -3.921096027597938E-002
 -3.749122848573755E-002 -3.577149669549597E-002 -3.405176490525415E-002
 -3.233203311501243E-002 -3.061230132477071E-002 -2.889256953452899E-002
 -2.717283774428727E-002 -2.545310595404547E-002 -2.373337416380383E-002
 -2.201364237356215E-002 -2.029391058332039E-002 -1.857417879307861E-002
 -1.685444700283701E-002 -1.513471521259528E-002 -1.341498342235355E-002
 -1.169525163211176E-002 -9.975519841870110E-003 -8.255788051628309E-003
 -6.536056261386642E-003 -4.816324471144923E-003 -3.096592680903201E-003
 -1.376860890661527E-003  3.428708995802750E-004 -4.262040945934404E-002
 -4.090067766910226E-002 -3.918094587886055E-002 -3.746121408861895E-002
 -3.574148229837726E-002 -3.402175050813548E-002 -3.230201871789382E-002
 -3.058228692765209E-002 -2.886255513741028E-002 -2.714282334716856E-002
 -2.542309155692695E-002 -2.370335976668519E-002 -2.198362797644351E-002
 -2.026389618620176E-002 -1.854416439596001E-002 -1.682443260571833E-002
 -1.510470081547654E-002 -1.338496902523496E-002 -1.166523723499312E-002
 -9.945505444751370E-003 -8.225773654509739E-003 -6.506041864268022E-003
 -4.786310074026184E-003 -3.066578283784620E-003 -1.346846493542867E-003
  3.728852966988858E-004 -4.258270760087492E-002 -4.086297581063320E-002
 -3.914324402039149E-002 -3.742351223014964E-002 -3.570378043990809E-002
 -3.398404864966629E-002 -3.226431685942470E-002 -3.054458506918281E-002
 -2.882485327894124E-002 -2.710512148869960E-002 -2.538538969845784E-002
 -2.366565790821611E-002 -2.194592611797428E-002 -2.022619432773262E-002
 -1.850646253749083E-002 -1.678673074724918E-002 -1.506699895700747E-002
 -1.334726716676580E-002 -1.162753537652409E-002 -9.907803586282344E-003
 -8.188071796040605E-003 -6.468340005798820E-003 -4.748608215557086E-003
 -3.028876425315508E-003 -1.309144635073742E-003  4.105871551681116E-004
 -4.253796337030654E-002 -4.081823158006483E-002 -3.909849978982307E-002
 -3.737876799958142E-002 -3.565903620933972E-002 -3.393930441909801E-002
 -3.221957262885627E-002 -3.049984083861458E-002 -2.878010904837278E-002
 -2.706037725813108E-002 -2.534064546788941E-002 -2.362091367764764E-002
 -2.190118188740595E-002 -2.018145009716432E-002 -1.846171830692260E-002
 -1.674198651668085E-002 -1.502225472643912E-002 -1.330252293619741E-002
 -1.158279114595566E-002 -9.863059355713953E-003 -8.143327565472275E-003
 -6.423595775230501E-003 -4.703863984988721E-003 -2.984132194747072E-003
 -1.264400404505396E-003  4.553313857363584E-004 -4.248694235382951E-002
 -4.076721056358788E-002 -3.904747877334614E-002 -3.732774698310444E-002
 -3.560801519286268E-002 -3.388828340262094E-002 -3.216855161237925E-002
 -3.044881982213754E-002 -2.872908803189580E-002 -2.700935624165420E-002
 -2.528962445141245E-002 -2.356989266117061E-002 -2.185016087092891E-002
 -2.013042908068729E-002 -1.841069729044562E-002 -1.669096550020383E-002
 -1.497123370996205E-002 -1.325150191972032E-002 -1.153177012947865E-002
 -9.812038339236847E-003 -8.092306548995138E-003 -6.372574758753489E-003
 -4.652842968511765E-003 -2.933111178270051E-003 -1.213379388028304E-003
  5.063524022133784E-004 -4.243051753518146E-002 -4.071078574493973E-002
 -3.899105395469794E-002 -3.727132216445628E-002 -3.555159037421459E-002
 -3.383185858397280E-002 -3.211212679373118E-002 -3.039239500348932E-002
 -2.867266321324765E-002 -2.695293142300599E-002 -2.523319963276409E-002
 -2.351346784252251E-002 -2.179373605228068E-002 -2.007400426203913E-002
 -1.835427247179748E-002 -1.663454068155562E-002 -1.491480889131394E-002
 -1.319507710107227E-002 -1.147534531083058E-002 -9.755613520588758E-003
 -8.035881730347073E-003 -6.316149940105325E-003 -4.596418149863546E-003
 -2.876686359621826E-003 -1.156954569380227E-003  5.627772208615506E-004
 -4.236965435865310E-002 -4.064992256841143E-002 -3.893019077816984E-002
 -3.721045898792820E-002 -3.549072719768634E-002 -3.377099540744446E-002
 -3.205126361720292E-002 -3.033153182696121E-002 -2.861180003671949E-002
 -2.689206824647773E-002 -2.517233645623605E-002 -2.345260466599432E-002
 -2.173287287575251E-002 -2.001314108551084E-002 -1.829340929526920E-002
 -1.657367750502728E-002 -1.485394571478570E-002 -1.313421392454399E-002
 -1.141448213430226E-002 -9.694750344060544E-003 -7.975018553818687E-003
 -6.255286763577155E-003 -4.535554973335278E-003 -2.815823183093621E-003
 -1.096091392852083E-003  6.236403973897205E-004 -4.230539421006969E-002
 -4.058566241982790E-002 -3.886593062958636E-002 -3.714619883934472E-002
 -3.542646704910298E-002 -3.370673525886119E-002 -3.198700346861934E-002
 -3.026727167837764E-002 -2.854753988813602E-002 -2.682780809789428E-002
 -2.510807630765249E-002 -2.338834451741071E-002 -2.166861272716902E-002
 -1.994888093692748E-002 -1.822914914668562E-002 -1.650941735644386E-002
 -1.478968556620209E-002 -1.306995377596056E-002 -1.135022198571859E-002
 -9.630490195477065E-003 -7.910758405235193E-003 -6.191026614993576E-003
 -4.471294824751794E-003 -2.751563034510184E-003 -1.031831244268353E-003
  6.879005459732258E-004 -4.223883659838942E-002 -4.051910480814781E-002
 -3.879937301790621E-002 -3.707964122766435E-002 -3.535990943742266E-002
 -3.364017764718090E-002 -3.192044585693916E-002 -3.020071406669741E-002
 -2.848098227645564E-002 -2.676125048621403E-002 -2.504151869597222E-002
 -2.332178690573067E-002 -2.160205511548887E-002 -1.988232332524732E-002
 -1.816259153500555E-002 -1.644285974476372E-002 -1.472312795452227E-002
 -1.300339616428043E-002 -1.128366437403845E-002 -9.563932583796770E-003
 -7.844200793555110E-003 -6.124469003313487E-003 -4.404737213071811E-003
 -2.685005422830092E-003 -9.652736325884294E-004  7.544581576535964E-004
 -4.217112034280178E-002 -4.045138855255995E-002 -3.873165676231818E-002
 -3.701192497207673E-002 -3.529219318183490E-002 -3.357246139159304E-002
 -3.185272960135142E-002 -3.013299781110956E-002 -2.841326602086789E-002
 -2.669353423062609E-002 -2.497380244038452E-002 -2.325407065014279E-002
 -2.153433885990092E-002 -1.981460706965944E-002 -1.809487527941749E-002
 -1.637514348917593E-002 -1.465541169893424E-002 -1.293567990869249E-002
 -1.121594811845091E-002 -9.496216328209104E-003 -7.776484537967397E-003
 -6.056752747725595E-003 -4.337020957483906E-003 -2.617289167242115E-003
 -8.975573770006879E-004  8.221744132411277E-004 -4.210340408721400E-002
 -4.038367229697228E-002 -3.866394050673050E-002 -3.694420871648865E-002
 -3.522447692624709E-002 -3.350474513600540E-002 -3.178501334576372E-002
 -3.006528155552175E-002 -2.834554976528045E-002 -2.662581797503846E-002
 -2.490608618479670E-002 -2.318635439455511E-002 -2.146662260431343E-002
 -1.974689081407167E-002 -1.802715902382981E-002 -1.630742723358816E-002
 -1.458769544334655E-002 -1.286796365310471E-002 -1.114823186286288E-002
 -9.428500072621446E-003 -7.708768282379656E-003 -5.989036492137521E-003
 -4.269304701896175E-003 -2.549572911654611E-003 -8.298411214126586E-004
  8.898906688291314E-004 -4.203684647553360E-002 -4.031711468529214E-002
 -3.859738289505035E-002 -3.687765110480866E-002 -3.515791931456677E-002
 -3.343818752432536E-002 -3.171845573408320E-002 -2.999872394384179E-002
 -2.827899215360002E-002 -2.655926036335844E-002 -2.483952857311648E-002
 -2.311979678287496E-002 -2.140006499263302E-002 -1.968033320239140E-002
 -1.796060141214960E-002 -1.624086962190814E-002 -1.452113783166620E-002
 -1.280140604142456E-002 -1.108167425118293E-002 -9.361942460941027E-003
 -7.642210670699279E-003 -5.922478880457606E-003 -4.202747090215887E-003
 -2.483015299974362E-003 -7.632835097325891E-004  9.564482805092430E-004
 -4.197258632695009E-002 -4.025285453670864E-002 -3.853312274646679E-002
 -3.681339095622508E-002 -3.509365916598332E-002 -3.337392737574164E-002
 -3.165419558549992E-002 -2.993446379525816E-002 -2.821473200501652E-002
 -2.649500021477483E-002 -2.477526842453322E-002 -2.305553663429135E-002
 -2.133580484404962E-002 -1.961607305380808E-002 -1.789634126356608E-002
 -1.617660947332447E-002 -1.445687768308277E-002 -1.273714589284104E-002
 -1.101741410259910E-002 -9.297682312357353E-003 -7.577950522115949E-003
 -5.858218731874231E-003 -4.138486941632556E-003 -2.418755151390820E-003
 -6.990233611489481E-004  1.020708429092520E-003 -4.191172315042201E-002
 -4.019199136018034E-002 -3.847225956993869E-002 -3.675252777969681E-002
 -3.503279598945541E-002 -3.331306419921352E-002 -3.159333240897166E-002
 -2.987360061872998E-002 -2.815386882848827E-002 -2.643413703824654E-002
 -2.471440524800458E-002 -2.299467345776289E-002 -2.127494166752135E-002
 -1.955520987727979E-002 -1.783547808703793E-002 -1.611574629679632E-002
 -1.439601450655431E-002 -1.267628271631248E-002 -1.095655092607105E-002
 -9.236819135829270E-003 -7.517087345587584E-003 -5.797355555345938E-003
 -4.077623765104160E-003 -2.357891974862411E-003 -6.381601846207478E-004
  1.081571605620982E-003 -4.185529833177394E-002 -4.013556654153213E-002
 -3.841583475129052E-002 -3.669610296104878E-002 -3.497637117080708E-002
 -3.325663938056542E-002 -3.153690759032381E-002 -2.981717580008175E-002
 -2.809744400984027E-002 -2.637771221959812E-002 -2.465798042935691E-002
 -2.293824863911473E-002 -2.121851684887307E-002 -1.949878505863157E-002
 -1.777905326838970E-002 -1.605932147814798E-002 -1.433958968790647E-002
 -1.261985789766453E-002 -1.090012610742301E-002 -9.180394317181316E-003
 -7.460662526939473E-003 -5.740930736697725E-003 -4.021198946456078E-003
 -2.301467156214550E-003 -5.817353659731077E-004  1.137996424269290E-003
 -4.180427731529692E-002 -4.008454552505501E-002 -3.836481373481335E-002
 -3.664508194457190E-002 -3.492535015433001E-002 -3.320561836408823E-002
 -3.148588657384648E-002 -2.976615478360473E-002 -2.804642299336321E-002
 -2.632669120312123E-002 -2.460695941287939E-002 -2.288722762263789E-002
 -2.116749583239603E-002 -1.944776404215445E-002 -1.772803225191279E-002
 -1.600830046167098E-002 -1.428856867142928E-002 -1.256883688118764E-002
 -1.084910509094607E-002 -9.129373300704223E-003 -7.409641510462535E-003
 -5.689909720220843E-003 -3.970177929979236E-003 -2.250446139737476E-003
 -5.307143494957977E-004  1.189017440746241E-003 -4.175953308472841E-002
 -4.003980129448693E-002 -3.832006950424551E-002 -3.660033771400342E-002
 -3.488060592376151E-002 -3.316087413352008E-002 -3.144114234327829E-002
 -2.972141055303622E-002 -2.800167876279475E-002 -2.628194697255303E-002
 -2.456221518231124E-002 -2.284248339206944E-002 -2.112275160182805E-002
 -1.940301981158613E-002 -1.768328802134426E-002 -1.596355623110283E-002
 -1.424382444086113E-002 -1.252409265061965E-002 -1.080436086037777E-002
 -9.084629070135929E-003 -7.364897279893928E-003 -5.645165489652381E-003
 -3.925433699410618E-003 -2.205701909169124E-003 -4.859701189273480E-004
  1.233761671314119E-003 -4.172183122625920E-002 -4.000209943601723E-002
 -3.828236764577597E-002 -3.656263585553417E-002 -3.484290406529253E-002
 -3.312317227505075E-002 -3.140344048480896E-002 -2.968370869456715E-002
 -2.796397690432578E-002 -2.624424511408404E-002 -2.452451332384226E-002
 -2.280478153360061E-002 -2.108504974335882E-002 -1.936531795311699E-002
 -1.764558616287523E-002 -1.592585437263361E-002 -1.420612258239188E-002
 -1.248639079215009E-002 -1.076665900190843E-002 -9.046927211666765E-003
 -7.327195421424936E-003 -5.607463631183466E-003 -3.887731840941512E-003
 -2.168000050699873E-003 -4.482682604581843E-004  1.271463529783395E-003
 -4.169181682914080E-002 -3.997208503889868E-002 -3.825235324865708E-002
 -3.653262145841542E-002 -3.481288966817378E-002 -3.309315787793220E-002
 -3.137342608769028E-002 -2.965369429744850E-002 -2.793396250720683E-002
 -2.621423071696534E-002 -2.449449892672359E-002 -2.277476713648156E-002
 -2.105503534624014E-002 -1.933530355599864E-002 -1.761557176575620E-002
 -1.589583997551502E-002 -1.417610818527315E-002 -1.245637639503137E-002
 -1.073664460478971E-002 -9.016912814548190E-003 -7.297181024306318E-003
 -5.577449234064498E-003 -3.857717443822935E-003 -2.137985653581411E-003
 -4.182538633394702E-004  1.301477926902223E-003 -4.167000344802865E-002
 -3.995027165778733E-002 -3.823053986754534E-002 -3.651080807730371E-002
 -3.479107628706195E-002 -3.307134449682058E-002 -3.135161270657860E-002
 -2.963188091633680E-002 -2.791214912609515E-002 -2.619241733585348E-002
 -2.447268554561184E-002 -2.275295375537009E-002 -2.103322196512834E-002
 -1.931349017488652E-002 -1.759375838464506E-002 -1.587402659440290E-002
 -1.415429480416125E-002 -1.243456301391970E-002 -1.071483122367808E-002
 -8.995099433435901E-003 -7.275367643194666E-003 -5.555635852952837E-003
 -3.835904062711146E-003 -2.116172272469556E-003 -3.964404822276240E-004
  1.323291308014259E-003 -4.165676431592223E-002 -3.993703252568079E-002
 -3.821730073543875E-002 -3.649756894519751E-002 -3.477783715495580E-002
 -3.305810536471375E-002 -3.133837357447184E-002 -2.961864178423028E-002
 -2.789890999398883E-002 -2.617917820374704E-002 -2.445944641350526E-002
 -2.273971462326379E-002 -2.101998283302170E-002 -1.930025104278007E-002
 -1.758051925253831E-002 -1.586078746229662E-002 -1.414105567205466E-002
 -1.242132388181309E-002 -1.070159209157157E-002 -8.981860301329895E-003
 -7.262128511087826E-003 -5.542396720846218E-003 -3.822664930604554E-003
 -2.102933140363089E-003 -3.832013501211884E-004  1.336530440120562E-003
 -4.165232595804244E-002 -3.993259416780068E-002 -3.821286237755867E-002
 -3.649313058731723E-002 -3.477339879707540E-002 -3.305366700683364E-002
 -3.133393521659174E-002 -2.961420342635027E-002 -2.789447163610834E-002
 -2.617473984586665E-002 -2.445500805562502E-002 -2.273527626538367E-002
 -2.101554447514169E-002 -1.929581268490023E-002 -1.757608089465815E-002
 -1.585634910441645E-002 -1.413661731417468E-002 -1.241688552393297E-002
 -1.069715373369130E-002 -8.977421943449825E-003 -7.257690153208021E-003
 -5.537958362966524E-003 -3.818226572724609E-003 -2.098494782482790E-003
 -3.787629922411714E-004  1.340968798000715E-003
  0.115115468902114       0.115110834146601       0.115106199391089     
  0.115101564635576       0.115096929880064       0.115092295124551     
  0.115087660369039       0.115083025613526       0.115078390858014     
  0.115073756102501       0.115069121346989       0.115064486591476     
  0.115059851835964       0.115055217080451       0.115050582324939     
  0.115045947569426       0.115041312813913       0.115036678058401     
  0.115032043302888       0.115027408547376       0.115022773791863     
  0.115018139036351       0.115013504280838       0.115008869525326     
  0.115004234769813       0.114999600014301       0.116762327106878     
  0.116757692351365       0.116753057595853       0.116748422840340     
  0.116743788084828       0.116739153329315       0.116734518573803     
  0.116729883818290       0.116725249062778       0.116720614307265     
  0.116715979551753       0.116711344796240       0.116706710040728     
  0.116702075285215       0.116697440529702       0.116692805774190     
  0.116688171018678       0.116683536263165       0.116678901507652     
  0.116674266752140       0.116669631996627       0.116664997241115     
  0.116660362485602       0.116655727730090       0.116651092974577     
  0.116646458219065       0.121674723520691       0.121670088765179     
  0.121665454009666       0.121660819254153       0.121656184498641     
  0.121651549743128       0.121646914987616       0.121642280232103     
  0.121637645476591       0.121633010721078       0.121628375965566     
  0.121623741210053       0.121619106454541       0.121614471699028     
  0.121609836943516       0.121605202188003       0.121600567432491     
  0.121595932676978       0.121591297921466       0.121586663165953     
  0.121582028410441       0.121577393654928       0.121572758899415     
  0.121568124143903       0.121563489388390       0.121558854632878     
  0.129768605678940       0.129763970923427       0.129759336167915     
  0.129754701412402       0.129750066656890       0.129745431901377     
  0.129740797145865       0.129736162390352       0.129731527634839     
  0.129726892879327       0.129722258123814       0.129717623368302     
  0.129712988612789       0.129708353857277       0.129703719101764     
  0.129699084346252       0.129694449590739       0.129689814835226     
  0.129685180079714       0.129680545324201       0.129675910568689     
  0.129671275813176       0.129666641057664       0.129662006302151     
  0.129657371546639       0.129652736791126       0.140905485013848     
  0.140900850258335       0.140896215502822       0.140891580747310     
  0.140886945991798       0.140882311236285       0.140877676480773     
  0.140873041725260       0.140868406969747       0.140863772214235     
  0.140859137458722       0.140854502703210       0.140849867947697     
  0.140845233192185       0.140840598436672       0.140835963681160     
  0.140831328925647       0.140826694170135       0.140822059414622     
  0.140817424659109       0.140812789903597       0.140808155148084     
  0.140803520392572       0.140798885637059       0.140794250881547     
  0.140789616126034       0.154894806432268       0.154890171676756     
  0.154885536921243       0.154880902165731       0.154876267410218     
  0.154871632654706       0.154866997899193       0.154862363143681     
  0.154857728388168       0.154853093632656       0.154848458877143     
  0.154843824121630       0.154839189366118       0.154834554610606     
  0.154829919855093       0.154825285099581       0.154820650344068     
  0.154816015588556       0.154811380833043       0.154806746077530     
  0.154802111322018       0.154797476566505       0.154792841810993     
  0.154788207055480       0.154783572299968       0.154778937544455     
  0.171497208766161       0.171492574010648       0.171487939255136     
  0.171483304499623       0.171478669744110       0.171474034988598     
  0.171469400233085       0.171464765477573       0.171460130722060     
  0.171455495966548       0.171450861211035       0.171446226455523     
  0.171441591700010       0.171436956944498       0.171432322188985     
  0.171427687433473       0.171423052677960       0.171418417922447     
  0.171413783166935       0.171409148411423       0.171404513655910     
  0.171399878900397       0.171395244144885       0.171390609389372     
  0.171385974633860       0.171381339878347       0.190428620308535     
  0.190423985553023       0.190419350797510       0.190414716041998     
  0.190410081286485       0.190405446530973       0.190400811775460     
  0.190396177019948       0.190391542264435       0.190386907508923     
  0.190382272753410       0.190377637997898       0.190373003242385     
  0.190368368486872       0.190363733731360       0.190359098975847     
  0.190354464220335       0.190349829464823       0.190345194709310     
  0.190340559953797       0.190335925198285       0.190331290442772     
  0.190326655687260       0.190322020931747       0.190317386176235     
  0.190312751420722       0.211365119359124       0.211360484603611     
  0.211355849848099       0.211351215092586       0.211346580337074     
  0.211341945581561       0.211337310826049       0.211332676070536     
  0.211328041315024       0.211323406559511       0.211318771803998     
  0.211314137048486       0.211309502292974       0.211304867537461     
  0.211300232781948       0.211295598026436       0.211290963270923     
  0.211286328515411       0.211281693759898       0.211277059004386     
  0.211272424248873       0.211267789493361       0.211263154737848     
  0.211258519982336       0.211253885226823       0.211249250471310     
  0.233948476614476       0.233943841858964       0.233939207103451     
  0.233934572347939       0.233929937592426       0.233925302836914     
  0.233920668081401       0.233916033325889       0.233911398570376     
  0.233906763814863       0.233902129059351       0.233897494303838     
  0.233892859548326       0.233888224792813       0.233883590037301     
  0.233878955281788       0.233874320526276       0.233869685770763     
  0.233865051015251       0.233860416259738       0.233855781504226     
  0.233851146748713       0.233846511993201       0.233841877237688     
  0.233837242482176       0.233832607726663       0.257792284570664     
  0.257787649815152       0.257783015059639       0.257778380304127     
  0.257773745548614       0.257769110793101       0.257764476037589     
  0.257759841282077       0.257755206526564       0.257750571771052     
  0.257745937015539       0.257741302260027       0.257736667504514     
  0.257732032749001       0.257727397993489       0.257722763237976     
  0.257718128482464       0.257713493726951       0.257708858971439     
  0.257704224215926       0.257699589460414       0.257694954704901     
  0.257690319949389       0.257685685193876       0.257681050438364     
  0.257676415682851       0.282488569062805       0.282483934307292     
  0.282479299551780       0.282474664796267       0.282470030040754     
  0.282465395285242       0.282460760529729       0.282456125774217     
  0.282451491018704       0.282446856263192       0.282442221507680     
  0.282437586752168       0.282432951996655       0.282428317241142     
  0.282423682485630       0.282419047730117       0.282414412974604     
  0.282409778219092       0.282405143463579       0.282400508708067     
  0.282395873952554       0.282391239197042       0.282386604441529     
  0.282381969686017       0.282377334930504       0.282372700174992     
  0.307614769816134       0.307610135060621       0.307605500305109     
  0.307600865549596       0.307596230794084       0.307591596038571     
  0.307586961283059       0.307582326527546       0.307577691772034     
  0.307573057016520       0.307568422261008       0.307563787505495     
  0.307559152749983       0.307554517994471       0.307549883238959     
  0.307545248483446       0.307540613727933       0.307535978972421     
  0.307531344216908       0.307526709461396       0.307522074705883     
  0.307517439950371       0.307512805194858       0.307508170439345     
  0.307503535683833       0.307498900928320       0.332740970569463     
  0.332736335813950       0.332731701058438       0.332727066302925     
  0.332722431547412       0.332717796791900       0.332713162036388     
  0.332708527280875       0.332703892525363       0.332699257769850     
  0.332694623014337       0.332689988258825       0.332685353503313     
  0.332680718747799       0.332676083992287       0.332671449236774     
  0.332666814481262       0.332662179725750       0.332657544970237     
  0.332652910214724       0.332648275459212       0.332643640703699     
  0.332639005948186       0.332634371192674       0.332629736437162     
  0.332625101681649       0.357437255061603       0.357432620306091     
  0.357427985550578       0.357423350795066       0.357418716039553     
  0.357414081284041       0.357409446528528       0.357404811773015     
  0.357400177017503       0.357395542261990       0.357390907506478     
  0.357386272750965       0.357381637995453       0.357377003239941     
  0.357372368484428       0.357367733728915       0.357363098973403     
  0.357358464217890       0.357353829462377       0.357349194706865     
  0.357344559951352       0.357339925195840       0.357335290440327     
  0.357330655684815       0.357326020929302       0.357321386173790     
  0.381281063017791       0.381276428262278       0.381271793506766     
  0.381267158751253       0.381262523995741       0.381257889240229     
  0.381253254484716       0.381248619729203       0.381243984973691     
  0.381239350218178       0.381234715462666       0.381230080707153     
  0.381225445951641       0.381220811196128       0.381216176440616     
  0.381211541685103       0.381206906929590       0.381202272174078     
  0.381197637418565       0.381193002663054       0.381188367907540     
  0.381183733152028       0.381179098396516       0.381174463641003     
  0.381169828885490       0.381165194129978       0.403864420273144     
  0.403859785517631       0.403855150762118       0.403850516006606     
  0.403845881251093       0.403841246495581       0.403836611740069     
  0.403831976984556       0.403827342229043       0.403822707473531     
  0.403818072718018       0.403813437962506       0.403808803206993     
  0.403804168451480       0.403799533695969       0.403794898940456     
  0.403790264184943       0.403785629429431       0.403780994673918     
  0.403776359918405       0.403771725162893       0.403767090407381     
  0.403762455651868       0.403757820896355       0.403753186140843     
  0.403748551385330       0.424800919323732       0.424796284568220     
  0.424791649812707       0.424787015057195       0.424782380301682     
  0.424777745546170       0.424773110790657       0.424768476035144     
  0.424763841279631       0.424759206524119       0.424754571768607     
  0.424749937013094       0.424745302257582       0.424740667502070     
  0.424736032746557       0.424731397991044       0.424726763235532     
  0.424722128480019       0.424717493724507       0.424712858968994     
  0.424708224213482       0.424703589457969       0.424698954702457     
  0.424694319946944       0.424689685191431       0.424685050435919     
  0.443732330866107       0.443727696110594       0.443723061355082     
  0.443718426599569       0.443713791844057       0.443709157088544     
  0.443704522333032       0.443699887577519       0.443695252822006     
  0.443690618066494       0.443685983310982       0.443681348555469     
  0.443676713799956       0.443672079044444       0.443667444288931     
  0.443662809533419       0.443658174777906       0.443653540022394     
  0.443648905266881       0.443644270511369       0.443639635755857     
  0.443635001000344       0.443630366244831       0.443625731489319     
  0.443621096733806       0.443616461978294       0.460334733199999     
  0.460330098444486       0.460325463688974       0.460320828933461     
  0.460316194177949       0.460311559422436       0.460306924666924     
  0.460302289911412       0.460297655155899       0.460293020400386     
  0.460288385644874       0.460283750889361       0.460279116133848     
  0.460274481378336       0.460269846622824       0.460265211867311     
  0.460260577111798       0.460255942356286       0.460251307600773     
  0.460246672845261       0.460242038089748       0.460237403334236     
  0.460232768578723       0.460228133823211       0.460223499067698     
  0.460218864312186       0.474324054618420       0.474319419862907     
  0.474314785107395       0.474310150351882       0.474305515596369     
  0.474300880840857       0.474296246085345       0.474291611329832     
  0.474286976574320       0.474282341818807       0.474277707063294     
  0.474273072307781       0.474268437552269       0.474263802796757     
  0.474259168041244       0.474254533285732       0.474249898530219     
  0.474245263774706       0.474240629019194       0.474235994263682     
  0.474231359508169       0.474226724752657       0.474222089997144     
  0.474217455241631       0.474212820486119       0.474208185730607     
  0.485460933953328       0.485456299197815       0.485451664442303     
  0.485447029686790       0.485442394931278       0.485437760175765     
  0.485433125420253       0.485428490664740       0.485423855909227     
  0.485419221153715       0.485414586398203       0.485409951642690     
  0.485405316887178       0.485400682131665       0.485396047376152     
  0.485391412620640       0.485386777865127       0.485382143109615     
  0.485377508354102       0.485372873598590       0.485368238843077     
  0.485363604087564       0.485358969332052       0.485354334576540     
  0.485349699821027       0.485345065065514       0.493554816111577     
  0.493550181356064       0.493545546600551       0.493540911845039     