 Title = "Wing and Wake"
 VARIABLES = "X" "Y" "Z" "GAM"
 Zone I=   26 J=   25 K=1  T="Blade"
 DATAPACKING=BLOCK
 VARLOCATION=([4]=CELLCENTERED)
 -1.144652881002908E-002 -9.786575482713458E-003 -8.126622155397807E-003
 -6.466668828082274E-003 -4.806715500766836E-003 -3.146762173451302E-003
 -1.486808846135733E-003  1.731444811798135E-004  1.833097808495458E-003
  3.493051135811006E-003  5.153004463126473E-003  6.812957790442164E-003
  8.472911117757649E-003  1.013286444507319E-002  1.179281777238870E-002
  1.345277109970426E-002  1.511272442701986E-002  1.677267775433535E-002
  1.843263108165099E-002  2.009258440896652E-002  2.175253773628216E-002
  2.341249106359767E-002  2.507244439091324E-002  2.673239771822878E-002
  2.839235104554432E-002  3.005230437285992E-002 -1.101607251166954E-002
 -9.356119184353981E-003 -7.696165857038415E-003 -6.036212529722848E-003
 -4.376259202407292E-003 -2.716305875091688E-003 -1.056352547776199E-003
  6.036007795394275E-004  2.263554106854931E-003  3.923507434170560E-003
  5.583460761486026E-003  7.243414088801634E-003  8.903367416117179E-003
  1.056332074343261E-002  1.222327407074834E-002  1.388322739806383E-002
  1.554318072537945E-002  1.720313405269504E-002  1.886308738001053E-002
  2.052304070732603E-002  2.218299403464163E-002  2.384294736195720E-002
  2.550290068927271E-002  2.716285401658819E-002  2.882280734390390E-002
  3.048276067121937E-002 -9.732068843201028E-003 -8.072115515885461E-003
 -6.412162188569936E-003 -4.752208861254358E-003 -3.092255533938821E-003
 -1.432302206623188E-003  2.276511206922624E-004  1.887604448007872E-003
  3.547557775323451E-003  5.207511102639044E-003  6.867464429954590E-003
  8.527417757270214E-003  1.018737108458558E-002  1.184732441190130E-002
  1.350727773921670E-002  1.516723106653237E-002  1.682718439384787E-002
  1.848713772116340E-002  2.014709104847897E-002  2.180704437579453E-002
  2.346699770311012E-002  2.512695103042557E-002  2.678690435774129E-002
  2.844685768505670E-002  3.010681101237236E-002  3.176676433968791E-002
 -7.616487463384028E-003 -5.956534136068467E-003 -4.296580808753034E-003
 -2.636627481437272E-003 -9.766741541219024E-004  6.832791731937547E-004
  2.343232500509374E-003  4.003185827824834E-003  5.663139155140414E-003
  7.323092482455992E-003  8.983045809771634E-003  1.064299913708710E-002
  1.230295246440262E-002  1.396290579171813E-002  1.562285911903375E-002
  1.728281244634928E-002  1.894276577366481E-002  2.060271910098030E-002
  2.226267242829598E-002  2.392262575561145E-002  2.558257908292718E-002
  2.724253241024261E-002  2.890248573755819E-002  3.056243906487380E-002
  3.222239239218926E-002  3.388234571950485E-002 -4.705526556177148E-003
 -3.045573228861541E-003 -1.385619901546079E-003  2.743334257694560E-004
  1.934286753084951E-003  3.594240080400578E-003  5.254193407716122E-003
  6.914146735031666E-003  8.574100062347254E-003  1.023405338966285E-002
  1.189400671697828E-002  1.355396004429385E-002  1.521391337160937E-002
  1.687386669892498E-002  1.853382002624055E-002  2.019377335355611E-002
  2.185372668087173E-002  2.351368000818715E-002  2.517363333550281E-002
  2.683358666281837E-002  2.849353999013386E-002  3.015349331744943E-002
  3.181344664476513E-002  3.347339997208048E-002  3.513335329939608E-002
  3.679330662671170E-002 -1.048993469773808E-003  6.109598575418237E-004
  2.270913184857293E-003  3.930866512173031E-003  5.590819839488380E-003
  7.250773166803912E-003  8.910726494119385E-003  1.057067982143515E-002
  1.223063314875055E-002  1.389058647606607E-002  1.555053980338161E-002
  1.721049313069715E-002  1.887044645801295E-002  2.053039978532841E-002
  2.219035311264402E-002  2.385030643995948E-002  2.551025976727500E-002
  2.717021309459063E-002  2.883016642190615E-002  3.049011974922168E-002
  3.215007307653737E-002  3.381002640385284E-002  3.546997973116840E-002
  3.712993305848405E-002  3.878988638579951E-002  4.044983971311519E-002
  3.290547500935445E-003  4.950500828251071E-003  6.610454155566734E-003
  8.270407482882177E-003  9.930360810197667E-003  1.159031413751316E-002
  1.325026746482883E-002  1.491022079214431E-002  1.657017411945991E-002
  1.823012744677558E-002  1.989008077409096E-002  2.155003410140658E-002
  2.320998742872212E-002  2.486994075603757E-002  2.652989408335316E-002
  2.818984741066877E-002  2.984980073798416E-002  3.150975406529989E-002
  3.316970739261549E-002  3.482966071993104E-002  3.648961404724652E-002
  3.814956737456202E-002  3.980952070187770E-002  4.146947402919316E-002
  4.312942735650879E-002  4.478938068382442E-002  8.238845606793692E-003
  9.898798934109063E-003  1.155875226142469E-002  1.321870558874036E-002
  1.487865891605589E-002  1.653861224337147E-002  1.819856557068702E-002
  1.985851889800249E-002  2.151847222531808E-002  2.317842555263349E-002
  2.483837887994908E-002  2.649833220726476E-002  2.815828553458037E-002
  2.981823886189574E-002  3.147819218921124E-002  3.313814551652680E-002
  3.479809884384254E-002  3.645805217115812E-002  3.811800549847366E-002
  3.977795882578922E-002  4.143791215310477E-002  4.309786548042036E-002
  4.475781880773597E-002  4.641777213505138E-002  4.807772546236701E-002
  4.973767878968244E-002  1.371123409528193E-002  1.537118742259759E-002
  1.703114074991322E-002  1.869109407722859E-002  2.035104740454424E-002
  2.201100073185981E-002  2.367095405917532E-002  2.533090738649102E-002
  2.699086071380645E-002  2.865081404112202E-002  3.031076736843764E-002
  3.197072069575312E-002  3.363067402306880E-002  3.529062735038431E-002
  3.695058067769975E-002  3.861053400501549E-002  4.027048733233090E-002
  4.193044065964634E-002  4.359039398696198E-002  4.525034731427772E-002
  4.691030064159322E-002  4.857025396890871E-002  5.023020729622438E-002
  5.189016062353981E-002  5.355011395085536E-002  5.521006727817085E-002
  1.961407888213002E-002  2.127403220944557E-002  2.293398553676107E-002
  2.459393886407645E-002  2.625389219139226E-002  2.791384551870792E-002
  2.957379884602325E-002  3.123375217333868E-002  3.289370550065443E-002
  3.455365882796987E-002  3.621361215528559E-002  3.787356548260096E-002
  3.953351880991670E-002  4.119347213723219E-002  4.285342546454769E-002
  4.451337879186344E-002  4.617333211917882E-002  4.783328544649449E-002
  4.949323877380984E-002  5.115319210112550E-002  5.281314542844116E-002
  5.447309875575645E-002  5.613305208307238E-002  5.779300541038777E-002
  5.945295873770320E-002  6.111291206501881E-002  2.584638065645649E-002
  2.750633398377239E-002  2.916628731108768E-002  3.082624063840307E-002
  3.248619396571867E-002  3.414614729303428E-002  3.580610062035016E-002
  3.746605394766574E-002  3.912600727498098E-002  4.078596060229670E-002
  4.244591392961209E-002  4.410586725692779E-002  4.576582058424340E-002
  4.742577391155876E-002  4.908572723887453E-002  5.074568056619009E-002
  5.240563389350559E-002  5.406558722082103E-002  5.572554054813689E-002
  5.738549387545228E-002  5.904544720276799E-002  6.070540053008325E-002
  6.236535385739912E-002  6.402530718471454E-002  6.568526051203009E-002
  6.734521383934554E-002  3.230150300698297E-002  3.396145633429837E-002
  3.562140966161377E-002  3.728136298892944E-002  3.894131631624506E-002
  4.060126964356062E-002  4.226122297087617E-002  4.392117629819179E-002
  4.558112962550724E-002  4.724108295282286E-002  4.890103628013856E-002
  5.056098960745412E-002  5.222094293476972E-002  5.388089626208499E-002
  5.554084958940058E-002  5.720080291671632E-002  5.886075624403148E-002
  6.052070957134718E-002  6.218066289866273E-002  6.384061622597838E-002
  6.550056955329416E-002  6.716052288060954E-002  6.882047620792506E-002
  7.048042953524056E-002  7.214038286255617E-002  7.380033618987197E-002
  3.886899700059301E-002  4.052895032790870E-002  4.218890365522421E-002
  4.384885698253970E-002  4.550881030985553E-002  4.716876363717096E-002
  4.882871696448642E-002  5.048867029180229E-002  5.214862361911758E-002
  5.380857694643322E-002  5.546853027374878E-002  5.712848360106410E-002
  5.878843692838000E-002  6.044839025569537E-002  6.210834358301119E-002
  6.376829691032625E-002  6.542825023764194E-002  6.708820356495758E-002
  6.874815689227294E-002  7.040811021958866E-002  7.206806354690407E-002
  7.372801687421966E-002  7.538797020153530E-002  7.704792352885079E-002
  7.870787685616600E-002  8.036783018348199E-002  4.543649099420321E-002
  4.709644432151879E-002  4.875639764883463E-002  5.041635097615023E-002
  5.207630430346546E-002  5.373625763078112E-002  5.539621095809676E-002
  5.705616428541232E-002  5.871611761272753E-002  6.037607094004330E-002
  6.203602426735893E-002  6.369597759467439E-002  6.535593092199017E-002
  6.701588424930538E-002  6.867583757662127E-002  7.033579090393656E-002
  7.199574423125234E-002  7.365569755856789E-002  7.531565088588336E-002
  7.697560421319866E-002  7.863555754051432E-002  8.029551086783034E-002
  8.195546419514541E-002  8.361541752246093E-002  8.527537084977677E-002
  8.693532417709228E-002  5.189161334472956E-002  5.355156667204497E-002
  5.521151999936054E-002  5.687147332667624E-002  5.853142665399177E-002
  6.019137998130723E-002  6.185133330862316E-002  6.351128663593821E-002
  6.517123996325407E-002  6.683119329056957E-002  6.849114661788530E-002
  7.015109994520065E-002  7.181105327251636E-002  7.347100659983175E-002
  7.513095992714756E-002  7.679091325446272E-002  7.845086658177865E-002
  8.011081990909402E-002  8.177077323640941E-002  8.343072656372513E-002
  8.509067989104077E-002  8.675063321835637E-002  8.841058654567188E-002
  9.007053987298709E-002  9.173049320030273E-002  9.339044652761846E-002
  5.812391511905644E-002  5.978386844637166E-002  6.144382177368735E-002
  6.310377510100294E-002  6.476372842831858E-002  6.642368175563415E-002
  6.808363508294953E-002  6.974358841026534E-002  7.140354173758065E-002
  7.306349506489623E-002  7.472344839221172E-002  7.638340171952723E-002
  7.804335504684320E-002  7.970330837415834E-002  8.136326170147438E-002
  8.302321502878958E-002  8.468316835610501E-002  8.634312168342093E-002
  8.800307501073629E-002  8.966302833805229E-002  9.132298166536736E-002
  9.298293499268284E-002  9.464288831999844E-002  9.630284164731388E-002
  9.796279497462954E-002  9.962274830194509E-002  6.402675990590426E-002
  6.568671323321959E-002  6.734666656053519E-002  6.900661988785059E-002
  7.066657321516619E-002  7.232652654248194E-002  7.398647986979755E-002
  7.564643319711289E-002  7.730638652442869E-002  7.896633985174410E-002
  8.062629317905991E-002  8.228624650637566E-002  8.394619983369099E-002
  8.560615316100612E-002  8.726610648832205E-002  8.892605981563745E-002
  9.058601314295335E-002  9.224596647026899E-002  9.390591979758400E-002
  9.556587312489977E-002  9.722582645221521E-002  9.888577977953096E-002
  0.100545733106846       0.102205686434162       0.103865639761477     
  0.105525593088793       6.949914839439254E-002  7.115910172170818E-002
  7.281905504902339E-002  7.447900837633913E-002  7.613896170365467E-002
  7.779891503097031E-002  7.945886835828549E-002  8.111882168560168E-002
  8.277877501291665E-002  8.443872834023301E-002  8.609868166754799E-002
  8.775863499486398E-002  8.941858832217946E-002  9.107854164949490E-002
  9.273849497681051E-002  9.439844830412594E-002  9.605840163144122E-002
  9.771835495875700E-002  9.937830828607247E-002  0.101038261613388     
  0.102698214940704       0.104358168268019       0.106018121595335     
  0.107678074922650       0.109338028249966       0.110997981577282     
  7.444744650025062E-002  7.610739982756640E-002  7.776735315488208E-002
  7.942730648219706E-002  8.108725980951295E-002  8.274721313682874E-002
  8.440716646414434E-002  8.606711979145962E-002  8.772707311877495E-002
  8.938702644609105E-002  9.104697977340660E-002  9.270693310072202E-002
  9.436688642803763E-002  9.602683975535309E-002  9.768679308266860E-002
  9.934674640998453E-002  0.101006699737300       0.102666653064615     
  0.104326606391931       0.105986559719246       0.107646513046562     
  0.109306466373877       0.110966419701193       0.112626373028508     
  0.114286326355824       0.115946279683140       7.878698747096029E-002
  8.044694079827520E-002  8.210689412559082E-002  8.376684745290670E-002
  8.542680078022241E-002  8.708675410753740E-002  8.874670743485340E-002
  9.040666076216936E-002  9.206661408948433E-002  9.372656741679983E-002
  9.538652074411554E-002  9.704647407143104E-002  9.870642739874630E-002
  0.100366380726062       0.102026334053378       0.103686287380693     
  0.105346240708009       0.107006194035324       0.108666147362640     
  0.110326100689956       0.111986054017271       0.113646007344587     
  0.115305960671902       0.116965913999218       0.118625867326533     
  0.120285820653849       8.244352055736352E-002  8.410347388467961E-002
  8.576342721199448E-002  8.742338053931037E-002  8.908333386662552E-002
  9.074328719394134E-002  9.240324052125694E-002  9.406319384857260E-002
  9.572314717588777E-002  9.738310050320320E-002  9.904305383051898E-002
  0.100703007157834       0.102362960485150       0.104022913812466     
  0.105682867139781       0.107342820467097       0.109002773794412     
  0.110662727121728       0.112322680449043       0.113982633776359     
  0.115642587103675       0.117302540430990       0.118962493758306     
  0.120622447085621       0.122282400412937       0.123942353740252     
  8.535448146457017E-002  8.701443479188624E-002  8.867438811920189E-002
  9.033434144651681E-002  9.199429477383265E-002  9.365424810114779E-002
  9.531420142846375E-002  9.697415475577947E-002  9.863410808309482E-002
  0.100294061410410       0.101954014737726       0.103613968065042     
  0.105273921392357       0.106933874719672       0.108593828046988     
  0.110253781374303       0.111913734701619       0.113573688028935     
  0.115233641356250       0.116893594683566       0.118553548010881     
  0.120213501338197       0.121873454665512       0.123533407992828     
  0.125193361320144       0.126853314647459       8.747006284438760E-002
  8.913001617170241E-002  9.078996949901860E-002  9.244992282633382E-002
  9.410987615364944E-002  9.576982948096445E-002  9.742978280828060E-002
  9.908973613559617E-002  0.100749689462912       0.102409642790227     
  0.104069596117543       0.105729549444858       0.107389502772174     
  0.109049456099489       0.110709409426805       0.112369362754121     
  0.114029316081436       0.115689269408752       0.117349222736067     
  0.119009176063383       0.120669129390698       0.122329082718013     
  0.123989036045329       0.125648989372645       0.127308942699961     
  0.128968896027276       8.875406651285594E-002  9.041401984017108E-002
  9.207397316748712E-002  9.373392649480211E-002  9.539387982211761E-002
  9.705383314943369E-002  9.871378647674957E-002  0.100373739804065     
  0.102033693131380       0.103693646458695       0.105353599786011     
  0.107013553113327       0.108673506440642       0.110333459767958     
  0.111993413095273       0.113653366422589       0.115313319749905     
  0.116973273077220       0.118633226404535       0.120293179731851     
  0.121953133059167       0.123613086386483       0.125273039713798     
  0.126932993041113       0.128592946368429       0.130252899695745     
  8.918452281121499E-002  9.084447613853067E-002  9.250442946584647E-002
  9.416438279316186E-002  9.582433612047747E-002  9.748428944779297E-002
  9.914424277510894E-002  0.100804196102424       0.102464149429740     
  0.104124102757055       0.105784056084371       0.107444009411686     
  0.109103962739002       0.110763916066317       0.112423869393633     
  0.114083822720949       0.115743776048264       0.117403729375580     
  0.119063682702895       0.120723636030210       0.122383589357526     
  0.124043542684841       0.125703496012157       0.127363449339473     
  0.129023402666788       0.130683355994104     
  0.122241469960898       0.121791965942606       0.121342461924314     
  0.120892957906022       0.120443453887730       0.119993949869438     
  0.119544445851146       0.119094941832854       0.118645437814562     
  0.118195933796270       0.117746429777978       0.117296925759686     
  0.116847421741394       0.116397917723102       0.115948413704810     
  0.115498909686518       0.115049405668226       0.114599901649934     
  0.114150397631642       0.113700893613350       0.113251389595058     
  0.112801885576766       0.112352381558474       0.111902877540182     
  0.111453373521890       0.111003869503598       0.123831082813395     
  0.123381578795103       0.122932074776811       0.122482570758519     
  0.122033066740227       0.121583562721935       0.121134058703643     
  0.120684554685351       0.120235050667059       0.119785546648767     
  0.119336042630475       0.118886538612183       0.118437034593891     
  0.117987530575599       0.117538026557306       0.117088522539015     
  0.116639018520723       0.116189514502431       0.115740010484138     
  0.115290506465846       0.114841002447555       0.114391498429263     
  0.113941994410971       0.113492490392678       0.113042986374386     
  0.112593482356094       0.128572722654254       0.128123218635962     
  0.127673714617670       0.127224210599378       0.126774706581086     
  0.126325202562794       0.125875698544502       0.125426194526210     
  0.124976690507918       0.124527186489626       0.124077682471334     
  0.123628178453042       0.123178674434750       0.122729170416458     
  0.122279666398166       0.121830162379874       0.121380658361582     
  0.120931154343290       0.120481650324998       0.120032146306706     
  0.119582642288414       0.119133138270122       0.118683634251830     
  0.118234130233538       0.117784626215246       0.117335122196954     
  0.136385258711168       0.135935754692876       0.135486250674584     
  0.135036746656292       0.134587242638000       0.134137738619708     
  0.133688234601416       0.133238730583124       0.132789226564832     
  0.132339722546540       0.131890218528248       0.131440714509956     
  0.130991210491664       0.130541706473372       0.130092202455080     
  0.129642698436788       0.129193194418496       0.128743690400204     
  0.128294186381912       0.127844682363620       0.127395178345328     
  0.126945674327035       0.126496170308743       0.126046666290452     
  0.125597162272160       0.125147658253868       0.147135016326159     
  0.146685512307866       0.146236008289574       0.145786504271282     
  0.145337000252991       0.144887496234698       0.144437992216406     
  0.143988488198114       0.143538984179822       0.143089480161530     
  0.142639976143238       0.142190472124946       0.141740968106654     
  0.141291464088362       0.140841960070070       0.140392456051778     
  0.139942952033486       0.139493448015194       0.139043943996902     
  0.138594439978610       0.138144935960318       0.137695431942026     
  0.137245927923734       0.136796423905442       0.136346919887150     
  0.135897415868858       0.160638064166037       0.160188560147746     
  0.159739056129453       0.159289552111161       0.158840048092869     
  0.158390544074577       0.157941040056285       0.157491536037993     
  0.157042032019701       0.156592528001409       0.156143023983117     
  0.155693519964825       0.155244015946533       0.154794511928241     
  0.154345007909949       0.153895503891657       0.153445999873365     
  0.152996495855073       0.152546991836781       0.152097487818489     
  0.151647983800197       0.151198479781905       0.150748975763613     
  0.150299471745321       0.149849967727029       0.149400463708737     
  0.176663361338512       0.176213857320220       0.175764353301928     
  0.175314849283636       0.174865345265344       0.174415841247052     
  0.173966337228760       0.173516833210468       0.173067329192176     
  0.172617825173884       0.172168321155592       0.171718817137300     
  0.171269313119008       0.170819809100716       0.170370305082424     
  0.169920801064132       0.169471297045840       0.169021793027548     
  0.168572289009256       0.168122784990964       0.167673280972672     
  0.167223776954380       0.166774272936088       0.166324768917796     
  0.165875264899504       0.165425760881212       0.194936710565910     
  0.194487206547618       0.194037702529326       0.193588198511034     
  0.193138694492742       0.192689190474450       0.192239686456158     
  0.191790182437866       0.191340678419574       0.190891174401282     
  0.190441670382990       0.189992166364698       0.189542662346406     
  0.189093158328114       0.188643654309822       0.188194150291530     
  0.187744646273238       0.187295142254946       0.186845638236654     
  0.186396134218362       0.185946630200070       0.185497126181778     
  0.185047622163486       0.184598118145194       0.184148614126902     
  0.183699110108610       0.215145449776621       0.214695945758329     
  0.214246441740037       0.213796937721745       0.213347433703452     
  0.212897929685160       0.212448425666869       0.211998921648577     
  0.211549417630284       0.211099913611992       0.210650409593700     
  0.210200905575408       0.209751401557117       0.209301897538825     
  0.208852393520533       0.208402889502241       0.207953385483948     
  0.207503881465657       0.207054377447364       0.206604873429072     
  0.206155369410781       0.205705865392488       0.205256361374197     
  0.204806857355904       0.204357353337613       0.203907849319320     
  0.236943801839828       0.236494297821536       0.236044793803244     
  0.235595289784952       0.235145785766660       0.234696281748368     
  0.234246777730076       0.233797273711784       0.233347769693492     
  0.232898265675200       0.232448761656908       0.231999257638616     
  0.231549753620323       0.231100249602031       0.230650745583740     
  0.230201241565447       0.229751737547155       0.229302233528863     
  0.228852729510572       0.228403225492280       0.227953721473988     
  0.227504217455695       0.227054713437404       0.226605209419111     
  0.226155705400820       0.225706201382527       0.259958790908085     
  0.259509286889793       0.259059782871501       0.258610278853209     
  0.258160774834917       0.257711270816624       0.257261766798333     
  0.256812262780041       0.256362758761749       0.255913254743457     
  0.255463750725164       0.255014246706873       0.254564742688581     
  0.254115238670289       0.253665734651997       0.253216230633704     
  0.252766726615412       0.252317222597120       0.251867718578829     
  0.251418214560537       0.250968710542245       0.250519206523952     
  0.250069702505661       0.249620198487369       0.249170694469077     
  0.248721190450785       0.283796624137474       0.283347120119181     
  0.282897616100889       0.282448112082597       0.281998608064305     
  0.281549104046013       0.281099600027721       0.280650096009429     
  0.280200591991137       0.279751087972845       0.279301583954554     
  0.278852079936262       0.278402575917970       0.277953071899678     
  0.277503567881386       0.277054063863094       0.276604559844801     
  0.276155055826509       0.275705551808217       0.275256047789925     
  0.274806543771633       0.274357039753341       0.273907535735050     
  0.273458031716757       0.273008527698465       0.272559023680173     
  0.308049429592343       0.307599925574051       0.307150421555759     
  0.306700917537467       0.306251413519175       0.305801909500883     
  0.305352405482591       0.304902901464299       0.304453397446007     
  0.304003893427714       0.303554389409423       0.303104885391131     
  0.302655381372839       0.302205877354547       0.301756373336255     
  0.301306869317963       0.300857365299671       0.300407861281379     
  0.299958357263087       0.299508853244795       0.299059349226503     
  0.298609845208211       0.298160341189919       0.297710837171627     
  0.297261333153334       0.296811829135043       0.332302235047213     
  0.331852731028920       0.331403227010629       0.330953722992337     
  0.330504218974044       0.330054714955753       0.329605210937461     
  0.329155706919168       0.328706202900877       0.328256698882585     
  0.327807194864293       0.327357690846001       0.326908186827709     
  0.326458682809416       0.326009178791125       0.325559674772832     
  0.325110170754541       0.324660666736249       0.324211162717957     
  0.323761658699664       0.323312154681372       0.322862650663080     
  0.322413146644788       0.321963642626496       0.321514138608204     
  0.321064634589912       0.356140068276601       0.355690564258310     
  0.355241060240017       0.354791556221725       0.354342052203433     
  0.353892548185141       0.353443044166849       0.352993540148557     
  0.352544036130266       0.352094532111973       0.351645028093681     
  0.351195524075389       0.350746020057098       0.350296516038806     
  0.349847012020513       0.349397508002221       0.348948003983929     
  0.348498499965637       0.348048995947345       0.347599491929053     
  0.347149987910761       0.346700483892469       0.346250979874177     
  0.345801475855885       0.345351971837593       0.344902467819301     
  0.379155057344859       0.378705553326566       0.378256049308274     
  0.377806545289982       0.377357041271690       0.376907537253399     
  0.376458033235106       0.376008529216814       0.375559025198522     
  0.375109521180230       0.374660017161939       0.374210513143646     
  0.373761009125355       0.373311505107062       0.372862001088771     
  0.372412497070478       0.371962993052186       0.371513489033894     
  0.371063985015601       0.370614480997311       0.370164976979018     
  0.369715472960727       0.369265968942435       0.368816464924142     
  0.368366960905850       0.367917456887558       0.400953409408066     
  0.400503905389773       0.400054401371481       0.399604897353189     
  0.399155393334897       0.398705889316606       0.398256385298314     
  0.397806881280021       0.397357377261730       0.396907873243437     
  0.396458369225145       0.396008865206854       0.395559361188562     
  0.395109857170269       0.394660353151978       0.394210849133686     
  0.393761345115393       0.393311841097101       0.392862337078809     
  0.392412833060517       0.391963329042225       0.391513825023934     
  0.391064321005641       0.390614816987349       0.390165312969057     
  0.389715808950765       0.421162148618776       0.420712644600484     
  0.420263140582192       0.419813636563900       0.419364132545608     
  0.418914628527316       0.418465124509024       0.418015620490732     
  0.417566116472440       0.417116612454148       0.416667108435856     
  0.416217604417564       0.415768100399272       0.415318596380980     
  0.414869092362688       0.414419588344396       0.413970084326104     
  0.413520580307812       0.413071076289520       0.412621572271228     
  0.412172068252936       0.411722564234644       0.411273060216353     
  0.410823556198060       0.410374052179768       0.409924548161476     
  0.439435497846174       0.438985993827882       0.438536489809590     
  0.438086985791298       0.437637481773006       0.437187977754714     
  0.436738473736422       0.436288969718130       0.435839465699838     
  0.435389961681546       0.434940457663254       0.434490953644962     
  0.434041449626670       0.433591945608378       0.433142441590086     
  0.432692937571794       0.432243433553502       0.431793929535210     
  0.431344425516918       0.430894921498626       0.430445417480334     
  0.429995913462042       0.429546409443750       0.429096905425458     
  0.428647401407166       0.428197897388874       0.455460795018649     
  0.455011291000356       0.454561786982065       0.454112282963773     
  0.453662778945481       0.453213274927188       0.452763770908897     
  0.452314266890605       0.451864762872313       0.451415258854021     
  0.450965754835729       0.450516250817437       0.450066746799145     
  0.449617242780853       0.449167738762561       0.448718234744269     
  0.448268730725977       0.447819226707685       0.447369722689392     
  0.446920218671101       0.446470714652808       0.446021210634517     
  0.445571706616224       0.445122202597933       0.444672698579640     
  0.444223194561349       0.468963842858528       0.468514338840236     
  0.468064834821944       0.467615330803652       0.467165826785360     
  0.466716322767068       0.466266818748776       0.465817314730483     
  0.465367810712192       0.464918306693900       0.464468802675608     
  0.464019298657315       0.463569794639023       0.463120290620732     
  0.462670786602439       0.462221282584148       0.461771778565856     
  0.461322274547563       0.460872770529272       0.460423266510980     
  0.459973762492688       0.459524258474395       0.459074754456104     
  0.458625250437811       0.458175746419519       0.457726242401228     
  0.479713600473518       0.479264096455226       0.478814592436935     
  0.478365088418642       0.477915584400351       0.477466080382058     
  0.477016576363766       0.476567072345475       0.476117568327182     
  0.475668064308890       0.475218560290598       0.474769056272306     
  0.474319552254014       0.473870048235722       0.473420544217430     
  0.472971040199138       0.472521536180846       0.472072032162554     
  0.471622528144262       0.471173024125970       0.470723520107678     
  0.470274016089386       0.469824512071094       0.469375008052802     
  0.468925504034510       0.468476000016218       0.487526136530433     
  0.487076632512140       0.486627128493848       0.486177624475556     