 Title = "Wing and Tip"
 VARIABLES = "X" "Y" "Z" "GAM" "ageAzimuthal"
 Zone I=   17 J=   20 K=1  T="Blade"
 DATAPACKING=BLOCK
 VARLOCATION=([4,5]=CELLCENTERED)
  8.691057030897946E-002  8.684239459674457E-002  8.661300802217214E-002
  8.622389605947621E-002  8.566724360183250E-002  8.493632655883994E-002
  8.403506634780070E-002  8.298517698127310E-002  8.185367718822278E-002
  8.073020924780111E-002  7.970106618602447E-002  7.882557413889912E-002
  7.812673845946849E-002  7.759667457591024E-002  7.720989030370382E-002
  7.693572835382566E-002  7.674526920415624E-002  8.791163600838875E-002
  8.781799072931867E-002  8.754780594339918E-002  8.710592122502579E-002
  8.647912345837266E-002  8.565599114374425E-002  8.463924670929834E-002
  8.345462628704563E-002  8.217752887502938E-002  8.090887069702271E-002
  7.974687893505002E-002  7.875935854147853E-002  7.797211242113566E-002
  7.737621129577556E-002  7.694248254461743E-002  7.663578660320579E-002
  7.642375884118457E-002  8.883123963486329E-002  8.871148988743879E-002
  8.840604652696174E-002  8.792350791720910E-002  8.724477719885058E-002
  8.635360379786056E-002  8.525049929592304E-002  8.396532076044166E-002
  8.257915356974088E-002  8.120155727808498E-002  7.993999933470887E-002
  7.886857554820913E-002  7.801587883597016E-002  7.737159622231010E-002
  7.690379792298647E-002  7.657383087493744E-002  7.634682880652999E-002
  8.968238941108007E-002  8.953678560178087E-002  8.920109206500464E-002
  8.868819207673677E-002  8.797292032584912E-002  8.703355203105981E-002
  8.586874711275132E-002  8.451153256753163E-002  8.304688422814283E-002
  8.159074620531434E-002  8.025725376032174E-002  7.912575396727135E-002
  7.822646873175863E-002  7.754838690191758E-002  7.705711744055178E-002
  7.671157134151095E-002  7.647494477951060E-002  9.051846605751289E-002
  9.034562448890437E-002  8.998013096905658E-002  8.943885265995204E-002
  8.869057599282733E-002  8.770783380202524E-002  8.648692841796243E-002
  8.506426678460884E-002  8.352822703109586E-002  8.200032333051396E-002
  8.060120958916206E-002  7.941488720993817E-002  7.847347014806083E-002
  7.776488989030708E-002  7.725272414559335E-002  7.689347327454683E-002
  7.664858303004723E-002  9.132882192650611E-002  9.113191199047781E-002
  9.074082235446441E-002  9.017572366089660E-002  8.939946286206951E-002
  8.838033553901134E-002  8.711249133462584E-002  8.563528956470164E-002
  8.403946594833653E-002  8.245159636879186E-002  8.099736601696859E-002
  7.976483368783391E-002  7.878761335196377E-002  7.805291301008441E-002
  7.752259279837029E-002  7.715128876121492E-002  7.689910603456512E-002
  9.211268128542061E-002  9.190240772326491E-002  9.149712461990477E-002
  9.091396973796320E-002  9.011405980205955E-002  8.906419037786613E-002
  8.775861988697863E-002  8.623747663526413E-002  8.459415495799838E-002
  8.295883793728542E-002  8.146052959158934E-002  8.018990936725605E-002
  7.918153981752608E-002  7.842279588077949E-002  7.787463461455321E-002
  7.749042979943158E-002  7.722930002389788E-002  9.287008103373064E-002
  9.265118918229316E-002  9.223572180744841E-002  9.163910421478186E-002
  9.082110739627661E-002  8.974789955531406E-002  8.841306624717218E-002
  8.685785641373994E-002  8.517760463612617E-002  8.350517792247848E-002
  8.197272464194243E-002  8.067244202685905E-002  7.964007142545135E-002
  7.886285368754019E-002  7.830092626085286E-002  7.790693943992306E-002
  7.763894179694418E-002  9.359966950966772E-002  9.337643674192814E-002
  9.295465266367339E-002  9.234921645766291E-002  9.151917562982911E-002
  9.042996224257037E-002  8.907516185116443E-002  8.749649647707100E-002
  8.579077298336488E-002  8.409261149221167E-002  8.253628532688090E-002
  8.121547665661272E-002  8.016647072309421E-002  7.937647041134772E-002
  7.880516539939562E-002  7.840445718585554E-002  7.813165820193729E-002
  9.429867338922783E-002  9.407103643052092E-002  9.364583444010532E-002
  9.303628699279712E-002  9.220087239119887E-002  9.110457492800483E-002
  8.974108893718515E-002  8.815188603372016E-002  8.643466108086414E-002
  8.472493997160069E-002  8.315742872044582E-002  8.182681893044652E-002
  8.076943380808854E-002  7.997288604329941E-002  7.939645039349186E-002
  7.899202324157842E-002  7.871644393919897E-002  9.496720280930269E-002
  9.473673248887876E-002  9.431139587259008E-002  9.370257864458949E-002
  9.286826071804290E-002  9.177355535849879E-002  9.041188872281031E-002
  8.882488428515288E-002  8.710969570749884E-002  8.540170994722518E-002
  8.383541061441493E-002  8.250527444690994E-002  8.144793079311351E-002
  8.065092906828682E-002  8.007394871904375E-002  7.966874692403395E-002
  7.939252975929749E-002  9.560506120333630E-002  9.537378365937849E-002
  9.495183857075594E-002  9.434843873994775E-002  9.352187264555994E-002
  9.243740272015673E-002  9.108833368696559E-002  8.951592229576051E-002
  8.781614610571178E-002  8.612325905189799E-002  8.457043212951793E-002
  8.325126699982312E-002  8.220225649913425E-002  8.141099554674025E-002
  8.083799827752201E-002  8.043538859452985E-002  8.016079745716649E-002
  9.620923482035722E-002  9.597957334101974E-002  9.556464205736330E-002
  9.497209559754863E-002  9.416042976615854E-002  9.309557474637067E-002
  9.177079729661301E-002  9.022641069970060E-002  8.855686988176116E-002
  8.689368696152590E-002  8.536782235637656E-002  8.407107937817666E-002
  8.303940454625913E-002  8.226105299129821E-002  8.169701435126837E-002
  8.130055578292816E-002  8.102985456266774E-002  9.677914341219807E-002
  9.655324556929018E-002  9.614919323515034E-002  9.557275652754409E-002
  9.478342022204117E-002  9.374774428763405E-002  9.245907895157703E-002
  9.095674340999312E-002  8.933240015293070E-002  8.771395436893496E-002
  8.622875200597417E-002  8.496624659383134E-002  8.396129955709244E-002
  8.320282623781709E-002  8.265292667859267E-002  8.226624150220370E-002
  8.200199511498837E-002  9.731940979999329E-002  9.709929419246940E-002
  9.670938901567762E-002  9.615366334581427E-002  9.539279583188875E-002
  9.439445684750682E-002  9.315220906160371E-002  9.170379330182382E-002
  9.013761919749802E-002  8.857689479653516E-002  8.714424359639940E-002
  8.592596750562208E-002  8.495593897780095E-002  8.422341988523606E-002
  8.369219741768608E-002  8.331838178772134E-002  8.306277577015872E-002
  9.780546912240048E-002  9.759416109084007E-002  9.722424885010250E-002
  9.669769553236227E-002  9.597685427886829E-002  9.503104464559770E-002
  9.385415052185941E-002  9.248185374802161E-002  9.099758086502149E-002
  8.951839338450679E-002  8.816012825045647E-002  8.700482022983118E-002
  8.608447503647157E-002  8.538914884262093E-002  8.488456639168952E-002
  8.452937750232430E-002  8.428636800702073E-002  9.822298734961053E-002
  9.802443550739104E-002  9.768198343039647E-002  9.719527462563440E-002
  9.652906775187101E-002  9.565507522766735E-002  9.456741869388005E-002
  9.329891404872161E-002  9.192693984415244E-002  9.055923897148700E-002
  8.930305324042187E-002  8.823413167739255E-002  8.738224653208043E-002
  8.673815969214156E-002  8.627055796690045E-002  8.594122771780004E-002
  8.571561070133321E-002  9.867029722214871E-002  9.848347974918824E-002
  9.816534886961706E-002  9.771355480135370E-002  9.709544131326824E-002
  9.628445859082553E-002  9.527522908784190E-002  9.409813275944209E-002
  9.282482138898246E-002  9.155535577488393E-002  9.038921728082711E-002
  8.939652428840371E-002  8.860509883870964E-002  8.800649711934561E-002
  8.757166982936621E-002  8.726532743132842E-002  8.705525904028238E-002
  9.910538752639143E-002  9.893135424481939E-002  9.863880440295691E-002
  9.822379961883611E-002  9.765609429454747E-002  9.691147331918032E-002
  9.598479689809786E-002  9.490393822944349E-002  9.373462496474447E-002
  9.256867172190289E-002  9.149737184304213E-002  9.058522571984114E-002
  8.985770803484031E-002  8.930721477961089E-002  8.890722872005555E-002
  8.862520482726031E-002  8.843184366245661E-002  9.946743023968033E-002
  9.931078243503086E-002  9.905172862827048E-002  9.868477980234219E-002
  9.818317854807823E-002  9.752509507792231E-002  9.670624959537136E-002
  9.575114342774856E-002  9.471787517694506E-002  9.368741793883067E-002
  9.274046640074771E-002  9.193380089668357E-002  9.129017691051544E-002
  9.080297698127845E-002  9.044874206454920E-002  9.019892124881858E-002
  9.002749838160623E-002
  6.908484932900079E-002  6.906762388430715E-002  6.900966650294278E-002
  6.891135250851069E-002  6.877070731671939E-002  6.858603200219728E-002
  6.835831735997368E-002  6.809304970636504E-002  6.780716215980033E-002
  6.752330396105898E-002  6.726327812030997E-002  6.704207412634818E-002
  6.686550456878253E-002  6.673157731212397E-002  6.663385143774918E-002
  6.656458099890888E-002  6.651645911735468E-002  6.651497607311045E-002
  6.649131542443397E-002  6.642304986571269E-002  6.631140217582701E-002
  6.615303389613181E-002  6.594505924216150E-002  6.568816606937224E-002
  6.538885693276572E-002  6.506618233035888E-002  6.474564000576724E-002
  6.445204828264076E-002  6.420253892856496E-002  6.400363136952711E-002
  6.385306951191960E-002  6.374348252895690E-002  6.366599197105284E-002
  6.361242051035977E-002  6.392441726511097E-002  6.389416099665780E-002
  6.381698691896245E-002  6.369506751596113E-002  6.352357772776891E-002
  6.329841164401206E-002  6.301969852218883E-002  6.269498212306690E-002
  6.234474967962152E-002  6.199668278080504E-002  6.167793441912055E-002
  6.140722582550449E-002  6.119178135744255E-002  6.102899531289818E-002
  6.091080023332145E-002  6.082742993984583E-002  6.077007503372867E-002
  6.131666587991311E-002  6.127987726000615E-002  6.119506009767336E-002
  6.106546951340683E-002  6.088474717722580E-002  6.064740405196204E-002
  6.035310154977223E-002  6.001018435360675E-002  5.964012266831099E-002
  5.927221122072340E-002  5.893528770928917E-002  5.864940016272430E-002
  5.842218452272009E-002  5.825085868431159E-002  5.812673332266786E-002
  5.803942678749516E-002  5.797964013293479E-002  5.870500293778759E-002
  5.866133235799811E-002  5.856898585796656E-002  5.843222513671052E-002
  5.824316369646132E-002  5.799486161495863E-002  5.768638462982691E-002
  5.732693140990643E-002  5.693883179269491E-002  5.655278785081391E-002
  5.619928429974230E-002  5.589954514246244E-002  5.566168437062015E-002
  5.548265272370562E-002  5.535324765523797E-002  5.526247843834928E-002
  5.520060386125467E-002  5.608694446272313E-002  5.603719270947390E-002
  5.593837903119148E-002  5.579559979246507E-002  5.559946781203159E-002
  5.534197257269012E-002  5.502163590869394E-002  5.464840244247618E-002
  5.424519768606806E-002  5.384400261634839E-002  5.347657316565241E-002
  5.316515848771593E-002  5.291825157178778E-002  5.273262035957743E-002
  5.259862833841027E-002  5.250481373865165E-002  5.244109662491409E-002
  5.346208817110826E-002  5.340895993090737E-002  5.330656009593140E-002
  5.315921873582731E-002  5.295711150571301E-002  5.269184889078410E-002
  5.236198020958793E-002  5.197764437950017E-002  5.156243864511487E-002
  5.114925538712535E-002  5.077068908107756E-002  5.044965102099025E-002
  5.019487386736340E-002  5.000316774078713E-002  4.986466795449836E-002
  4.976759381215355E-002  4.970161611483465E-002  5.083064967113275E-002
  5.077534391256798E-002  5.067037089427696E-002  5.051962801226123E-002
  5.031295090548948E-002  5.004179154824420E-002  4.970452925099791E-002
  4.931158607380604E-002  4.888704948859094E-002  4.846449000346273E-002
  4.807729655341655E-002  4.774876392004780E-002  4.748792260112327E-002
  4.729154883808535E-002  4.714957085952105E-002  4.705002517130600E-002
  4.698231222154937E-002  4.819218430604055E-002  4.813578176078710E-002
  4.802921274853184E-002  4.787624173377708E-002  4.766652155771024E-002
  4.739131819940528E-002  4.704901096933510E-002  4.665014145701291E-002
  4.621916912477882E-002  4.579010742688135E-002  4.539688219450080E-002
  4.506316339707506E-002  4.479811895384346E-002  4.459851551396854E-002
  4.445416817143235E-002  4.435292423947500E-002  4.428399817099776E-002
  4.554588821836530E-002  4.548837289928899E-002  4.538094030886248E-002
  4.522693053767571E-002  4.501585261058947E-002  4.473885937207316E-002
  4.439435761689371E-002  4.399282566624251E-002  4.355894734678786E-002
  4.312696496708291E-002  4.273091368315206E-002  4.239471851048438E-002
  4.212755696060008E-002  4.192629922498618E-002  4.178065556275255E-002
  4.167847199459398E-002  4.160884344395249E-002  4.289199552064511E-002
  4.283376431736372E-002  4.272629771202988E-002  4.257247243986588E-002
  4.236167160142103E-002  4.208508062776496E-002  4.174103855536931E-002
  4.134006207454629E-002  4.090669827070546E-002  4.047515434858428E-002
  4.007940927095078E-002  3.974333376491831E-002  3.947618269258386E-002
  3.927481025829952E-002  3.912902897095483E-002  3.902664967954848E-002
  3.895685996502027E-002  4.023025026280838E-002  4.017181510442484E-002
  4.006520541089049E-002  3.991274891174931E-002  3.970390667046072E-002
  3.942990180700353E-002  3.908904267612730E-002  3.869175331064703E-002
  3.826228363891845E-002  3.783455459345290E-002  3.744221348848246E-002
  3.710890995209758E-002  3.684386435491373E-002  3.664394239844337E-002
  3.649916748598556E-002  3.639744312403619E-002  3.632806424562050E-002
  3.756009726813045E-002  3.750207042864570E-002  3.739723286048548E-002
  3.724751860100191E-002  3.704244109715111E-002  3.677339218443889E-002
  3.643867062533500E-002  3.604846207394988E-002  3.562663174639529E-002
  3.520640782105731E-002  3.482087908209031E-002  3.449324078216339E-002
  3.423257525808574E-002  3.403591502201696E-002  3.389340361904866E-002
  3.379323341299692E-002  3.372483737069297E-002  3.488128678713086E-002
  3.482421087736952E-002  3.472212201159979E-002  3.457647808210047E-002
  3.437704241169157E-002  3.411536595912613E-002  3.378976857631512E-002
  3.341018474895750E-002  3.299977414933315E-002  3.259085361989389E-002
  3.221559870397842E-002  3.189661095248349E-002  3.164269853948506E-002
  3.145106078779101E-002  3.131212180007797E-002  3.121442096349828E-002
  3.114765581533501E-002  3.219488369073410E-002  3.213926873491849E-002
  3.204075432504339E-002  3.190034329775376E-002  3.170810062289612E-002
  3.145585781681010E-002  3.114198840744842E-002  3.077602808601267E-002
  3.038031464891873E-002  2.998597814740489E-002  2.962400093874303E-002
  2.931618827737963E-002  2.907109846152661E-002  2.888601836918230E-002
  2.875179838181616E-002  2.865734919678347E-002  2.859276714586597E-002
  2.949488764517028E-002  2.944149803336168E-002  2.934803508834122E-002
  2.921499481995681E-002  2.903286527942139E-002  2.879389466958686E-002
  2.849653767874265E-002  2.814980976925367E-002  2.777478969805291E-002
  2.740105451726808E-002  2.705787187672055E-002  2.676596888427484E-002
  2.653343218304154E-002  2.635774934081471E-002  2.623026028617929E-002
  2.614051737966566E-002  2.607911799733163E-002  2.677747069380793E-002
  2.672730409246469E-002  2.664077930058274E-002  2.651780624575800E-002
  2.634948076323065E-002  2.612865564245260E-002  2.585384564261062E-002
  2.553334211000902E-002  2.518669570167262E-002  2.484112900398309E-002
  2.452373799879706E-002  2.425366162317460E-002  2.403842220762703E-002
  2.387568562775708E-002  2.375754021507583E-002  2.367433081680361E-002
  2.361732586134799E-002  2.406768411604823E-002  2.402048234957138E-002
  2.394010261180546E-002  2.382595120097804E-002  2.366977711266374E-002
  2.346487220481523E-002  2.320987777326421E-002  2.291246969288867E-002
  2.259075168114014E-002  2.227000534774072E-002  2.197536590099251E-002
  2.172454962524999E-002  2.152458610648367E-002  2.137334191009074E-002
  2.126347736758259E-002  2.118607613682537E-002  2.113299973566653E-002
  2.135470696929000E-002  2.131073528834524E-002  2.123681891906988E-002
  2.113196278009952E-002  2.098852494358446E-002  2.080038715948938E-002
  2.056625079454298E-002  2.029315836017985E-002  1.999771676799997E-002
  1.970312412728294E-002  1.943244684047839E-002  1.920198173666476E-002
  1.901816531237156E-002  1.887907631995211E-002  1.877801484921311E-002
  1.870675799235920E-002  1.865790288045698E-002  1.862337657940610E-002
  1.858379755621807E-002  1.851834437832302E-002  1.842563017704428E-002
  1.829889435895912E-002  1.813262135575290E-002  1.792572982341684E-002
  1.768441032813485E-002  1.742334220688588E-002  1.716298432308080E-002
  1.692372519674164E-002  1.671991108800581E-002  1.655729145391847E-002
  1.643419431036468E-002  1.634469243694539E-002  1.628157208948407E-002
  1.623825996231125E-002
  8.095124804155134E-002  8.092302825564857E-002  8.081784654929548E-002
  8.062712956267505E-002  8.033166076326420E-002  7.990137771169330E-002
  7.932854213867570E-002  7.864989165425738E-002  7.790730715465727E-002
  7.715925720989988E-002  7.646516767638133E-002  7.586819472182157E-002
  7.538729771154194E-002  7.501989305823574E-002  7.475041563756506E-002
  7.455856444121246E-002  7.442498047202865E-002  8.115258488399540E-002
  8.111092116582130E-002  8.098214502303819E-002  8.075975235451836E-002
  8.042238155301805E-002  7.993923145633952E-002  7.930199753320173E-002
  7.854655147561361E-002  7.771883715824127E-002  7.688399804468576E-002
  7.610832539774041E-002  7.544056468872211E-002  7.490227414546234E-002
  7.449062745735677E-002  7.418824851697885E-002  7.397241213691877E-002
  7.382087080021031E-002  8.129131574743513E-002  8.123581929519676E-002
  8.108601647388737E-002  8.083813257108168E-002  8.046940185022726E-002
  7.995008207966811E-002  7.927156851788103E-002  7.846656051041836E-002
  7.758318616452464E-002  7.669088936907806E-002  7.586094804740043E-002
  7.514568520266073E-002  7.456855086117831E-002  7.412683340913816E-002
  7.380177371567571E-002  7.356906000450324E-002  7.340459211802419E-002
  8.137546716717901E-002  8.130647457219242E-002  8.113854414510902E-002
  8.087110545586572E-002  8.048066959738524E-002  7.993977688377694E-002
  7.923977286272472E-002  7.840844159011534E-002  7.749484290852605E-002
  7.657049801877576E-002  7.570960752249299E-002  7.496702302289289E-002
  7.436722264932988E-002  7.390760170862667E-002  7.356876426836052E-002
  7.332556346171323E-002  7.315222395065947E-002  8.143769849383620E-002
  8.135532445289070E-002  8.117033618060998E-002  8.088542751592165E-002
  8.047699430075962E-002  7.992042815667699E-002  7.920715794644087E-002
  7.835917318851651E-002  7.742569313369550E-002  7.647980224321996E-002
  7.559749404981998E-002  7.483546252150544E-002  7.421945133749579E-002
  7.374671222580231E-002  7.339767429348475E-002  7.314615729422214E-002
  7.296554302330713E-002  8.147293947469522E-002  8.137993420526397E-002
  8.118249344557331E-002  8.088577687118480E-002  8.046597898117665E-002
  7.990104277140332E-002  7.918240738046745E-002  7.832731922090262E-002
  7.738491422841720E-002  7.642845987802217E-002  7.553513721369706E-002
  7.476279633299514E-002  7.413768719050180E-002  7.365736672383832E-002
  7.330192994843233E-002  7.304524605165605E-002  7.285970788362471E-002
  8.148228847525517E-002  8.138595561922156E-002  8.118709184693594E-002
  8.088933550817806E-002  8.046864615488013E-002  7.990246050753062E-002
  7.918213161286529E-002  7.832501030437149E-002  7.738008921604585E-002
  7.642072219186608E-002  7.552413748692066E-002  7.474833933050960E-002
  7.411980734789665E-002  7.363632287091382E-002  7.327816087487411E-002
  7.301912000758604E-002  7.283166088194487E-002  8.146737096515190E-002
  8.137037214843823E-002  8.117315134357610E-002  8.087820660020478E-002
  8.046131473358741E-002  7.990023072644166E-002  7.918621625716873E-002
  7.833627001563674E-002  7.739874033523231E-002  7.644663946924915E-002
  7.555631142565188E-002  7.478536135611195E-002  7.416022722835158E-002
  7.367897475504190E-002  7.332217106848675E-002  7.306392002610458E-002
  7.287663780646537E-002  8.142900870519693E-002  8.133384114614321E-002
  8.114090660553999E-002  8.085222823936664E-002  8.044388807249628E-002
  7.989404544174272E-002  7.919396202550717E-002  7.835999471273165E-002
  7.743968312861056E-002  7.650456291208078E-002  7.562965281171319E-002
  7.487165012650085E-002  7.425656236483139E-002  7.378275267283436E-002
  7.343123169476737E-002  7.317660678663117E-002  7.299169848109187E-002
  8.136843558644942E-002  8.127559500748638E-002  8.108875243776309E-002
  8.080929950816840E-002  8.041394699188228E-002  7.988129773767236E-002
  7.920252733207291E-002  7.839365607270986E-002  7.750062949684786E-002
  7.659248380249953E-002  7.574238009823760E-002  7.500523635877228E-002
  7.440676265903277E-002  7.394517606665330E-002  7.360243951289511E-002
  7.335396656226732E-002  7.317321954836209E-002  8.128900169266727E-002
  8.119920571075234E-002  8.102031302900690E-002  8.075276021453240E-002
  8.037409813040713E-002  7.986345145306788E-002  7.921256453072728E-002
  7.843626792717763E-002  7.757861815797931E-002  7.670590925692314E-002
  7.588844797125464E-002  7.517900497837908E-002  7.460242415808882E-002
  7.415741830044878E-002  7.382661046673317E-002  7.358650481079859E-002
  7.341152122970855E-002  8.119339697759541E-002  8.110762676175444E-002
  8.093817141237866E-002  8.068486985286899E-002  8.032592002369746E-002
  7.984157634850599E-002  7.922376841186030E-002  7.848636921408134E-002
  7.767115744723226E-002  7.684104567963992E-002  7.606283394336139E-002
  7.538695510567610E-002  7.483702415468525E-002  7.441216351101747E-002
  7.409611820700056E-002  7.386634995996245E-002  7.369854671651568E-002
  8.108263093808230E-002  8.100182072333191E-002  8.084330320333681E-002
  8.060610054005438E-002  8.026985090723940E-002  7.981570630537672E-002
  7.923589375249045E-002  7.854325036971485E-002  7.777692738168057E-002
  7.699603570775149E-002  7.626324241617320E-002  7.562621460444885E-002
  7.510748444748368E-002  7.470636487872703E-002  7.440747240211114E-002
  7.419003778341125E-002  7.403083178243579E-002  8.095914302842372E-002
  8.088408874743669E-002  8.073763908112722E-002  8.051825770560980E-002
  8.020702830438974E-002  7.978629788825309E-002  7.924840567232937E-002
  7.860554947651070E-002  7.789347545440926E-002  7.716737540285297E-002
  7.648529020352925E-002  7.589184457947729E-002  7.540811214323265E-002
  7.503359634106541E-002  7.475417395030515E-002  7.455057345695451E-002
  7.440132161664995E-002  8.082981115343664E-002  8.076078691121662E-002
  8.062684888764632E-002  8.042601447010272E-002  8.014073981259390E-002
  7.975463219930329E-002  7.926066487013493E-002  7.866961096400127E-002
  7.801435421993599E-002  7.734551495836965E-002  7.671676087356459E-002
  7.616906111809245E-002  7.572204379473825E-002  7.537556199370742E-002
  7.511683108144231E-002  7.492809031679203E-002  7.478929113637275E-002
  8.068061484301975E-002  8.061843490132641E-002  8.049871008326227E-002
  8.031908452671455E-002  8.006345211929014E-002  7.971705616774369E-002
  7.927341784488673E-002  7.874182034555600E-002  7.815205004706070E-002
  7.754925294012346E-002  7.698203979601419E-002  7.648727013194777E-002
  7.608310821187199E-002  7.576931325797369E-002  7.553477581712408E-002
  7.536329035534414E-002  7.523689312024262E-002  8.050778549830084E-002
  8.045369207854446E-002  8.035020306776641E-002  8.019474848547871E-002
  7.997306180729929E-002  7.967232507248001E-002  7.928649518963463E-002
  7.882355842202876E-002  7.830935314241344E-002  7.778312027536916E-002
  7.728726031641359E-002  7.685424904240135E-002  7.649982931497150E-002
  7.622436049969537E-002  7.601804312763449E-002  7.586691310723309E-002
  7.575518286542705E-002  8.037410516720078E-002  8.032614398458099E-002
  8.023513606613528E-002  8.009803903739970E-002  7.990255121172786E-002
  7.963679663953975E-002  7.929540541208133E-002  7.888552870208770E-002
  7.842960481065940E-002  7.796270476329198E-002  7.752214075080452E-002
  7.713700153102029E-002  7.682145392963574E-002  7.657576344420365E-002
  7.639154751061362E-002  7.625644945495867E-002  7.615621080610804E-002
  8.025207612015645E-002  8.020968368946252E-002  8.012971413038238E-002
  8.000931280448909E-002  7.983721140463898E-002  7.960316222767164E-002
  7.930223110063518E-002  7.894052276414280E-002  7.853785555091433E-002
  7.812495312715897E-002  7.773509081048703E-002  7.739387119520431E-002
  7.711393200507384E-002  7.689585450019369E-002  7.673210425960311E-002
  7.661180677731931E-002  7.652241014434644E-002  8.011145707788411E-002
  8.007535906932484E-002  8.000800695943640E-002  7.990643641237041E-002
  7.976116399883347E-002  7.956317368414015E-002  7.930845497741988E-002
  7.900194871359094E-002  7.866042002087413E-002  7.830989278547335E-002
  7.797857207228741E-002  7.768818800999562E-002  7.744969786546455E-002
  7.726361513601221E-002  7.712372843748748E-002  7.702081511588155E-002
  7.694418117929649E-002
  1.342291184762858E-002  3.041330956130700E-002  4.748357606202154E-002
  6.492963203918239E-002  8.277652380509228E-002  0.100149528441325     
  0.116057829424718       0.130656262721428       0.143667821438767     
  0.154902344248597       0.164426426727452       0.172465775611565     
  0.179137105582994       0.184270968808248       0.187622270564908     
  0.189247080899922       2.326682649892665E-002  4.913265746831596E-002
  7.503018359648954E-002  0.101872725406084       0.129832137546326     
  0.157759592741995       0.184163096966360       0.208720155987811     
  0.230776124539256       0.249807106861006       0.265465523779201     
  0.277578041783649       0.286278778990841       0.292035639819083     
  0.295427243938122       0.297013625079261       3.345236430858779E-002
  6.699008677655210E-002  0.100034010757295       0.134191101146533     
  0.169831744633811       0.205841082597624       0.240526719687297     
  0.273011431527238       0.302078199387680       0.326676060323317     
  0.346151165129460       0.360445714248022       0.370149309288439     
  0.376252006002963       0.379730750907501       0.381365161349917     
  4.392741162223232E-002  8.447431827955840E-002  0.123678844887051     
  0.163912968594138       0.205763684883604       0.248287381965981     
  0.289760431645780       0.328725984980900       0.363433297976658     
  0.392433327561881       0.414964023991051       0.431178207660533     
  0.442014442275434       0.448759789295450       0.452609026856022     
  0.454458787810899       5.403577498854099E-002  0.100928952653176     
  0.145493739412846       0.190903833400751       0.237974415669716     
  0.285988797828126       0.333249114313586       0.377719101853332     
  0.417202358578168       0.449955363667594       0.475171639764514     
  0.493167247588684       0.505120537688433       0.512537879864035     
  0.516786525460311       0.518873240802282       6.239836418926441E-002
  0.114654609028789       0.163959180708010       0.214058711133392     
  0.265927024881705       0.318920211926360       0.371253024557687     
  0.420473747313796       0.464051538977340       0.500024532944586     
  0.527572190769045       0.547142855053477       0.560099239958824     
  0.568125170805204       0.572726400692610       0.575016628499638     
  6.867709880610470E-002  0.125303631405557       0.178801725622512     
  0.233211330254251       0.289545977227643       0.347073756761464     
  0.403836034809744       0.457149793799652       0.504233337105498     
  0.542986822131925       0.572565775484114       0.593517203941790     
  0.607349784323653       0.615894978375923       0.620789701506116     
  0.623237464403739       7.346909905149969E-002  0.133768562280240     
  0.190821075441624       0.248901866304071       0.309033714174272     
  0.370415307552184       0.430936660245622       0.487705964078760     
  0.537753684075571       0.578879193328943       0.610213131631751     
  0.632382314977095       0.647004373767746       0.656033596813289     
  0.661209900289166       0.663812679475104       7.715243871576428E-002
  0.140346258802366       0.200219217862672       0.261221373054997     
  0.324396235293226       0.388876198068098       0.452409269689011     
  0.511956104981200       0.564417071534572       0.607489521878785     
  0.640302679637187       0.663519075805885       0.678852939607634     
  0.688329782517199       0.693774306237498       0.696523672863507     
  8.001377107602260E-002  0.145212463401395       0.207080305796753     
  0.270182691058541       0.335576453809139       0.402316626564451     
  0.468062666021988       0.529671018442745       0.583956353443841     
  0.628538151110493       0.662546231719937       0.686646771113542     
  0.702609441257827       0.712506952144310       0.718214226051418     
  0.721113486025443       8.183361836693764E-002  0.148144923875909     
  0.211176943276840       0.275559391481573       0.342317983559577     
  0.410454270553988       0.477594704298630       0.540523798476090     
  0.596022102545225       0.641671894931995       0.676575993315154     
  0.701398013293295       0.717894639849145       0.728178430562987     
  0.734143178300506       0.737192395258534       8.247528035750702E-002
  0.148996287104984       0.212335673062483       0.277111947079754     
  0.344315438632232       0.412927529673712       0.480563056172700     
  0.544008331571529       0.600058615033578       0.646297180144439     
  0.681774795006014       0.707120804369712       0.724054403325345     
  0.734676683969240       0.740875455752694       0.744062648442263     
  8.186502133903259E-002  0.147629570661367       0.210352853058539     
  0.274546223115364       0.341182779076627       0.409245913668049     
  0.476363014056657       0.539422380733812       0.595272742582248     
  0.641551247323901       0.677241568754849       0.702892481501511     