 Title = "Wing and Tip"
 VARIABLES = "X" "Y" "Z" "GAM" "ageAzimuthal"
 Zone I=   17 J=   20 K=1  T="Blade"
 DATAPACKING=BLOCK
 VARLOCATION=([4,5]=CELLCENTERED)
  7.539072518605021E-002  7.545931224473361E-002  7.569008285109276E-002
  7.608154256812454E-002  7.664155365605013E-002  7.737688077588742E-002
  7.828357884998639E-002  7.933980285165382E-002  8.047812968627481E-002
  8.160837620710786E-002  8.264372872867236E-002  8.352450316350758E-002
  8.422755535297538E-002  8.476081744142089E-002  8.514993542355970E-002
  8.542575156289543E-002  8.561735987100057E-002  7.445455679411478E-002
  7.454876709336163E-002  7.482058207203623E-002  7.526513295558288E-002
  7.589571258276812E-002  7.672381136629436E-002  7.774669045190269E-002
  7.893845842550079E-002  8.022326136002385E-002  8.149957414139256E-002
  8.266857692193774E-002  8.366205563986792E-002  8.445405170539216E-002
  8.505354827264279E-002  8.548989397895419E-002  8.579844040761708E-002
  8.601174746491902E-002  7.360034457841730E-002  7.372081685050202E-002
  7.402810314063105E-002  7.451355320575312E-002  7.519637912842202E-002
  7.609292953247684E-002  7.720268974954374E-002  7.849562256597262E-002
  7.989015336495069E-002  8.127606155132225E-002  8.254523125793156E-002
  8.362311961011225E-002  8.448096117163671E-002  8.512913114277904E-002
  8.559975196001726E-002  8.593170990436855E-002  8.616008161735493E-002
  7.281499664562376E-002  7.296147897320915E-002  7.329919795775361E-002
  7.381519259045981E-002  7.453478002042005E-002  7.547981610802565E-002
  7.665164901842741E-002  7.801705248261767E-002  7.949053795583599E-002
  8.095546176446443E-002  8.229699999825195E-002  8.343532683287272E-002
  8.434003801519051E-002  8.502221113419389E-002  8.551644472958399E-002
  8.586407572302548E-002  8.610213000015679E-002  7.204481538015736E-002
  7.221869980938446E-002  7.258639857882135E-002  7.313094275641337E-002
  7.388373424178563E-002  7.487240592707910E-002  7.610067779221612E-002
  7.753192322750356E-002  7.907723086362317E-002  8.061435335694714E-002
  8.202190882116350E-002  8.321538902069731E-002  8.416248623687610E-002
  8.487534179976521E-002  8.539059775876939E-002  8.575201621362478E-002
  8.599838403318863E-002  7.130050748958659E-002  7.149860550565452E-002
  7.189205482853599E-002  7.246056311377708E-002  7.324150757651261E-002
  7.426678392818130E-002  7.554227782472027E-002  7.702839247112354E-002
  7.863384468330029E-002  8.023129486700861E-002  8.169429949446683E-002
  8.293426845726244E-002  8.391738497084074E-002  8.465651821655855E-002
  8.519003817974724E-002  8.556358252495450E-002  8.581728682674623E-002
  7.058285857099132E-002  7.079440084424979E-002  7.120212927248883E-002
  7.178880269031135E-002  7.259353898006740E-002  7.364974291907639E-002
  7.496319072825379E-002  7.649351198272010E-002  7.814674884112281E-002
  7.979193274590454E-002  8.129928131717061E-002  8.257756798311111E-002
  8.359202165311835E-002  8.435534356365627E-002  8.490681222752862E-002
  8.529333518911461E-002  8.555604052289729E-002  6.989182631829645E-002
  7.011203888033292E-002  7.053001302809671E-002  7.113023038554631E-002
  7.195316268730914E-002  7.303284585826211E-002  7.437573304545979E-002
  7.594032642650635E-002  7.763071620750772E-002  7.931323371106812E-002
  8.085493323478989E-002  8.216306126312155E-002  8.320166079806979E-002
  8.398356797369809E-002  8.454888585783407E-002  8.494524984614930E-002
  8.521486448549069E-002  6.922877314066775E-002  6.945335281045234E-002
  6.987768177422425E-002  7.048677095319357E-002  7.132181993327950E-002
  7.241760522193831E-002  7.378057996622439E-002  7.536877040978861E-002
  7.708478559357826E-002  7.879319314855315E-002  8.035890959702255E-002
  8.168768752698860E-002  8.274302276534670E-002  8.353778964002338E-002
  8.411254169022514E-002  8.451566762549025E-002  8.479011257524517E-002
  6.859649168727838E-002  6.882550212125207E-002  6.925326961957355E-002
  6.986649484551472E-002  7.070695002268261E-002  7.180986212991000E-002
  7.318157487922967E-002  7.478036643163037E-002  7.650795247002200E-002
  7.822798938946834E-002  7.980495841033719E-002  8.114359659628179E-002
  8.220736158033394E-002  8.300871541290721E-002  8.358862905729175E-002
  8.399549636959719E-002  8.427273841320271E-002  6.799486597274908E-002
  6.822672686387198E-002  6.865462980034816E-002  6.926712040111470E-002
  7.010647228630855E-002  7.120778268373529E-002  7.257766510062348E-002
  7.417424492250556E-002  7.589978229897795E-002  7.761807339899550E-002
  7.919382318926302E-002  8.053198489505428E-002  8.159570816033940E-002
  8.239751869197331E-002  8.297798032230363E-002  8.338562695160842E-002
  8.366351070619142E-002  6.742409893360737E-002  6.765677191874572E-002
  6.808126286436102E-002  6.868830338141055E-002  6.951985666282393E-002
  7.061086986937329E-002  7.196807867459806E-002  7.354997740110769E-002
  7.526000939746028E-002  7.696311069113668E-002  7.852530678354791E-002
  7.985243125643848E-002  8.090777108952348E-002  8.170380621107623E-002
  8.228026072898402E-002  8.268529960644848E-002  8.296154752282416E-002
  6.688721732069410E-002  6.711826449048980E-002  6.753569931249392E-002
  6.813182097341636E-002  6.894838408928360E-002  7.001966404129997E-002
  7.135243469686893E-002  7.290613953808255E-002  7.458575373353195E-002
  7.625897167012845E-002  7.779404276488977E-002  7.909860979950840E-002
  8.013650936695681E-002  8.091955720065756E-002  8.148699903639861E-002
  8.188584968571283E-002  8.215818421469795E-002  6.638480747515611E-002
  6.661206830016418E-002  6.701855853318739E-002  6.759847324175297E-002
  6.839257210382370E-002  6.943449691489986E-002  7.073093756993962E-002
  7.224233763566978E-002  7.387648156526351E-002  7.550469243866985E-002
  7.699885595066032E-002  7.826897884270471E-002  7.927998934957262E-002
  8.004303900983584E-002  8.059625645490848E-002  8.098527474332294E-002
  8.125111549324313E-002  6.591222127548793E-002  6.613366497729174E-002
  6.652592269437292E-002  6.708500140263135E-002  6.785045970320924E-002
  6.885482228723289E-002  7.010456532618656E-002  7.156172027855333E-002
  7.313734408475522E-002  7.470748530614631E-002  7.614878058148167E-002
  7.737440728917244E-002  7.835028860205358E-002  7.908722743762407E-002
  7.962165510051884E-002  7.999772619253588E-002  8.025487444008247E-002
  6.549416661414556E-002  6.570674959840532E-002  6.607889374962182E-002
  6.660862409082385E-002  6.733381462766144E-002  6.828533091834720E-002
  6.946932597586956E-002  7.084990266913804E-002  7.234313109303764E-002
  7.383124343105771E-002  7.519770382293403E-002  7.635998253496555E-002
  7.728588074294604E-002  7.798540227192623E-002  7.849302918242279E-002
  7.885036114713657E-002  7.909483686977566E-002  6.514506919101315E-002
  6.534481901991288E-002  6.568933732314965E-002  6.617898274466000E-002
  6.684920925859449E-002  6.772847512295421E-002  6.882269416467678E-002
  7.009885248683853E-002  7.147910466457720E-002  7.285505772674490E-002
  7.411882280714728E-002  7.519419383838803E-002  7.605121893629781E-002
  7.669919195249422E-002  7.716961500959653E-002  7.750093231279498E-002
  7.772791061696167E-002  6.476599777905659E-002  6.495394243795378E-002
  6.527399279886553E-002  6.572851282156959E-002  6.635035577253642E-002
  6.716623165783520E-002  6.818155046972869E-002  6.936574895193874E-002
  7.064674300136335E-002  7.192386809058765E-002  7.309704262302909E-002
  7.409572514931523E-002  7.489192576068260E-002  7.549413921629933E-002
  7.593159008959950E-002  7.623978084174171E-002  7.645111670596526E-002
  6.439922225562826E-002  6.457430558816409E-002  6.486862056506591E-002
  6.528612933100861E-002  6.585725997439357E-002  6.660637371094771E-002
  6.753864134688331E-002  6.862602150772724E-002  6.980238996617555E-002
  7.097537812966591E-002  7.205314182659593E-002  7.297079149433118E-002
  7.370269874573722E-002  7.425651346895176E-002  7.465891289302806E-002
  7.494263841126965E-002  7.513716624417019E-002  6.410593247269322E-002
  6.426352543091761E-002  6.452414227031707E-002  6.489330512660062E-002
  6.539793285301786E-002  6.605998694980170E-002  6.688377303612771E-002
  6.784464195293614E-002  6.888414455335704E-002  6.992081918050194E-002
  7.087348426582138E-002  7.168501688427992E-002  7.233252425402142E-002
  7.282266376326571E-002  7.317903599943361E-002  7.343036413942933E-002
  7.360282130735285E-002
  9.305992093471567E-002  9.307542767727377E-002  9.312760224856356E-002
  9.321610677362208E-002  9.334271881876513E-002  9.350896779579214E-002
  9.371396176816883E-002  9.395276182742368E-002  9.421012438984400E-002
  9.446566008655360E-002  9.469974134498826E-002  9.489887428165414E-002
  9.505782626933794E-002  9.517839067434855E-002  9.526636576016849E-002
  9.532872460669455E-002  9.537204503423354E-002  9.565413947366232E-002
  9.567543933525166E-002  9.573689356552047E-002  9.583740139072150E-002
  9.597996816831700E-002  9.616719174803375E-002  9.639845290652685E-002
  9.666789789382493E-002  9.695837701228004E-002  9.724693660507211E-002
  9.751123464490327E-002  9.773584871950833E-002  9.791490989126601E-002
  9.805044914766999E-002  9.814910187697611E-002  9.821886066425158E-002
  9.826708692860714E-002  9.826698988233136E-002  9.829422727294858E-002
  9.836370115744208E-002  9.847345581567116E-002  9.862783487781782E-002
  9.883053457908858E-002  9.908143855890339E-002  9.937375574984833E-002
  9.968904307233188E-002  0.100002380921600       0.100289325547611     
  0.100533023666538       0.100726971745165       0.100873515496558     
  0.100979917432952       0.101054969293785       0.101106601502963     
  0.100895307186808       0.100928425150850       0.101004779516395     
  0.101121439948909       0.101284130363671       0.101497792118528     
  0.101762730018064       0.102071431986245       0.102404570049535     
  0.102735772419252       0.103039078734215       0.103296441296636     
  0.103500986055707       0.103655217526477       0.103766958039549     
  0.103845553395933       0.103899374721140       0.103527156023711     
  0.103566469286748       0.103649601735727       0.103772716890913     
  0.103942914359470       0.104166441619463       0.104444139715429     
  0.104767727793540       0.105117104019123       0.105464629678366     
  0.105782861727371       0.106052693829197       0.106266821581441     
  0.106427989998737       0.106544483425649       0.106626195967969     
  0.106681896889192       0.106164752008183       0.106209539683809     
  0.106298494035793       0.106427027199202       0.106603589731091     
  0.106835392883778       0.107123767336160       0.107459760709782     
  0.107822734930017       0.108183899983948       0.108514668448948     
  0.108795011123724       0.109017282423492       0.109184391921663     
  0.109305014629178       0.109389468695388       0.109446828310588     
  0.108808477802555       0.108856305069602       0.108948487762544     
  0.109081127852826       0.109263069442276       0.109501864965595     
  0.109798820359683       0.110144808337298       0.110518586114668     
  0.110890543212147       0.111231337331167       0.111520343196485     
  0.111749699465729       0.111922277741909       0.112046958443542     
  0.112134346825159       0.112193741469831       0.111458118794016     
  0.111507906313311       0.111602405445214       0.111738107663966     
  0.111924163161771       0.112168267068511       0.112471878366275     
  0.112825614876252       0.113207792500723       0.113588190294102     
  0.113936750767105       0.114232503420126       0.114467318790821     
  0.114644098980986       0.114771910831518       0.114861524155725     
  0.114922480914659       0.114114085531505       0.114164860403470     
  0.114260796285947       0.114398504321174       0.114587299260136     
  0.114835043669891       0.115143196532527       0.115502268066058     
  0.115890239298415       0.116276490533679       0.116630480956241     
  0.116930902313748       0.117169501433874       0.117349189053609     
  0.117479133860230       0.117570275982617       0.117632324819001     
  0.116777111924724       0.116828888541348       0.116925601836809     
  0.117064244984532       0.117254262202273       0.117503617903472     
  0.117813746328221       0.118175214650136       0.118565801919204     
  0.118954682419587       0.119311216918928       0.119613867566537     
  0.119854372554895       0.120035549409805       0.120166661193313     
  0.120258649197878       0.120321330424906       0.119446966702823     
  0.119499387774917       0.119596131691382       0.119734608748830     
  0.119924376524987       0.120173370098081       0.120483084705787     
  0.120844052980952       0.121234177071200       0.121622662861954     
  0.121978921707325       0.122281464628269       0.122521960184495     
  0.122703240293794       0.122834475970600       0.122926640169746     
  0.122989466480222       0.122123900795303       0.122176505472484     
  0.122272477977186       0.122409722833592       0.122597727435421     
  0.122844392932475       0.123151242182821       0.123508891231725     
  0.123895509734440       0.124280561285252       0.124633755795930     
  0.124933803325872       0.125172403484812       0.125352377840532     
  0.125482707555457       0.125574282172003       0.125636738638335     
  0.124808393467711       0.124860630566802       0.124955007763374     
  0.125089783992400       0.125274399490767       0.125516603526668     
  0.125817927593363       0.126169202330124       0.126548943719039     
  0.126927238987633       0.127274300849332       0.127569248402764     
  0.127803905518883       0.127980943598678       0.128109235650160     
  0.128199411179725       0.128260982874324       0.127500679808959     
  0.127552060859184       0.127643963610475       0.127775075634581     
  0.127954612224374       0.128190179401631       0.128483289674410     
  0.128824999789579       0.129194460876055       0.129562580566987     
  0.129900393696244       0.130187553826484       0.130416131636273     
  0.130588648359806       0.130713724440690       0.130801676986910     
  0.130861780512993       0.130199811456359       0.130249877322150     
  0.130338562265812       0.130464963510671       0.130638024799986     
  0.130865099591129       0.131147652071743       0.131477097992703     
  0.131833328354530       0.132188319167193       0.132514179398177     
  0.132791279454566       0.133011914958941       0.133178528326299     
  0.133299356254243       0.133384381588752       0.133442519840349     
  0.132911169531400       0.132959232091196       0.133043369589701     
  0.133163135507412       0.133327092719987       0.133542219573987     
  0.133809907194650       0.134122039654846       0.134459641371476     
  0.134796086400121       0.135105027327457       0.135367805132985     
  0.135577140034086       0.135735293780173       0.135850062367248     
  0.135930851001299       0.135986124141240       0.135638220566266     
  0.135683381697714       0.135761273310759       0.135871976490659     
  0.136023506971872       0.136222298838161       0.136469689137556     
  0.136758213808904       0.137070272899883       0.137381360010438     
  0.137667082712827       0.137910211694535       0.138103975180160     
  0.138250474402313       0.138356831627422       0.138431738646682     
  0.138483055822204       0.138358392304174       0.138400884422902     
  0.138473244116518       0.138576005849050       0.138716597364963     
  0.138901057488428       0.139130609356271       0.139398342968908     
  0.139687960942392       0.139976704188618       0.140241945413415     
  0.140467736009045       0.140647747780102       0.140783901293617     
  0.140882803888426       0.140952482261344       0.141000262861690     
  0.141081446524547       0.141121030845788       0.141187572066034     
  0.141281965980477       0.141411092028803       0.141580458000790     
  0.141791232956056       0.142037077063398       0.142303040398012     
  0.142568239486941       0.142811909422753       0.143019379424083     
  0.143184855208319       0.143310066326899       0.143401044193490     
  0.143465191259321       0.143509171757729       0.143821012498963     
  0.143856642448389       0.143915564908581       0.143999028370703     
  0.144113118876864       0.144262801668859       0.144449050197503     
  0.144666291572351       0.144901311115728       0.145135691286979     
  0.145351077870190       0.145534556031138       0.145680949976000     
  0.145791764863435       0.145872336513937       0.145929158906372     
  0.145968149482097     
 -0.211910993593446      -0.211882773807544      -0.211777592101190     
 -0.211586875114570      -0.211291406315159      -0.210861123263588     
 -0.210288287690571      -0.209609637206152      -0.208867052706552     
 -0.208119002761795      -0.207424913228276      -0.206827940273717     
 -0.206347043263437      -0.205979638610131      -0.205710161189460     
 -0.205518309993107      -0.205384726023924      -0.212112330435890     
 -0.212070666717716      -0.211941890574933      -0.211719497906413     
 -0.211382127104913      -0.210898977008235      -0.210261743085097     
 -0.209506297027509      -0.208678582710136      -0.207843743596581     
 -0.207068070949635      -0.206400310240617      -0.205862019697357     
 -0.205450373009252      -0.205147994068874      -0.204932157688814     
 -0.204780616352105      -0.212251061299330      -0.212195564847092     
 -0.212045762025782      -0.211797878122977      -0.211429147402122     
 -0.210909827631563      -0.210231314069776      -0.209426306062313     
 -0.208542931716420      -0.207650634920973      -0.206820693599295     
 -0.206105430754556      -0.205528296413073      -0.205086578961033     
 -0.204761519267571      -0.204528805556398      -0.204364337669919     
 -0.212335212719074      -0.212266220124087      -0.212098289697004     
 -0.211830851007761      -0.211440415149280      -0.210899522435672     
 -0.210199518414620      -0.209368187142010      -0.208454588460421     
 -0.207530243570671      -0.206669353074388      -0.205926768574788     
 -0.205326968201225      -0.204867347260522      -0.204528509820255     
 -0.204285309013608      -0.204111969502554      -0.212397444045731     
 -0.212315070004786      -0.212130081732505      -0.211845173067817     
 -0.211436739852655      -0.210880173708572      -0.210166903498336     
 -0.209318918740412      -0.208385438685590      -0.207439547795115     
 -0.206557239601715      -0.205795208073400      -0.205179196889391     
 -0.204706457777697      -0.204357419845380      -0.204105902846117     
 -0.203925288575202      -0.212432685026590      -0.212339679757159     
 -0.212142238997468      -0.211845522423080      -0.211425724533072     
 -0.210860788323298      -0.210142152932362      -0.209287064772798     
 -0.208344659780312      -0.207388205429917      -0.206494882765592     
 -0.205722541884890      -0.205097432742397      -0.204617112275733     
 -0.204261675500327      -0.204004991603551      -0.203819453435520     
 -0.212442034027150      -0.212345701171117      -0.212146837398831     
 -0.211849081060073      -0.211428391706775      -0.210862206059426     
 -0.210141877164760      -0.209284755856266      -0.208339834767941     
 -0.207380467743761      -0.206483883038816      -0.205708084882405     
 -0.205079552899792      -0.204596068422809      -0.204237906426769     
 -0.203978865559481      -0.203791406433840      -0.212427116517047     
 -0.212330117700333      -0.212132896895471      -0.211837952152100     
 -0.211421060285482      -0.210859976278337      -0.210145961809064     
 -0.209296015567532      -0.208358485887127      -0.207406385021144     
 -0.206516056977547      -0.205745106908007      -0.205119972780247     
 -0.204638720306937      -0.204281916620382      -0.204023665578000     
 -0.203836383358360      -0.212388754257092      -0.212293586698038     
 -0.212100652157435      -0.211811973791262      -0.211403633624391     
 -0.210853790993638      -0.210153707577402      -0.209319740264627     
 -0.208399428680506      -0.207464308463976      -0.206589398363608     
 -0.205831395678396      -0.205216307916726      -0.204742498224729     
 -0.204390977246662      -0.204136352338526      -0.203951444032987     
 -0.212328181138344      -0.212235340559381      -0.212048497989658     
 -0.211769045060063      -0.211373692543777      -0.210841043289567     
 -0.210162272883968      -0.209353401624605      -0.208460375048743     
 -0.207552229354395      -0.206702125650133      -0.205964981910667     
 -0.205366508210928      -0.204904921618548      -0.204562185064790     
 -0.204313712114162      -0.204132965100257      -0.212248747244562     
 -0.212158951262647      -0.211980058580902      -0.211712505766427     
 -0.211333843682302      -0.210823197004963      -0.210172310082622     
 -0.209396013479073      -0.208538363709874      -0.207665654808818     
 -0.206848193523150      -0.206138750530274      -0.205562169709984     
 -0.205117163852344      -0.204786356018628      -0.204546250362694     
 -0.204371266781604      -0.212153142529490      -0.212067372313649     
 -0.211897916964274      -0.211644615404764      -0.211285665575592     
 -0.210801321900401      -0.210183513963755      -0.209446114765976     
 -0.208630902999127      -0.207800791231535      -0.207022579495256     
 -0.206346700657571      -0.205796769706580      -0.205371909062912     
 -0.205055863758896      -0.204826095511857      -0.204658292268411     
 -0.212042376489977      -0.211961566275227      -0.211803048755232     
 -0.211565846091949      -0.211229596459134      -0.210775451857272     
 -0.210195639304385      -0.209502995921610      -0.208736672933576     
 -0.207955781259647      -0.207222987968068      -0.206585960156344     
 -0.206067229999379      -0.205666110430622      -0.205367217954006     
 -0.205149783335306      -0.204990577334331      -0.211918888580319     
 -0.211843834299332      -0.211697384633022      -0.211478003257505     
 -0.211166773856285      -0.210746043440148      -0.210208151224224     
 -0.209565295028406      -0.208853221006304      -0.208127120954748     
 -0.207445035755424      -0.206851590131372      -0.206367857695128     
 -0.205993341892960      -0.205713919502200      -0.205510319008850     
 -0.205361067168545      -0.211789556705332      -0.211720532463112     
 -0.211586594439541      -0.211385760021998      -0.211100485364489     
 -0.210714377751198      -0.210220410422030      -0.209629356515896     
 -0.208974099771831      -0.208305260510265      -0.207676506425460     
 -0.207128806669987      -0.206681789346633      -0.206335307545602     
 -0.206076576633337      -0.205887835868687      -0.205749036688268     
 -0.211640360394915      -0.211578180453221      -0.211458455635157     
 -0.211278830078610      -0.211023197671185      -0.210676801719639     
 -0.210233163396782      -0.209701565897451      -0.209111795598956     
 -0.208508998492018      -0.207941785347909      -0.207447015683843     
 -0.207042853763767      -0.206729058809869      -0.206494521369019     
 -0.206323035907239      -0.206196638672138      -0.211467531050196     
 -0.211413437630439      -0.211309948619661      -0.211154494037374     
 -0.210932807359194      -0.210632070624375      -0.210246240741530     
 -0.209783303973924      -0.209269098694308      -0.208742865827264     
 -0.208247005868309      -0.207813994594296      -0.207459574866867     
 -0.207184106051590      -0.206977788679530      -0.206826658659128     
 -0.206714928417322      -0.211333850719096      -0.211285889536476     
 -0.211194881618030      -0.211057784589295      -0.210862296763623     
 -0.210596542191435      -0.210255150963976      -0.209845274253983     
 -0.209389350362554      -0.208922450315187      -0.208481886302700     
 -0.208096747082915      -0.207781199481531      -0.207535508996099     
 -0.207351293062509      -0.207216195006854      -0.207115956358003     
 -0.211211821672051      -0.211169429241358      -0.211089459682277     
 -0.210969058356384      -0.210796956956534      -0.210562907779567     
 -0.210261976652530      -0.209900268316038      -0.209497601102809     
 -0.209084698679054      -0.208694836362382      -0.208353616747099     
 -0.208073677556969      -0.207855600052089      -0.207691849811498     
 -0.207571552329214      -0.207482155696241      -0.211071202629779     
 -0.211035104621220      -0.210967752511331      -0.210866181964265     
 -0.210720909550728      -0.210522919236035      -0.210268200529315     
 -0.209961694265486      -0.209620165572769      -0.209269638337368     
 -0.208938317624182      -0.208647933561891      -0.208409443417360     
 -0.208223360687907      -0.208083473989382      -0.207980560667777     
 -0.207903926731191     
 -9.067871944822855E-003 -2.070378951931953E-002 -3.272380898305819E-002
 -4.548944012454981E-002 -5.913400317758823E-002 -7.299322641769168E-002
 -8.616289790248219E-002 -9.865039646187977E-002 -0.110113999579845     
 -0.120299957431049      -0.129180430429344      -0.136861504565924     
 -0.143344639945882      -0.148385518695986      -0.151704813582367     
 -0.153326201715097      -1.821258884976431E-002 -3.858146534595246E-002
 -5.922212150323341E-002 -8.098799471014814E-002 -0.104166858237081     
 -0.127927575675744      -0.151021725223523      -0.173111576390911     
 -0.193533823366511      -0.211723447690449      -0.227247088751683     
 -0.239783576692314      -0.249243005747722      -0.255822327104028     
 -0.259867807303278      -0.261811597429505      -2.889880454003336E-002
 -5.794854596107286E-002 -8.672827291171720E-002 -0.116726553147002     
 -0.148407056660355      -0.180948022226373      -0.212932558210247     
 -0.243572645587415      -0.271721375996629      -0.296322998790073     
 -0.316607928664074      -0.332267808618691      -0.343548502551990     
 -0.351099527269333      -0.355645713966413      -0.357842002828438     
 -4.085319083328180E-002 -7.858303364501674E-002 -0.115135945713998     
 -0.152787936789248      -0.192213521889653      -0.232710687942116     
 -0.272798119397396      -0.311147233749008      -0.346108742365979     
 -0.376226956112314      -0.400577283692011      -0.419001809448892     
 -0.432062704560431      -0.440711666646991      -0.445913535472080     
 -0.448460748148275      -5.325543958559302E-002 -9.943027345358345E-002
 -0.143319632571628      -0.188103984038689      -0.234691108927109     
 -0.282533990209642      -0.330107607693520      -0.375501311874636     
 -0.416604524924819      -0.451642020954225      -0.479615160784248     
 -0.500514152717332      -0.515162119289318      -0.524776873623865     
 -0.530545651806004      -0.533403266783362      -6.449453807686481E-002
 -0.118403843548005      -0.169226666740941      -0.220874420377096     
 -0.274416822906241      -0.329296746497603      -0.383824901854014     
 -0.435638108745308      -0.482244851574298      -0.521619436364351     
 -0.552737937687231      -0.575750728403939      -0.591723981829983     
 -0.602122499397665      -0.608332341635059      -0.611430340580056     
 -7.384137884544942E-002 -0.134556322201752      -0.191813947324884     
 -0.249985778774773      -0.310207431087027      -0.371785859432469     
 -0.432768355270965      -0.490461149467480      -0.542042689334471     
 -0.585300368521316      -0.619188455489162      -0.644010517849036     
 -0.661066188538993      -0.672059684975455      -0.678580375782748     
 -0.681837007487109      -8.165410262826057E-002 -0.148439864148617     
 -0.211469279757734      -0.275512524690822      -0.341739164176960     
 -0.409335155181362      -0.476098393897706      -0.539016117791901     
 -0.594983938035875      -0.641637389401155      -0.677920828776154     
 -0.704287460899477      -0.722247075373073      -0.733724507754215     
 -0.740488375780989      -0.743870216777696      -8.817935690633816E-002
 -0.160114096157898      -0.228059678988979      -0.297111753786526     
 -0.368480858949821      -0.441230996763102      -0.512922528408857     
 -0.580279208663027      -0.639966129884093      -0.689472051667423     
 -0.727760970543507      -0.755402792539632      -0.774107245367586     
 -0.785970249089279      -0.792920620302469      -0.796395043361031     
 -9.362740949801163E-002 -0.169574602525525      -0.241391961070160     
 -0.314423406663744      -0.389904984332667      -0.466771362693482     
 -0.542398130091071      -0.613290942016700      -0.675938972925506     
 -0.727714190929050      -0.767606328952230      -0.796270541537494     
 -0.815574673101277      -0.827756047368688      -0.834862755420633     
 -0.838419730898773      -9.765491563345613E-002 -0.176399283388495     
 -0.250967358658645      -0.326875159125183      -0.405333389115996     
 -0.485173947805007      -0.563649939802890      -0.637097636648845     
 -0.701888852450062      -0.755325784718820      -0.796401764728030     
 -0.825845628461015      -0.845607288201340      -0.858045381425735     
 -0.865288752773772      -0.868921275425613      -0.100023966195415     
 -0.180279328704033      -0.256389699499268      -0.333940480275298     
 -0.414107209736513      -0.495656530993294      -0.575755558028423     
 -0.650658275332655      -0.716686398529022      -0.771120311370610     
 -0.812930979993610      -0.842880667299672      -0.862960959451108     
 -0.875588290449234      -0.882937101417124      -0.886631236757598     
 -0.100598413292165      -0.180968086409014      -0.257296786240623     
 -0.335111943925592      -0.415566288801925      -0.497392178997305     
 -0.577712609927672      -0.652822894503228      -0.719055563853352     
 -0.773733535486737      -0.815787378709660      -0.845951071339602     