 Title = "Wing and Tip"
 VARIABLES = "X" "Y" "Z" "GAM" "ageAzimuthal"
 Zone I=   17 J=   20 K=1  T="Blade"
 DATAPACKING=BLOCK
 VARLOCATION=([4,5]=CELLCENTERED)
 -7.479186743888178E-002 -7.485958874342682E-002 -7.508744640073539E-002
 -7.547396483764005E-002 -7.602690707137882E-002 -7.675295237465608E-002
 -7.764820546736934E-002 -7.869109706613041E-002 -7.981505513808891E-002
 -8.093103489166852E-002 -8.195331846484140E-002 -8.282297514471501E-002
 -8.351715291451481E-002 -8.404368379347577E-002 -8.442789005451376E-002
 -8.470022464837050E-002 -8.488941434152296E-002 -7.372653672655054E-002
 -7.381955783707836E-002 -7.408794177574089E-002 -7.452688122508176E-002
 -7.514950123229916E-002 -7.596714717001715E-002 -7.697711475572351E-002
 -7.815383939498173E-002 -7.942242464239341E-002 -8.068262690534092E-002
 -8.183687370983897E-002 -8.281781204000542E-002 -8.359981097364372E-002
 -8.419174027319047E-002 -8.462257811681953E-002 -8.492722985525003E-002
 -8.513784440071158E-002 -7.274212253065970E-002 -7.286107411691675E-002
 -7.316448162316908E-002 -7.364380399582335E-002 -7.431801080900279E-002
 -7.520324432270684E-002 -7.629899636506818E-002 -7.757560887329322E-002
 -7.895253692280889E-002 -8.032095120040472E-002 -8.157410055351098E-002
 -8.263838304010189E-002 -8.348539632153587E-002 -8.412538463500571E-002
 -8.459006494498247E-002 -8.491783268246923E-002 -8.514332172692621E-002
 -7.182570851546127E-002 -7.197034183998746E-002 -7.230379789776266E-002
 -7.281327928296658E-002 -7.352378357381290E-002 -7.445689075063713E-002
 -7.561393196110032E-002 -7.696210034155286E-002 -7.841698644382841E-002
 -7.986341895287162E-002 -8.118802334666013E-002 -8.231198141861866E-002
 -8.320527269949705E-002 -8.387883494915839E-002 -8.436682998017850E-002
 -8.471007293049641E-002 -8.494512231895723E-002 -7.092426457199169E-002
 -7.109595410954268E-002 -7.145901152626015E-002 -7.199668208389587E-002
 -7.273997130519189E-002 -7.371616328047140E-002 -7.492893103345152E-002
 -7.634211028129116E-002 -7.786791195656639E-002 -7.938563180768093E-002
 -8.077542011594123E-002 -8.195383536821388E-002 -8.288897765659554E-002
 -8.359283505473585E-002 -8.410158709029737E-002 -8.445844346698478E-002
 -8.470170145849300E-002 -7.004837256271186E-002 -7.024397004616435E-002
 -7.063245297471325E-002 -7.119378514816091E-002 -7.196487198012108E-002
 -7.297720657190793E-002 -7.423660028656658E-002 -7.570395614771236E-002
 -7.728914321186571E-002 -7.886642925478679E-002 -8.031096680791580E-002
 -8.153528400955334E-002 -8.250599093440590E-002 -8.323579431996350E-002
 -8.376257981859099E-002 -8.413140902410636E-002 -8.438191089159890E-002
 -6.919879786584976E-002 -6.940766990361409E-002 -6.981025169660046E-002
 -7.038951970953862E-002 -7.118409805132958E-002 -7.222696984067695E-002
 -7.352383838696983E-002 -7.503484284925135E-002 -7.666721138818666E-002
 -7.829162862355041E-002 -7.977995038001161E-002 -8.104210161177013E-002
 -8.204375013340236E-002 -8.279743685742465E-002 -8.334194449560019E-002
 -8.372358849226168E-002 -8.398297777438314E-002 -6.837550901183927E-002
 -6.859294189589307E-002 -6.900564007971974E-002 -6.959828107114426E-002
 -7.041082574206892E-002 -7.147688039196612E-002 -7.280281671172500E-002
 -7.434766069367835E-002 -7.601671318486856E-002 -7.767799276804531E-002
 -7.920023187505773E-002 -8.049184779052386E-002 -8.151733739099187E-002
 -8.228937478380446E-002 -8.284755682763623E-002 -8.323891763065988E-002
 -8.350512900422094E-002 -6.757984606131309E-002 -6.780159092840679E-002
 -6.822056371328016E-002 -6.882196453984764E-002 -6.964647294385171E-002
 -7.072842645918941E-002 -7.207419677675012E-002 -7.364233996248637E-002
 -7.533669439459091E-002 -7.702353722672708E-002 -7.856949009995599E-002
 -7.988149525946076E-002 -8.092350931350828E-002 -8.170824408119526E-002
 -8.227574120640709E-002 -8.267377860232591E-002 -8.294475931472223E-002
 -6.681456126141430E-002 -6.704068096447251E-002 -6.746304888029155E-002
 -6.806853354573446E-002 -6.889837990599484E-002 -6.998737028018026E-002
 -7.134176830552366E-002 -7.292037878543753E-002 -7.462615801667176E-002
 -7.632448341925453E-002 -7.788154682699200E-002 -7.920328777938311E-002
 -8.025362517294020E-002 -8.104486375330443E-002 -8.161745731942373E-002
 -8.201918886608778E-002 -8.229293136544698E-002 -6.607955039330454E-002
 -6.630848457303519E-002 -6.673098621741332E-002 -6.733574553063779E-002
 -6.816450252545225E-002 -6.925191140774542E-002 -7.060450220440208E-002
 -7.218092887181694E-002 -7.388468530078471E-002 -7.558128692090038E-002
 -7.713714648802368E-002 -7.845841697472952E-002 -7.950871317612333E-002
 -8.030040269077084E-002 -8.087353732577129E-002 -8.127603835234753E-002
 -8.155041446255611E-002 -6.537500352941214E-002 -6.560473955233587E-002
 -6.602387227440371E-002 -6.662325029870464E-002 -6.744430712920545E-002
 -6.852154879901354E-002 -6.986162595925499E-002 -7.142355684641848E-002
 -7.311200361508971E-002 -7.479360716529308E-002 -7.633608411887582E-002
 -7.764645669240461E-002 -7.868847528318135E-002 -7.947446228903948E-002
 -8.004364039221171E-002 -8.044356658382658E-002 -8.071632750452973E-002
 -6.470391951728964E-002 -6.493205024705626E-002 -6.534421591287269E-002
 -6.593281290653522E-002 -6.673906878791239E-002 -6.779682629021777E-002
 -6.911277377633233E-002 -7.064686666126765E-002 -7.230527958393235E-002
 -7.395737698582630E-002 -7.547307133257479E-002 -7.676117120369737E-002
 -7.778596967214783E-002 -7.855913332484395E-002 -7.911941251026818E-002
 -7.951322858590512E-002 -7.978212551674821E-002 -6.406687214562762E-002
 -6.429126432451590E-002 -6.469262355165792E-002 -6.526521816852551E-002
 -6.604929335573163E-002 -6.707806625835154E-002 -6.835814232677913E-002
 -6.985046443688868E-002 -7.146398105140336E-002 -7.307163950094236E-002
 -7.454694262922819E-002 -7.580103313599158E-002 -7.679928195651352E-002
 -7.755269986679574E-002 -7.809893421182419E-002 -7.848304203754228E-002
 -7.874552715837123E-002 -6.345926681353549E-002 -6.367791529704392E-002
 -6.406522166107972E-002 -6.461724328430402E-002 -6.537303943134706E-002
 -6.636472424378700E-002 -6.759869214631258E-002 -6.903745386306703E-002
 -7.059318903638405E-002 -7.214351082993556E-002 -7.356661306166697E-002
 -7.477676904624034E-002 -7.574033209819202E-002 -7.646796877299215E-002
 -7.699565051370102E-002 -7.736697457164930E-002 -7.762087691298879E-002
 -6.290550983554964E-002 -6.311540944772887E-002 -6.348285613348786E-002
 -6.400589984540495E-002 -6.472193651676940E-002 -6.566144209898836E-002
 -6.683049193738910E-002 -6.819364201974129E-002 -6.966802186327596E-002
 -7.113735019976873E-002 -7.248656216662197E-002 -7.363416977853285E-002
 -7.454838064752123E-002 -7.523907232331546E-002 -7.574029160959041E-002
 -7.609311307869197E-002 -7.633450285665448E-002 -6.241983451772314E-002
 -6.261706296366315E-002 -6.295723251434372E-002 -6.344069728664450E-002
 -6.410246372969636E-002 -6.497063088133287E-002 -6.605103792000594E-002
 -6.731108767343909E-002 -6.867391733652482E-002 -7.003250215050254E-002
 -7.128031509839849E-002 -7.234211203944645E-002 -7.318831916324436E-002
 -7.382811300787240E-002 -7.429259805398057E-002 -7.461973323693874E-002
 -7.484384646116268E-002 -6.190456871510618E-002 -6.209014100420970E-002
 -6.240615146415832E-002 -6.285493421516394E-002 -6.346892782664072E-002
 -6.427450515215763E-002 -6.527700789524621E-002 -6.644625859056530E-002
 -6.771108303130730E-002 -6.897208734858921E-002 -7.013045324619406E-002
 -7.111652969858398E-002 -7.190268010532755E-002 -7.249729199876305E-002
 -7.292922105918545E-002 -7.323352161069450E-002 -7.344218984486445E-002
 -6.140143844241041E-002 -6.157431174986821E-002 -6.186491167594066E-002
 -6.227715035232315E-002 -6.284107178266461E-002 -6.358072967827694E-002
 -6.450122957581680E-002 -6.557488405878027E-002 -6.673640356640964E-002
 -6.789458544754361E-002 -6.895874485237015E-002 -6.986481129999501E-002
 -7.058747990282785E-002 -7.113430398673312E-002 -7.153162404199905E-002
 -7.181176817701299E-002 -7.200384054266341E-002 -6.097087147270518E-002
 -6.112647518166905E-002 -6.138380233185347E-002 -6.174830535468280E-002
 -6.224656331469086E-002 -6.290026049859414E-002 -6.371364817701240E-002
 -6.466238832992277E-002 -6.568876959673536E-002 -6.671235858694154E-002
 -6.765299846289993E-002 -6.845428734534774E-002 -6.909362142123794E-002
 -6.957757404454971E-002 -6.992944789947476E-002 -7.017760359875851E-002
 -7.034788389090252E-002
  9.276285454273678E-002  9.278178780960583E-002  9.284549139392044E-002
  9.295355276050038E-002  9.310814226442191E-002  9.331112727155240E-002
  9.356141875417424E-002  9.385298645340083E-002  9.416721841140817E-002
  9.447921982125858E-002  9.476502600642792E-002  9.500816134050195E-002
  9.520223694283227E-002  9.534944245981289E-002  9.545685739698601E-002
  9.553299567544643E-002  9.558588861620405E-002  9.530675932854112E-002
  9.533276581973202E-002  9.540779958891575E-002  9.553051662441217E-002
  9.570458637740703E-002  9.593318074438212E-002  9.621554367223348E-002
  9.654452790808239E-002  9.689919418624610E-002  9.725151678123495E-002
  9.757421674883163E-002  9.784846378692229E-002  9.806709209896287E-002
  9.823258145967750E-002  9.835303347880960E-002  9.843820686264465E-002
  9.849708968279274E-002  9.787339028340358E-002  9.790664631918478E-002
  9.799147184528087E-002  9.812547898614631E-002  9.831397118375834E-002
  9.856146143027636E-002  9.886780765292642E-002  9.922471816238811E-002
  9.960967451247735E-002  9.999225061432854E-002  0.100342601383389     
  0.100640149466345       0.100876954244498       0.101055879763039     
  0.101185793331253       0.101277429398907       0.101340470775375     
  0.100458928637655       0.100499364676945       0.100592591063728     
  0.100735029947558       0.100933670057056       0.101194544641722     
  0.101518025858797       0.101894941689096       0.102301693257506     
  0.102706081402207       0.103076409302002       0.103390641260009     
  0.103640384266678       0.103828696259654       0.103965128069630     
  0.104061090638912       0.104126804860294       0.103048756102712     
  0.103096756415980       0.103198258639034       0.103348578545358     
  0.103556384542042       0.103829304612137       0.104168365645760     
  0.104563456969131       0.104990034845935       0.105414353236826     
  0.105802905009544       0.106132361900602       0.106393805454081     
  0.106590587250389       0.106732822225397       0.106832590785071     
  0.106900599936729       0.105645623446522       0.105700307853120     
  0.105808918444864       0.105965853576481       0.106181431124297     
  0.106464455810779       0.106816552354888       0.107226790171444     
  0.107669970791259       0.108110942473362       0.108514800833438     
  0.108857090818350       0.109128477398737       0.109332513076336     
  0.109479789778922       0.109582905656917       0.109652940024097     
  0.108249952319886       0.108308347976306       0.108420900275385     
  0.108582849841350       0.108804995056871       0.109096557217856     
  0.109459130834032       0.109881571761844       0.110337943200403     
  0.110792091643502       0.111208191025984       0.111561058506322     
  0.111841095621620       0.112051808512895       0.112204039904405     
  0.112310738493369       0.112383257570407       0.110861526255419     
  0.110922315320951       0.111037695922421       0.111203384255267     
  0.111430552429315       0.111728595967003       0.112099296241636     
  0.112531197894710       0.112997825294262       0.113462279573512     
  0.113887861440920       0.114248966546383       0.114535669060570     
  0.114751512362603       0.114907566792865       0.115016981969898     
  0.115091408341526       0.113480823736839       0.113542818330324     
  0.113659953161086       0.113828090535597       0.114058603485010     
  0.114361091967525       0.114737337356446       0.115175752913026     
  0.115649454133776       0.116121055289741       0.116553266962455     
  0.116920072415855       0.117211394774441       0.117430787960645     
  0.117589446666221       0.117700728459911       0.117776488225300     
  0.116108718061641       0.116171935755262       0.116290019783927     
  0.116459298902706       0.116691304217794       0.116995760038761     
  0.117374417529679       0.117815759492881       0.118292654815875     
  0.118767466225572       0.119202784139614       0.119572311489263     
  0.119865960855712       0.120087172353331       0.120247255902632     
  0.120359570493052       0.120436102388422       0.118744972423474     
  0.118808976977866       0.118927098393857       0.119096174721399     
  0.119327875475804       0.119631889149234       0.120010041381973     
  0.120450772803114       0.120927102598681       0.121401432079778     
  0.121836413428602       0.122205809247230       0.122499447097329     
  0.122720784665454       0.122881019484751       0.122993549203463     
  0.123070258241364       0.121389847631311       0.121454076361999     
  0.121571255907399       0.121738827754482       0.121968375725995     
  0.122269546888511       0.122644200605984       0.123080879351563     
  0.123552928930055       0.124023065307341       0.124454305195552     
  0.124820654216723       0.125111977843671       0.125331721125899     
  0.125490849792952       0.125602659649018       0.125678917118330     
  0.124043974422398       0.124107754351280       0.124222986073374     
  0.124387543800580       0.124612953778568       0.124908677631031     
  0.125276585265233       0.125705481167158       0.126169133996276     
  0.126631021155920       0.127054773263940       0.127414895366989     
  0.127701404657093       0.127917562834616       0.128074203575814     
  0.128184305188703       0.128259482378305       0.126707617049033     
  0.126770351767963       0.126882562266696       0.127042646109761     
  0.127261854892942       0.127549475340359       0.127907354178917     
  0.128324571965182       0.128775672853824       0.129225135938799     
  0.129637595622324       0.129988209515574       0.130267296155260     
  0.130477933892603       0.130630648030302       0.130738035447300     
  0.130811420047245       0.129379594804653       0.129440723722895     
  0.129549005375170       0.129703337498276       0.129914640134082     
  0.130191891633149       0.130536879724611       0.130939123298141     
  0.131374069869413       0.131807502988391       0.132205368542167     
  0.132543699387431       0.132813088710781       0.133016518627559     
  0.133164045898125       0.133267859277553       0.133338844336384     
  0.132066523445367       0.132125206387165       0.132227935745501     
  0.132374166333474       0.132574353165048       0.132837016591759     
  0.133163855135734       0.133544959493737       0.133957161048794     
  0.134367950322568       0.134745157914816       0.135066001721993     
  0.135321593348194       0.135514694321512       0.135654823318889     
  0.135753463814321       0.135820950657883       0.134772589934435     
  0.134827730319373       0.134922833639178       0.135057998896511     
  0.135243013062370       0.135485731959758       0.135787788084161     
  0.136140068041115       0.136521082817508       0.136900910834999     
  0.137249769672020       0.137546622855530       0.137783202251171     
  0.137962073400847       0.138091932377926       0.138183391598370     
  0.138246048328208       0.137470279792764       0.137522161393343     
  0.137610510405693       0.137735979394338       0.137907637412152     
  0.138132857682053       0.138413133617364       0.138740028316159     
  0.139093643162180       0.139446189992494       0.139770041560604     
  0.140045725095524       0.140265514060755       0.140431753410950     
  0.140552510508357       0.140637585708677       0.140695924386457     
  0.140171466291393       0.140219797558586       0.140301042389727     
  0.140416294523840       0.140573953550132       0.140780744314479     
  0.141038094203559       0.141338262473908       0.141662995716413     
  0.141986795837892       0.142284309510112       0.142537624149711     
  0.142739665111668       0.142892544126338       0.143003625368634     
  0.143081947009152       0.143135645876613       0.142892835929929     
  0.142936339027919       0.143008281581888       0.143110187962047     
  0.143249489042997       0.143432247235821       0.143659651094724     
  0.143924896287874       0.144211848090774       0.144498019239513     
  0.144760999787789       0.144985021110953       0.145163763720219     
  0.145299065369098       0.145397440934132       0.145466819368455     
  0.145514425690208     
 -3.380718714638013E-002 -3.377896736047735E-002 -3.367378565412427E-002
 -3.348306866750383E-002 -3.318759986809299E-002 -3.275731681652207E-002
 -3.218448124350447E-002 -3.150583075908615E-002 -3.076324625948602E-002
 -3.001519631472863E-002 -2.932110678121006E-002 -2.872413382665033E-002
 -2.824323681637070E-002 -2.787583216306448E-002 -2.760635474239380E-002
 -2.741450354604119E-002 -2.728091957685737E-002 -3.400852398882419E-002
 -3.396686027065009E-002 -3.383808412786697E-002 -3.361569145934716E-002
 -3.327832065784683E-002 -3.279517056116830E-002 -3.215793663803050E-002
 -3.140249058044237E-002 -3.057477626307002E-002 -2.973993714951450E-002
 -2.896426450256915E-002 -2.829650379355087E-002 -2.775821325029108E-002
 -2.734656656218549E-002 -2.704418762180757E-002 -2.682835124174750E-002
 -2.667680990503904E-002 -3.414725485226391E-002 -3.409175840002554E-002
 -3.394195557871616E-002 -3.369407167591047E-002 -3.332534095505604E-002
 -3.280602118449688E-002 -3.212750762270981E-002 -3.132249961524713E-002
 -3.043912526935339E-002 -2.954682847390679E-002 -2.871688715222918E-002
 -2.800162430748947E-002 -2.742448996600703E-002 -2.698277251396689E-002
 -2.665771282050445E-002 -2.642499910933197E-002 -2.626053122285294E-002
 -3.423140627200780E-002 -3.416241367702121E-002 -3.399448324993780E-002
 -3.372704456069450E-002 -3.333660870221403E-002 -3.279571598860572E-002
 -3.209571196755350E-002 -3.126438069494410E-002 -3.035078201335479E-002
 -2.942643712360449E-002 -2.856554662732174E-002 -2.782296212772163E-002
 -2.722316175415860E-002 -2.676354081345540E-002 -2.642470337318926E-002
 -2.618150256654198E-002 -2.600816305548822E-002 -3.429363759866499E-002
 -3.421126355771949E-002 -3.402627528543877E-002 -3.374136662075044E-002
 -3.333293340558841E-002 -3.277636726150577E-002 -3.206309705126965E-002
 -3.121511229334526E-002 -3.028163223852425E-002 -2.933574134804869E-002
 -2.845343315464873E-002 -2.769140162633418E-002 -2.707539044232452E-002
 -2.660265133063105E-002 -2.625361339831349E-002 -2.600209639905089E-002
 -2.582148212813588E-002 -3.432887857952401E-002 -3.423587331009276E-002
 -3.403843255040210E-002 -3.374171597601359E-002 -3.332191808600543E-002
 -3.275698187623210E-002 -3.203834648529622E-002 -3.118325832573137E-002
 -3.024085333324595E-002 -2.928439898285091E-002 -2.839107631852582E-002
 -2.761873543782387E-002 -2.699362629533053E-002 -2.651330582866706E-002
 -2.615786905326108E-002 -2.590118515648481E-002 -2.571564698845346E-002
 -3.433822758008395E-002 -3.424189472405035E-002 -3.404303095176473E-002
 -3.374527461300685E-002 -3.332458525970891E-002 -3.275839961235941E-002
 -3.203807071769407E-002 -3.118094940920023E-002 -3.023602832087460E-002
 -2.927666129669481E-002 -2.838007659174941E-002 -2.760427843533833E-002
 -2.697574645272538E-002 -2.649226197574255E-002 -2.613409997970286E-002
 -2.587505911241480E-002 -2.568759998677362E-002 -3.432331006998069E-002
 -3.422631125326702E-002 -3.402909044840488E-002 -3.373414570503357E-002
 -3.331725383841619E-002 -3.275616983127044E-002 -3.204215536199751E-002
 -3.119220912046549E-002 -3.025467944006106E-002 -2.930257857407788E-002
 -2.841225053048062E-002 -2.764130046094069E-002 -2.701616633318030E-002
 -2.653491385987064E-002 -2.617811017331549E-002 -2.591985913093333E-002
 -2.573257691129412E-002 -3.428494781002571E-002 -3.418978025097200E-002
 -3.399684571036878E-002 -3.370816734419543E-002 -3.329982717732506E-002
 -3.274998454657150E-002 -3.204990113033595E-002 -3.121593381756041E-002
 -3.029562223343931E-002 -2.936050201690951E-002 -2.848559191654194E-002
 -2.772758923132960E-002 -2.711250146966011E-002 -2.663869177766309E-002
 -2.628717079959611E-002 -2.603254589145992E-002 -2.584763758592062E-002
 -3.422437469127821E-002 -3.413153411231517E-002 -3.394469154259187E-002
 -3.366523861299719E-002 -3.326988609671107E-002 -3.273723684250114E-002
 -3.205846643690168E-002 -3.124959517753862E-002 -3.035656860167660E-002
 -2.944842290732826E-002 -2.859831920306635E-002 -2.786117546360102E-002
 -2.726270176386150E-002 -2.680111517148202E-002 -2.645837861772385E-002
 -2.620990566709607E-002 -2.602915865319085E-002 -3.414494079749606E-002
 -3.405514481558113E-002 -3.387625213383570E-002 -3.360869931936120E-002
 -3.323003723523592E-002 -3.271939055789665E-002 -3.206850363555606E-002
 -3.129220703200640E-002 -3.043455726280806E-002 -2.956184836175187E-002
 -2.874438707608340E-002 -2.803494408320781E-002 -2.745836326291755E-002
 -2.701335740527751E-002 -2.668254957156190E-002 -2.644244391562733E-002
 -2.626746033453730E-002 -3.404933608242419E-002 -3.396356586658323E-002
 -3.379411051720745E-002 -3.354080895769779E-002 -3.318185912852625E-002
 -3.269751545333477E-002 -3.207970751668907E-002 -3.134230831891011E-002
 -3.052709655206100E-002 -2.969698478446866E-002 -2.891877304819011E-002
 -2.824289421050485E-002 -2.769296325951399E-002 -2.726810261584620E-002
 -2.695205731182928E-002 -2.672228906479119E-002 -2.655448582134441E-002
 -3.393857004291109E-002 -3.385775982816069E-002 -3.369924230816560E-002
 -3.346203964488316E-002 -3.312579001206818E-002 -3.267164541020550E-002
 -3.209183285731922E-002 -3.139918947454362E-002 -3.063286648650932E-002
 -2.985197481258023E-002 -2.911918152100193E-002 -2.848215370927760E-002
 -2.796342355231242E-002 -2.756230398355576E-002 -2.726341150693987E-002
 -2.704597688823997E-002 -2.688677088726451E-002 -3.381508213325251E-002
 -3.374002785226547E-002 -3.359357818595601E-002 -3.337419681043859E-002
 -3.306296740921851E-002 -3.264223699308187E-002 -3.210434477715814E-002
 -3.146148858133947E-002 -3.074941455923802E-002 -3.002331450768173E-002
 -2.934122930835798E-002 -2.874778368430604E-002 -2.826405124806140E-002
 -2.788953544589414E-002 -2.761011305513389E-002 -2.740651256178323E-002
 -2.725726072147867E-002 -3.368575025826542E-002 -3.361672601604541E-002
 -3.348278799247510E-002 -3.328195357493152E-002 -3.299667891742267E-002
 -3.261057130413207E-002 -3.211660397496370E-002 -3.152555006883003E-002
 -3.087029332476474E-002 -3.020145406319839E-002 -2.957269997839333E-002
 -2.902500022292118E-002 -2.857798289956700E-002 -2.823150109853617E-002
 -2.797277018627104E-002 -2.778402942162077E-002 -2.764523024120149E-002
 -3.353655394784854E-002 -3.347437400615519E-002 -3.335464918809106E-002
 -3.317502363154334E-002 -3.291939122411892E-002 -3.257299527257247E-002
 -3.212935694971550E-002 -3.159775945038477E-002 -3.100798915188945E-002
 -3.040519204495221E-002 -2.983797890084292E-002 -2.934320923677650E-002
 -2.893904731670072E-002 -2.862525236280244E-002 -2.839071492195283E-002
 -2.821922946017290E-002 -2.809283222507137E-002 -3.336372460312963E-002
 -3.330963118337324E-002 -3.320614217259520E-002 -3.305068759030749E-002
 -3.282900091212807E-002 -3.252826417730879E-002 -3.214243429446340E-002
 -3.167949752685753E-002 -3.116529224724219E-002 -3.063905938019791E-002
 -3.014319942124234E-002 -2.971018814723008E-002 -2.935576841980023E-002
 -2.908029960452410E-002 -2.887398223246322E-002 -2.872285221206184E-002
 -2.861112197025581E-002 -3.323004427202957E-002 -3.318208308940978E-002
 -3.309107517096407E-002 -3.295397814222849E-002 -3.275849031655664E-002
 -3.249273574436853E-002 -3.215134451691010E-002 -3.174146780691648E-002
 -3.128554391548816E-002 -3.081864386812072E-002 -3.037807985563326E-002
 -2.999294063584905E-002 -2.967739303446448E-002 -2.943170254903239E-002
 -2.924748661544236E-002 -2.911238855978739E-002 -2.901214991093676E-002
 -3.310801522498523E-002 -3.306562279429130E-002 -3.298565323521115E-002
 -3.286525190931786E-002 -3.269315050946776E-002 -3.245910133250041E-002
 -3.215817020546395E-002 -3.179646186897158E-002 -3.139379465574310E-002
 -3.098089223198771E-002 -3.059102991531578E-002 -3.024981030003306E-002
 -2.996987110990258E-002 -2.975179360502242E-002 -2.958804336443185E-002
 -2.946774588214804E-002 -2.937834924917516E-002 -3.296739618271290E-002
 -3.293129817415361E-002 -3.286394606426517E-002 -3.276237551719920E-002
 -3.261710310366225E-002 -3.241911278896892E-002 -3.216439408224865E-002
 -3.185788781841970E-002 -3.151635912570290E-002 -3.116583189030209E-002
 -3.083451117711615E-002 -3.054412711482437E-002 -3.030563697029329E-002
 -3.011955424084096E-002 -2.997966754231622E-002 -2.987675422071028E-002
 -2.980012028412523E-002
  2.570072053090129E-002  5.704378057074356E-002  8.635305010492321E-002
  0.113277470445677       0.137359614875081       0.157853654461875     
  0.174387202124116       0.187588068471150       0.198113982462693     
  0.206806757247146       0.214528979216120       0.221839086656409     
  0.228702324958900       0.234493684919575       0.238491600303443     
  0.240488881414987       3.617266851929563E-002  7.539200544069852E-002
  0.112887739322765       0.149275165692889       0.184167895623058     
  0.216045544841905       0.243509125182428       0.266682214076908     
  0.286061940759109       0.302424093666312       0.316283552741455     
  0.327621396194569       0.336253638960074       0.342253067553456     
  0.345920506083453       0.347672241494768       4.431959253151739E-002
  8.796375748540271E-002  0.129654579148213       0.170951113689876     
  0.211817259796328       0.250738970123706       0.285904544131824     
  0.316727876712632       0.342959559734448       0.364705832091990     
  0.382080066102823       0.395193804643117       0.404421137739907     
  0.410439717828472       0.413979957675847       0.415671927853302     
  5.134612911995459E-002  9.816222447654475E-002  0.142545030210069     
  0.186899742903880       0.231521068405747       0.275125159926163     
  0.315839134669360       0.352429269031888       0.383897326471412     
  0.409728981624466       0.429817410256914       0.444500187535024     
  0.454557802062640       0.460998065414059       0.464769720200578     
  0.466608679687784       5.739674052055030E-002  0.106830463017695     
  0.153265980506241       0.199846659686605       0.247155308731624     
  0.294209100660051       0.339186692205101       0.380263030247319     
  0.415854348171124       0.444974450688645       0.467367264434864     
  0.483513103511882       0.494445445965857       0.501395566184788     
  0.505472493628157       0.507504997214294       6.175716295616442E-002
  0.113287192380765       0.161612662011200       0.210291831117617     
  0.260075538944422       0.310117024412786       0.358578353742223     
  0.403240468591803       0.442103713999124       0.473847240715254     
  0.498116077651426       0.515490042530275       0.527177295260052     
  0.534576193837437       0.538916860743973       0.541115702140023     
  6.458273636581367E-002  0.117785664805106       0.167919321740428     
  0.218680512360519       0.270871947997955       0.323639399163168     
  0.375045837936191       0.422655697159593       0.464167662196081     
  0.498040468994297       0.523832307043136       0.542191929307671     
  0.554462072801169       0.562180705703424       0.566696181529694     
  0.568999654204696       6.665085138867261E-002  0.121407038088363     
  0.173193483382161       0.225815408731499       0.280087984728851     
  0.335143497665640       0.388954412254800       0.438903835968869     
  0.482483331601993       0.518010734320091       0.544985715444665     
  0.564116610489316       0.576843183105581       0.584814915561077     
  0.589470313298117       0.591862722105461       6.829806425802500E-002
  0.124360721931577       0.177520358663659       0.231657861929737     
  0.287602978634906       0.344457578011536       0.400096735404709     
  0.451785962213874       0.496890190003585       0.533619091949413     
  0.561463573615791       0.581160658730329       0.594237258357301     
  0.602402910964273       0.607168105723529       0.609630821729673     
  6.968752141945821E-002  0.126637612434206       0.180755869646663     
  0.235963946524703       0.293096029460298       0.351197932323386     
  0.408083444462928       0.460936420685222       0.507055010908687     
  0.544583772912164       0.573024110697187       0.593121585382831     
  0.606456883388342       0.614779296716107       0.619638872673130     
  0.622168412039751       7.053411569808860E-002  0.127883421607307     
  0.182492185866945       0.238297581165593       0.296095548919954     
  0.354886587090251       0.412465364427887       0.465956716660216     
  0.512638603488039       0.550635934593140       0.579443143240595     
  0.599818984327174       0.613338059836897       0.621789960942591     
  0.626738905905659       0.629333434913378       7.066407454765096E-002
  0.127873874905396       0.182455180499154       0.238311247935529     
  0.296200210024696       0.355102883515209       0.412802500116380     
  0.466422519088045       0.513254813856993       0.551434714650774     
  0.580423832693719       0.600969956409220       0.614628784770387     
  0.623189672434591       0.628216936475896       0.630868341022923     
  7.000212938040321E-002  0.126468452936928       0.180442915444956     
  0.235726747564272       0.293064794759701       0.351437906838604     
  0.408631336581659       0.461848902474514       0.508412173992750     
  0.546499860851497       0.575516470854514       0.596154474690173     