 Title = "Wing and Wake"
 VARIABLES = "X" "Y" "Z" "GAM"
 Zone I=   26 J=   25 K=1  T="Blade"
 DATAPACKING=BLOCK
 VARLOCATION=([4]=CELLCENTERED)
 -0.100139562376943      -0.100580088322063      -0.101020614267183     
 -0.101461140212302      -0.101901666157422      -0.102342192102541     
 -0.102782718047661      -0.103223243992781      -0.103663769937901     
 -0.104104295883020      -0.104544821828140      -0.104985347773259     
 -0.105425873718379      -0.105866399663499      -0.106306925608618     
 -0.106747451553738      -0.107187977498857      -0.107628503443977     
 -0.108069029389097      -0.108509555334216      -0.108950081279336     
 -0.109390607224455      -0.109831133169575      -0.110271659114695     
 -0.110712185059814      -0.111152711004934      -0.101731427370703     
 -0.102171953315823      -0.102612479260942      -0.103053005206062     
 -0.103493531151182      -0.103934057096301      -0.104374583041421     
 -0.104815108986540      -0.105255634931660      -0.105696160876780     
 -0.106136686821900      -0.106577212767019      -0.107017738712139     
 -0.107458264657258      -0.107898790602378      -0.108339316547498     
 -0.108779842492617      -0.109220368437737      -0.109660894382856     
 -0.110101420327976      -0.110541946273096      -0.110982472218215     
 -0.111422998163335      -0.111863524108454      -0.112304050053574     
 -0.112744575998694      -0.106479785100591      -0.106920311045710     
 -0.107360836990830      -0.107801362935950      -0.108241888881069     
 -0.108682414826189      -0.109122940771309      -0.109563466716428     
 -0.110003992661548      -0.110444518606668      -0.110885044551787     
 -0.111325570496907      -0.111766096442026      -0.112206622387146     
 -0.112647148332266      -0.113087674277385      -0.113528200222505     
 -0.113968726167624      -0.114409252112744      -0.114849778057864     
 -0.115290304002983      -0.115730829948103      -0.116171355893223     
 -0.116611881838342      -0.117052407783462      -0.117492933728581     
 -0.114303389849355      -0.114743915794474      -0.115184441739594     
 -0.115624967684714      -0.116065493629833      -0.116506019574953     
 -0.116946545520072      -0.117387071465192      -0.117827597410312     
 -0.118268123355431      -0.118708649300551      -0.119149175245671     
 -0.119589701190790      -0.120030227135910      -0.120470753081029     
 -0.120911279026149      -0.121351804971268      -0.121792330916388     
 -0.122232856861508      -0.122673382806627      -0.123113908751747     
 -0.123554434696867      -0.123994960641986      -0.124435486587106     
 -0.124876012532225      -0.125316538477345      -0.125068377570630     
 -0.125508903515750      -0.125949429460869      -0.126389955405989     
 -0.126830481351108      -0.127271007296228      -0.127711533241348     
 -0.128152059186467      -0.128592585131587      -0.129033111076707     
 -0.129473637021827      -0.129914162966946      -0.130354688912066     
 -0.130795214857185      -0.131235740802305      -0.131676266747424     
 -0.132116792692544      -0.132557318637664      -0.132997844582783     
 -0.133438370527903      -0.133878896473023      -0.134319422418142     
 -0.134759948363262      -0.135200474308382      -0.135641000253501     
 -0.136081526198621      -0.138590556339888      -0.139031082285007     
 -0.139471608230127      -0.139912134175247      -0.140352660120366     
 -0.140793186065486      -0.141233712010606      -0.141674237955725     
 -0.142114763900845      -0.142555289845964      -0.142995815791084     
 -0.143436341736204      -0.143876867681323      -0.144317393626443     
 -0.144757919571563      -0.145198445516682      -0.145638971461801     
 -0.146079497406921      -0.146520023352041      -0.146960549297161     
 -0.147401075242280      -0.147841601187400      -0.148282127132520     
 -0.148722653077639      -0.149163179022759      -0.149603704967878     
 -0.154638557929329      -0.155079083874449      -0.155519609819569     
 -0.155960135764688      -0.156400661709808      -0.156841187654928     
 -0.157281713600047      -0.157722239545167      -0.158162765490286     
 -0.158603291435406      -0.159043817380526      -0.159484343325645     
 -0.159924869270765      -0.160365395215885      -0.160805921161004     
 -0.161246447106124      -0.161686973051243      -0.162127498996363     
 -0.162568024941483      -0.163008550886602      -0.163449076831722     
 -0.163889602776842      -0.164330128721961      -0.164770654667081     
 -0.165211180612201      -0.165651706557320      -0.172937796582413     
 -0.173378322527533      -0.173818848472652      -0.174259374417772     
 -0.174699900362892      -0.175140426308011      -0.175580952253131     
 -0.176021478198251      -0.176462004143370      -0.176902530088490     
 -0.177343056033609      -0.177783581978729      -0.178224107923849     
 -0.178664633868968      -0.179105159814088      -0.179545685759207     
 -0.179986211704327      -0.180426737649447      -0.180867263594566     
 -0.181307789539686      -0.181748315484806      -0.182188841429926     
 -0.182629367375045      -0.183069893320165      -0.183510419265284     
 -0.183950945210404      -0.193175167252277      -0.193615693197396     
 -0.194056219142517      -0.194496745087636      -0.194937271032756     
 -0.195377796977875      -0.195818322922995      -0.196258848868115     
 -0.196699374813234      -0.197139900758354      -0.197580426703473     
 -0.198020952648593      -0.198461478593713      -0.198902004538832     
 -0.199342530483952      -0.199783056429071      -0.200223582374191     
 -0.200664108319311      -0.201104634264430      -0.201545160209550     
 -0.201985686154669      -0.202426212099789      -0.202866738044909     
 -0.203307263990029      -0.203747789935148      -0.204188315880268     
 -0.215004402915901      -0.215444928861021      -0.215885454806140     
 -0.216325980751260      -0.216766506696379      -0.217207032641499     
 -0.217647558586619      -0.218088084531738      -0.218528610476858     
 -0.218969136421978      -0.219409662367097      -0.219850188312217     
 -0.220290714257337      -0.220731240202456      -0.221171766147576     
 -0.221612292092695      -0.222052818037815      -0.222493343982935     
 -0.222933869928054      -0.223374395873174      -0.223814921818293     
 -0.224255447763413      -0.224695973708532      -0.225136499653652     
 -0.225577025598772      -0.226017551543891      -0.238051999298872     
 -0.238492525243992      -0.238933051189111      -0.239373577134231     
 -0.239814103079351      -0.240254629024471      -0.240695154969590     
 -0.241135680914709      -0.241576206859829      -0.242016732804949     
 -0.242457258750068      -0.242897784695188      -0.243338310640308     
 -0.243778836585427      -0.244219362530547      -0.244659888475667     
 -0.245100414420786      -0.245540940365906      -0.245981466311025     
 -0.246421992256145      -0.246862518201265      -0.247303044146384     
 -0.247743570091504      -0.248184096036624      -0.248624621981743     
 -0.249065147926863      -0.261923605637078      -0.262364131582197     
 -0.262804657527317      -0.263245183472437      -0.263685709417556     
 -0.264126235362676      -0.264566761307796      -0.265007287252915     
 -0.265447813198035      -0.265888339143155      -0.266328865088274     
 -0.266769391033394      -0.267209916978513      -0.267650442923633     
 -0.268090968868753      -0.268531494813872      -0.268972020758992     
 -0.269412546704111      -0.269853072649231      -0.270293598594351     
 -0.270734124539470      -0.271174650484590      -0.271615176429709     
 -0.272055702374829      -0.272496228319949      -0.272936754265068     
 -0.286210772127611      -0.286651298072730      -0.287091824017850     
 -0.287532349962970      -0.287972875908090      -0.288413401853209     
 -0.288853927798329      -0.289294453743449      -0.289734979688568     
 -0.290175505633688      -0.290616031578807      -0.291056557523927     
 -0.291497083469046      -0.291937609414166      -0.292378135359286     
 -0.292818661304405      -0.293259187249525      -0.293699713194644     
 -0.294140239139765      -0.294580765084883      -0.295021291030003     
 -0.295461816975123      -0.295902342920242      -0.296342868865362     
 -0.296783394810482      -0.297223920755602      -0.310497938618144     
 -0.310938464563263      -0.311378990508383      -0.311819516453503     
 -0.312260042398622      -0.312700568343742      -0.313141094288861     
 -0.313581620233981      -0.314022146179101      -0.314462672124221     
 -0.314903198069340      -0.315343724014460      -0.315784249959579     
 -0.316224775904699      -0.316665301849819      -0.317105827794938     
 -0.317546353740058      -0.317986879685177      -0.318427405630297     
 -0.318867931575417      -0.319308457520536      -0.319748983465656     
 -0.320189509410776      -0.320630035355895      -0.321070561301015     
 -0.321511087246135      -0.334369544956350      -0.334810070901469     
 -0.335250596846589      -0.335691122791709      -0.336131648736828     
 -0.336572174681948      -0.337012700627068      -0.337453226572187     
 -0.337893752517307      -0.338334278462426      -0.338774804407545     
 -0.339215330352666      -0.339655856297785      -0.340096382242904     
 -0.340536908188024      -0.340977434133144      -0.341417960078263     
 -0.341858486023383      -0.342299011968503      -0.342739537913622     
 -0.343180063858742      -0.343620589803862      -0.344061115748981     
 -0.344501641694101      -0.344942167639220      -0.345382693584340     
 -0.357417141339321      -0.357857667284440      -0.358298193229560     
 -0.358738719174680      -0.359179245119800      -0.359619771064919     
 -0.360060297010039      -0.360500822955158      -0.360941348900278     
 -0.361381874845398      -0.361822400790517      -0.362262926735636     
 -0.362703452680756      -0.363143978625876      -0.363584504570996     
 -0.364025030516116      -0.364465556461235      -0.364906082406355     
 -0.365346608351474      -0.365787134296594      -0.366227660241713     
 -0.366668186186833      -0.367108712131952      -0.367549238077073     
 -0.367989764022191      -0.368430289967312      -0.379246377002945     
 -0.379686902948064      -0.380127428893184      -0.380567954838304     
 -0.381008480783423      -0.381449006728543      -0.381889532673662     
 -0.382330058618782      -0.382770584563902      -0.383211110509021     
 -0.383651636454141      -0.384092162399261      -0.384532688344380     
 -0.384973214289500      -0.385413740234619      -0.385854266179739     
 -0.386294792124859      -0.386735318069978      -0.387175844015098     
 -0.387616369960218      -0.388056895905338      -0.388497421850457     
 -0.388937947795576      -0.389378473740696      -0.389818999685815     
 -0.390259525630935      -0.399483747672809      -0.399924273617928     
 -0.400364799563048      -0.400805325508167      -0.401245851453287     
 -0.401686377398407      -0.402126903343527      -0.402567429288646     
 -0.403007955233765      -0.403448481178885      -0.403889007124005     
 -0.404329533069124      -0.404770059014244      -0.405210584959364     
 -0.405651110904483      -0.406091636849603      -0.406532162794723     
 -0.406972688739842      -0.407413214684962      -0.407853740630081     
 -0.408294266575201      -0.408734792520321      -0.409175318465440     
 -0.409615844410560      -0.410056370355679      -0.410496896300799     
 -0.417782986325892      -0.418223512271012      -0.418664038216132     
 -0.419104564161251      -0.419545090106370      -0.419985616051490     
 -0.420426141996610      -0.420866667941730      -0.421307193886849     
 -0.421747719831969      -0.422188245777089      -0.422628771722208     
 -0.423069297667328      -0.423509823612448      -0.423950349557567     
 -0.424390875502687      -0.424831401447806      -0.425271927392926     
 -0.425712453338046      -0.426152979283165      -0.426593505228285     
 -0.427034031173404      -0.427474557118524      -0.427915083063643     
 -0.428355609008764      -0.428796134953883      -0.433830987915334     
 -0.434271513860454      -0.434712039805573      -0.435152565750693     
 -0.435593091695813      -0.436033617640932      -0.436474143586052     
 -0.436914669531171      -0.437355195476291      -0.437795721421410     
 -0.438236247366530      -0.438676773311650      -0.439117299256769     
 -0.439557825201889      -0.439998351147009      -0.440438877092128     
 -0.440879403037248      -0.441319928982367      -0.441760454927488     
 -0.442200980872607      -0.442641506817727      -0.443082032762846     
 -0.443522558707966      -0.443963084653085      -0.444403610598205     
 -0.444844136543325      -0.447353166684592      -0.447793692629712     
 -0.448234218574831      -0.448674744519951      -0.449115270465070     
 -0.449555796410190      -0.449996322355309      -0.450436848300428     
 -0.450877374245549      -0.451317900190668      -0.451758426135788     
 -0.452198952080908      -0.452639478026027      -0.453080003971146     
 -0.453520529916267      -0.453961055861386      -0.454401581806506     
 -0.454842107751625      -0.455282633696745      -0.455723159641864     
 -0.456163685586984      -0.456604211532104      -0.457044737477224     
 -0.457485263422343      -0.457925789367463      -0.458366315312582     
 -0.458118154405867      -0.458558680350987      -0.458999206296106     
 -0.459439732241226      -0.459880258186346      -0.460320784131465     
 -0.460761310076585      -0.461201836021705      -0.461642361966824     
 -0.462082887911944      -0.462523413857064      -0.462963939802183     
 -0.463404465747303      -0.463844991692422      -0.464285517637542     
 -0.464726043582661      -0.465166569527781      -0.465607095472901     
 -0.466047621418020      -0.466488147363140      -0.466928673308260     
 -0.467369199253379      -0.467809725198499      -0.468250251143619     
 -0.468690777088738      -0.469131303033858      -0.465941759154631     
 -0.466382285099751      -0.466822811044870      -0.467263336989990     
 -0.467703862935109      -0.468144388880229      -0.468584914825349     
 -0.469025440770468      -0.469465966715588      -0.469906492660707     
 -0.470347018605827      -0.470787544550947      -0.471228070496066     
 -0.471668596441186      -0.472109122386306      -0.472549648331425     
 -0.472990174276545      -0.473430700221665      -0.473871226166784     
 -0.474311752111904      -0.474752278057024      -0.475192804002143     
 -0.475633329947263      -0.476073855892382      -0.476514381837502     
 -0.476954907782622      -0.470690116884519      -0.471130642829639     
 -0.471571168774758      -0.472011694719877      -0.472452220664997     
 -0.472892746610116      -0.473333272555236      -0.473773798500356     
 -0.474214324445475      -0.474654850390595      -0.475095376335715     
 -0.475535902280834      -0.475976428225954      -0.476416954171074     
 -0.476857480116193      -0.477298006061313      -0.477738532006433     
 -0.478179057951553      -0.478619583896672      -0.479060109841791     
 -0.479500635786911      -0.479941161732031      -0.480381687677151     
 -0.480822213622270      -0.481262739567389      -0.481703265512509     
 -0.472281981878278      -0.472722507823398      -0.473163033768517     
 -0.473603559713637      -0.474044085658757      -0.474484611603877     
 -0.474925137548996      -0.475365663494115      -0.475806189439236     
 -0.476246715384355      -0.476687241329474      -0.477127767274594     
 -0.477568293219714      -0.478008819164833      -0.478449345109953     
 -0.478889871055073      -0.479330397000192      -0.479770922945312     
 -0.480211448890431      -0.480651974835551      -0.481092500780670     
 -0.481533026725791      -0.481973552670910      -0.482414078616029     
 -0.482854604561149      -0.483295130506269     
 -7.103568150552420E-002 -6.937413594947678E-002 -6.771259039342938E-002
 -6.605104483738207E-002 -6.438949928133465E-002 -6.272795372528728E-002
 -6.106640816923996E-002 -5.940486261319256E-002 -5.774331705714511E-002
 -5.608177150109780E-002 -5.442022594505035E-002 -5.275868038900305E-002
 -5.109713483295564E-002 -4.943558927690824E-002 -4.777404372086093E-002
 -4.611249816481362E-002 -4.445095260876605E-002 -4.278940705271882E-002
 -4.112786149667136E-002 -3.946631594062402E-002 -3.780477038457652E-002
 -3.614322482852927E-002 -3.448167927248187E-002 -3.282013371643442E-002
 -3.115858816038713E-002 -2.949704260433975E-002 -7.145773302757039E-002
 -6.979618747152314E-002 -6.813464191547565E-002 -6.647309635942829E-002
 -6.481155080338093E-002 -6.315000524733358E-002 -6.148845969128609E-002
 -5.982691413523869E-002 -5.816536857919129E-002 -5.650382302314394E-002
 -5.484227746709665E-002 -5.318073191104920E-002 -5.151918635500186E-002
 -4.985764079895436E-002 -4.819609524290695E-002 -4.653454968685961E-002
 -4.487300413081238E-002 -4.321145857476498E-002 -4.154991301871760E-002
 -3.988836746267022E-002 -3.822682190662274E-002 -3.656527635057541E-002
 -3.490373079452794E-002 -3.324218523848071E-002 -3.158063968243321E-002
 -2.991909412638586E-002 -7.271666617515191E-002 -7.105512061910453E-002
 -6.939357506305706E-002 -6.773202950700975E-002 -6.607048395096238E-002
 -6.440893839491496E-002 -6.274739283886759E-002 -6.108584728282043E-002
 -5.942430172677285E-002 -5.776275617072547E-002 -5.610121061467808E-002
 -5.443966505863063E-002 -5.277811950258330E-002 -5.111657394653597E-002
 -4.945502839048854E-002 -4.779348283444122E-002 -4.613193727839385E-002
 -4.447039172234648E-002 -4.280884616629908E-002 -4.114730061025158E-002
 -3.948575505420431E-002 -3.782420949815687E-002 -3.616266394210943E-002
 -3.450111838606217E-002 -3.283957283001476E-002 -3.117802727396738E-002
 -7.479094025307149E-002 -7.312939469702408E-002 -7.146784914097670E-002
 -6.980630358492934E-002 -6.814475802888195E-002 -6.648321247283456E-002
 -6.482166691678724E-002 -6.316012136073967E-002 -6.149857580469248E-002
 -5.983703024864514E-002 -5.817548469259760E-002 -5.651393913655032E-002
 -5.485239358050290E-002 -5.319084802445551E-002 -5.152930246840800E-002
 -4.986775691236071E-002 -4.820621135631331E-002 -4.654466580026605E-002
 -4.488312024421860E-002 -4.322157468817126E-002 -4.156002913212375E-002
 -3.989848357607644E-002 -3.823693802002903E-002 -3.657539246398171E-002
 -3.491384690793431E-002 -3.325230135188697E-002 -7.764506385675841E-002
 -7.598351830071121E-002 -7.432197274466379E-002 -7.266042718861628E-002
 -7.099888163256882E-002 -6.933733607652155E-002 -6.767579052047412E-002
 -6.601424496442683E-002 -6.435269940837941E-002 -6.269115385233204E-002
 -6.102960829628458E-002 -5.936806274023725E-002 -5.770651718418985E-002
 -5.604497162814238E-002 -5.438342607209504E-002 -5.272188051604776E-002
 -5.106033496000051E-002 -4.939878940395307E-002 -4.773724384790554E-002
 -4.607569829185814E-002 -4.441415273581090E-002 -4.275260717976344E-002
 -4.109106162371628E-002 -3.942951606766872E-002 -3.776797051162133E-002
 -3.610642495557397E-002 -8.123020214004111E-002 -7.956865658399374E-002
 -7.790711102794627E-002 -7.624556547189905E-002 -7.458401991585178E-002
 -7.292247435980415E-002 -7.126092880375680E-002 -6.959938324770937E-002
 -6.793783769166196E-002 -6.627629213561473E-002 -6.461474657956726E-002
 -6.295320102351995E-002 -6.129165546747257E-002 -5.963010991142531E-002
 -5.796856435537776E-002 -5.630701879933048E-002 -5.464547324328287E-002
 -5.298392768723578E-002 -5.132238213118835E-002 -4.966083657514084E-002
 -4.799929101909337E-002 -4.633774546304615E-002 -4.467619990699880E-002
 -4.301465435095130E-002 -4.135310879490396E-002 -3.969156323885668E-002
 -8.548501239290446E-002 -8.382346683685728E-002 -8.216192128080974E-002
 -8.050037572476229E-002 -7.883883016871500E-002 -7.717728461266760E-002
 -7.551573905662033E-002 -7.385419350057286E-002 -7.219264794452539E-002
 -7.053110238847819E-002 -6.886955683243071E-002 -6.720801127638339E-002
 -6.554646572033590E-002 -6.388492016428862E-002 -6.222337460824118E-002
 -6.056182905219362E-002 -5.890028349614655E-002 -5.723873794009912E-002
 -5.557719238405168E-002 -5.391564682800423E-002 -5.225410127195710E-002
 -5.059255571590962E-002 -4.893101015986222E-002 -4.726946460381491E-002
 -4.560791904776744E-002 -4.394637349172002E-002 -9.033669363226585E-002
 -8.867514807621854E-002 -8.701360252017114E-002 -8.535205696412365E-002
 -8.369051140807635E-002 -8.202896585202878E-002 -8.036742029598150E-002
 -7.870587473993400E-002 -7.704432918388676E-002 -7.538278362783941E-002
 -7.372123807179212E-002 -7.205969251574459E-002 -7.039814695969746E-002
 -6.873660140364996E-002 -6.707505584760241E-002 -6.541351029155525E-002
 -6.375196473550770E-002 -6.209041917946021E-002 -6.042887362341295E-002
 -5.876732806736568E-002 -5.710578251131818E-002 -5.544423695527087E-002
 -5.378269139922354E-002 -5.212114584317611E-002 -5.045960028712869E-002
 -4.879805473108127E-002 -9.570223224697960E-002 -9.404068669093218E-002
 -9.237914113488463E-002 -9.071759557883746E-002 -8.905605002278977E-002
 -8.739450446674243E-002 -8.573295891069510E-002 -8.407141335464798E-002
 -8.240986779860042E-002 -8.074832224255311E-002 -7.908677668650559E-002
 -7.742523113045831E-002 -7.576368557441074E-002 -7.410214001836374E-002
 -7.244059446231618E-002 -7.077904890626878E-002 -6.911750335022136E-002
 -6.745595779417397E-002 -6.579441223812665E-002 -6.413286668207924E-002
 -6.247132112603174E-002 -6.080977556998449E-002 -5.914823001393716E-002
 -5.748668445788975E-002 -5.582513890184247E-002 -5.416359334579480E-002
 -0.101489822383739      -9.982827682769194E-002 -9.816673127164446E-002
 -9.650518571559709E-002 -9.484364015954974E-002 -9.318209460350223E-002
 -9.152054904745485E-002 -8.985900349140748E-002 -8.819745793536023E-002
 -8.653591237931285E-002 -8.487436682326525E-002 -8.321282126721812E-002
 -8.155127571117075E-002 -7.988973015512330E-002 -7.822818459907570E-002
 -7.656663904302824E-002 -7.490509348698103E-002 -7.324354793093364E-002
 -7.158200237488629E-002 -6.992045681883911E-002 -6.825891126279154E-002
 -6.659736570674415E-002 -6.493582015069692E-002 -6.327427459464953E-002
 -6.161272903860219E-002 -5.995118348255479E-002 -0.107600436770682     
 -0.105938891214635      -0.104277345658587      -0.102615800102540     
 -0.100954254546493      -9.929270899044519E-002 -9.763116343439786E-002
 -9.596961787835019E-002 -9.430807232230293E-002 -9.264652676625558E-002
 -9.098498121020807E-002 -8.932343565416091E-002 -8.766189009811351E-002
 -8.600034454206609E-002 -8.433879898601870E-002 -8.267725342997136E-002
 -8.101570787392404E-002 -7.935416231787673E-002 -7.769261676182913E-002
 -7.603107120578201E-002 -7.436952564973423E-002 -7.270798009368719E-002
 -7.104643453763983E-002 -6.938488898159242E-002 -6.772334342554495E-002
 -6.606179786949742E-002 -0.113929521101465      -0.112267975545417     
 -0.110606429989370      -0.108944884433323      -0.107283338877276     
 -0.105621793321228      -0.103960247765181      -0.102298702209133     
 -0.100637156653086      -9.897561109703848E-002 -9.731406554099122E-002
 -9.565251998494378E-002 -9.399097442889667E-002 -9.232942887284885E-002
 -9.066788331680174E-002 -8.900633776075433E-002 -8.734479220470713E-002
 -8.568324664865951E-002 -8.402170109261216E-002 -8.236015553656467E-002
 -8.069860998051749E-002 -7.903706442446999E-002 -7.737551886842257E-002
 -7.571397331237534E-002 -7.405242775632791E-002 -7.239088220028039E-002
 -0.120368782988435      -0.118707237432387      -0.117045691876340     
 -0.115384146320293      -0.113722600764245      -0.112061055208198     
 -0.110399509652150      -0.108737964096103      -0.107076418540056     
 -0.105414872984008      -0.103753327427961      -0.102091781871914     
 -0.100430236315866      -9.876869075981888E-002 -9.710714520377155E-002
 -9.544559964772398E-002 -9.378405409167663E-002 -9.212250853562934E-002
 -9.046096297958192E-002 -8.879941742353439E-002 -8.713787186748702E-002
 -8.547632631143978E-002 -8.381478075539210E-002 -8.215323519934473E-002
 -8.049168964329763E-002 -7.883014408725002E-002 -0.126808044875405     
 -0.125146499319357      -0.123484953763309      -0.121823408207262     
 -0.120161862651214      -0.118500317095168      -0.116838771539120     
 -0.115177225983073      -0.113515680427025      -0.111854134870978     
 -0.110192589314930      -0.108531043758883      -0.106869498202836     
 -0.105207952646789      -0.103546407090741      -0.101884861534694     
 -0.100223315978646      -9.856177042259867E-002 -9.690022486655130E-002
 -9.523867931050417E-002 -9.357713375445680E-002 -9.191558819840939E-002
 -9.025404264236207E-002 -8.859249708631464E-002 -8.693095153026714E-002
 -8.526940597422010E-002 -0.133137129206187      -0.131475583650140     
 -0.129814038094093      -0.128152492538045      -0.126490946981998     
 -0.124829401425951      -0.123167855869903      -0.121506310313856     
 -0.119844764757809      -0.118183219201761      -0.116521673645714     
 -0.114860128089666      -0.113198582533619      -0.111537036977571     
 -0.109875491421524      -0.108213945865477      -0.106552400309429     
 -0.104890854753382      -0.103229309197334      -0.101567763641287     
 -9.990621808523978E-002 -9.824467252919189E-002 -9.658312697314529E-002
 -9.492158141709753E-002 -9.326003586105024E-002 -9.159849030500307E-002
 -0.139247743593130      -0.137586198037083      -0.135924652481035     
 -0.134263106924988      -0.132601561368941      -0.130940015812894     
 -0.129278470256846      -0.127616924700798      -0.125955379144751     
 -0.124293833588704      -0.122632288032656      -0.120970742476609     
 -0.119309196920561      -0.117647651364514      -0.115986105808467     
 -0.114324560252419      -0.112663014696372      -0.111001469140325     
 -0.109339923584277      -0.107678378028230      -0.106016832472182     
 -0.104355286916135      -0.102693741360088      -0.101032195804041     
 -9.937065024799312E-002 -9.770910469194578E-002 -0.145035333729890     
 -0.143373788173843      -0.141712242617795      -0.140050697061748     
 -0.138389151505700      -0.136727605949653      -0.135066060393606     
 -0.133404514837558      -0.131742969281511      -0.130081423725463     
 -0.128419878169416      -0.126758332613369      -0.125096787057321     
 -0.123435241501274      -0.121773695945227      -0.120112150389179     
 -0.118450604833132      -0.116789059277084      -0.115127513721037     
 -0.113465968164990      -0.111804422608942      -0.110142877052895     
 -0.108481331496848      -0.106819785940801      -0.105158240384753     
 -0.103496694828705      -0.150400872344604      -0.148739326788556     
 -0.147077781232509      -0.145416235676461      -0.143754690120414     
 -0.142093144564367      -0.140431599008319      -0.138770053452272     
 -0.137108507896224      -0.135446962340177      -0.133785416784130     
 -0.132123871228082      -0.130462325672035      -0.128800780115988     
 -0.127139234559941      -0.125477689003893      -0.123816143447846     
 -0.122154597891798      -0.120493052335751      -0.118831506779703     
 -0.117169961223656      -0.115508415667608      -0.113846870111561     
 -0.112185324555514      -0.110523778999466      -0.108862233443419     
 -0.155252553583965      -0.153591008027917      -0.151929462471870     
 -0.150267916915822      -0.148606371359775      -0.146944825803728     
 -0.145283280247680      -0.143621734691634      -0.141960189135586     
 -0.140298643579538      -0.138637098023491      -0.136975552467444     
 -0.135314006911396      -0.133652461355349      -0.131990915799301     
 -0.130329370243254      -0.128667824687207      -0.127006279131159     
 -0.125344733575112      -0.123683188019065      -0.122021642463017     
 -0.120360096906970      -0.118698551350922      -0.117037005794875     
 -0.115375460238828      -0.113713914682780      -0.159507363836828     
 -0.157845818280781      -0.156184272724733      -0.154522727168686     
 -0.152861181612639      -0.151199636056591      -0.149538090500544     
 -0.147876544944497      -0.146214999388449      -0.144553453832402     
 -0.142891908276354      -0.141230362720307      -0.139568817164260     
 -0.137907271608212      -0.136245726052165      -0.134584180496117     
 -0.132922634940070      -0.131261089384023      -0.129599543827976     
 -0.127937998271928      -0.126276452715881      -0.124614907159833     
 -0.122953361603786      -0.121291816047739      -0.119630270491691     
 -0.117968724935644      -0.163092502120111      -0.161430956564064     
 -0.159769411008016      -0.158107865451969      -0.156446319895921     
 -0.154784774339874      -0.153123228783826      -0.151461683227779     
 -0.149800137671732      -0.148138592115684      -0.146477046559637     
 -0.144815501003590      -0.143153955447542      -0.141492409891495     
 -0.139830864335448      -0.138169318779401      -0.136507773223353     
 -0.134846227667306      -0.133184682111258      -0.131523136555210     
 -0.129861590999164      -0.128200045443116      -0.126538499887069     
 -0.124876954331021      -0.123215408774974      -0.121553863218926     
 -0.165946625723798      -0.164285080167751      -0.162623534611703     
 -0.160961989055656      -0.159300443499608      -0.157638897943561     
 -0.155977352387514      -0.154315806831466      -0.152654261275419     
 -0.150992715719372      -0.149331170163324      -0.147669624607277     
 -0.146008079051229      -0.144346533495182      -0.142684987939134     
 -0.141023442383087      -0.139361896827040      -0.137700351270993     
 -0.136038805714945      -0.134377260158898      -0.132715714602850     
 -0.131054169046803      -0.129392623490756      -0.127731077934708     
 -0.126069532378661      -0.124407986822613      -0.168020899801717     
 -0.166359354245670      -0.164697808689623      -0.163036263133575     