 Title = "Wing and Wake"
 VARIABLES = "X" "Y" "Z" "GAM"
 Zone I=   26 J=   25 K=1  T="Blade"
 DATAPACKING=BLOCK
 VARLOCATION=([4]=CELLCENTERED)
  1.143844649038317E-002  9.779281368481864E-003  8.120116246580529E-003
  6.460951124679299E-003  4.801786002778012E-003  3.142620880876794E-003
  1.483455758975460E-003 -1.757093629258367E-004 -1.834874484827168E-003
 -3.494039606728360E-003 -5.153204728629668E-003 -6.812369850530967E-003
 -8.471534972432219E-003 -1.013070009433344E-002 -1.178986521623473E-002
 -1.344903033813604E-002 -1.510819546003737E-002 -1.676736058193856E-002
 -1.842652570383992E-002 -2.008569082574116E-002 -2.174485594764247E-002
 -2.340402106954367E-002 -2.506318619144494E-002 -2.672235131334636E-002
 -2.838151643524761E-002 -3.004068155714882E-002  1.100788509181173E-002
  9.348719969910449E-003  7.689554848009124E-003  6.030389726107869E-003
  4.371224604206583E-003  2.712059482305255E-003  1.052894360404010E-003
 -6.062707614971999E-004 -2.265435883398587E-003 -3.924601005299825E-003
 -5.583766127201093E-003 -7.242931249102390E-003 -8.902096371003672E-003
 -1.056126149290495E-002 -1.222042661480627E-002 -1.387959173670751E-002
 -1.553875685860878E-002 -1.719792198051004E-002 -1.885708710241134E-002
 -2.051625222431261E-002 -2.217541734621388E-002 -2.383458246811515E-002
 -2.549374759001650E-002 -2.715291271191769E-002 -2.881207783381906E-002
 -3.047124295572031E-002  9.723567921001104E-003  8.064402799099877E-003
  6.405237677198495E-003  4.746072555297307E-003  3.086907433396007E-003
  1.427742311494734E-003 -2.314228104065824E-004 -1.890587932307823E-003
 -3.549753054209174E-003 -5.208918176110410E-003 -6.868083298011735E-003
 -8.527248419913019E-003 -1.018641354181426E-002 -1.184557866371553E-002
 -1.350474378561681E-002 -1.516390890751808E-002 -1.682307402941936E-002
 -1.848223915132061E-002 -2.014140427322194E-002 -2.180056939512324E-002
 -2.345973451702452E-002 -2.511889963892579E-002 -2.677806476082713E-002
 -2.843722988272831E-002 -3.009639500462959E-002 -3.175556012653089E-002
  7.607470000823905E-003  5.948304878922594E-003  4.289139757021260E-003
  2.629974635120061E-003  9.708095132188469E-004 -6.883556086824085E-004
 -2.347520730583753E-003 -4.006685852485113E-003 -5.665850974386395E-003
 -7.325016096287581E-003 -8.984181218188935E-003 -1.064334634009017E-002
 -1.230251146199149E-002 -1.396167658389281E-002 -1.562084170579411E-002
 -1.728000682769527E-002 -1.893917194959660E-002 -2.059833707149787E-002
 -2.225750219339914E-002 -2.391666731530040E-002 -2.557583243720177E-002
 -2.723499755910302E-002 -2.889416268100434E-002 -3.055332780290551E-002
 -3.221249292480682E-002 -3.387165804670809E-002  4.695798353387486E-003
  3.036633231486253E-003  1.377468109584975E-003 -2.816970123163489E-004
 -1.940862134217633E-003 -3.600027256118990E-003 -5.259192378020246E-003
 -6.918357499921389E-003 -8.577522621822804E-003 -1.023668774372402E-002
 -1.189585286562537E-002 -1.355501798752655E-002 -1.521418310942791E-002
 -1.687334823132907E-002 -1.853251335323048E-002 -2.019167847513171E-002
 -2.185084359703294E-002 -2.351000871893422E-002 -2.516917384083554E-002
 -2.682833896273680E-002 -2.848750408463803E-002 -3.014666920653939E-002
 -3.180583432844058E-002 -3.346499945034199E-002 -3.512416457224318E-002
 -3.678332969414449E-002  1.038372487847459E-003 -6.207926340537893E-004
 -2.279957755955052E-003 -3.939122877856263E-003 -5.598287999757506E-003
 -7.257453121658948E-003 -8.916618243560279E-003 -1.057578336546154E-002
 -1.223494848736280E-002 -1.389411360926401E-002 -1.555327873116529E-002
 -1.721244385306666E-002 -1.887160897496787E-002 -2.053077409686915E-002
 -2.218993921877045E-002 -2.384910434067168E-002 -2.550826946257294E-002
 -2.716743458447420E-002 -2.882659970637549E-002 -3.048576482827687E-002
 -3.214492995017811E-002 -3.380409507207943E-002 -3.546326019398080E-002
 -3.712242531588202E-002 -3.878159043778324E-002 -4.044075555968451E-002
 -3.302228025206803E-003 -4.961393147107940E-003 -6.620558269009375E-003
 -8.279723390910708E-003 -9.938888512811894E-003 -1.159805363471323E-002
 -1.325721875661449E-002 -1.491638387851575E-002 -1.657554900041710E-002
 -1.823471412231829E-002 -1.989387924421963E-002 -2.155304436612098E-002
 -2.321220948802218E-002 -2.487137460992347E-002 -2.653053973182466E-002
 -2.818970485372595E-002 -2.984886997562725E-002 -3.150803509752854E-002
 -3.316720021942985E-002 -3.482636534133107E-002 -3.648553046323230E-002
 -3.814469558513366E-002 -3.980386070703494E-002 -4.146302582893627E-002
 -4.312219095083752E-002 -4.478135607273875E-002 -8.251734307555171E-003
 -9.910899429456508E-003 -1.157006455135767E-002 -1.322922967325890E-002
 -1.488839479516037E-002 -1.654755991706158E-002 -1.820672503896279E-002
 -1.986589016086413E-002 -2.152505528276536E-002 -2.318422040466661E-002
 -2.484338552656793E-002 -2.650255064846931E-002 -2.816171577037050E-002
 -2.982088089227183E-002 -3.148004601417315E-002 -3.313921113607429E-002
 -3.479837625797571E-002 -3.645754137987706E-002 -3.811670650177824E-002
 -3.977587162367952E-002 -4.143503674558077E-002 -4.309420186748204E-002
 -4.475336698938329E-002 -4.641253211128467E-002 -4.807169723318586E-002
 -4.973086235508727E-002 -1.372545893444418E-002 -1.538462405634533E-002
 -1.704378917824682E-002 -1.870295430014806E-002 -2.036211942204932E-002
 -2.202128454395067E-002 -2.368044966585185E-002 -2.533961478775319E-002
 -2.699877990965438E-002 -2.865794503155578E-002 -3.031711015345702E-002
 -3.197627527535821E-002 -3.363544039725959E-002 -3.529460551916076E-002
 -3.695377064106215E-002 -3.861293576296330E-002 -4.027210088486476E-002
 -4.193126600676600E-002 -4.359043112866715E-002 -4.524959625056851E-002
 -4.690876137246978E-002 -4.856792649437099E-002 -5.022709161627232E-002
 -5.188625673817363E-002 -5.354542186007483E-002 -5.520458698197625E-002
 -1.962974495990468E-002 -2.128891008180591E-002 -2.294807520370720E-002
 -2.460724032560847E-002 -2.626640544750984E-002 -2.792557056941098E-002
 -2.958473569131229E-002 -3.124390081321365E-002 -3.290306593511489E-002
 -3.456223105701621E-002 -3.622139617891745E-002 -3.788056130081879E-002
 -3.953972642272010E-002 -4.119889154462127E-002 -4.285805666652267E-002
 -4.451722178842402E-002 -4.617638691032512E-002 -4.783555203222643E-002
 -4.949471715412770E-002 -5.115388227602884E-002 -5.281304739793033E-002
 -5.447221251983163E-002 -5.613137764173268E-002 -5.779054276363408E-002
 -5.944970788553536E-002 -6.110887300743661E-002 -2.586356841306359E-002
 -2.752273353496499E-002 -2.918189865686629E-002 -3.084106377876735E-002
 -3.250022890066865E-002 -3.415939402257007E-002 -3.581855914447123E-002
 -3.747772426637254E-002 -3.913688938827375E-002 -4.079605451017508E-002
 -4.245521963207646E-002 -4.411438475397765E-002 -4.577354987587894E-002
 -4.743271499778016E-002 -4.909188011968149E-002 -5.075104524158267E-002
 -5.241021036348401E-002 -5.406937548538537E-002 -5.572854060728662E-002
 -5.738770572918784E-002 -5.904687085108926E-002 -6.070603597299049E-002
 -6.236520109489176E-002 -6.402436621679301E-002 -6.568353133869431E-002
 -6.734269646059575E-002 -3.232026684629524E-002 -3.397943196819633E-002
 -3.563859709009768E-002 -3.729776221199886E-002 -3.895692733390018E-002
 -4.061609245580162E-002 -4.227525757770295E-002 -4.393442269960402E-002
 -4.559358782150531E-002 -4.725275294340674E-002 -4.891191806530789E-002
 -5.057108318720924E-002 -5.223024830911037E-002 -5.388941343101166E-002
 -5.554857855291309E-002 -5.720774367481432E-002 -5.886690879671561E-002
 -6.052607391861681E-002 -6.218523904051815E-002 -6.384440416241953E-002
 -6.550356928432061E-002 -6.716273440622209E-002 -6.882189952812322E-002
 -7.048106465002459E-002 -7.214022977192591E-002 -7.379939489382711E-002
 -3.888936435927155E-002 -4.054852948117278E-002 -4.220769460307411E-002
 -4.386685972497526E-002 -4.552602484687666E-002 -4.718518996877779E-002
 -4.884435509067920E-002 -5.050352021258055E-002 -5.216268533448174E-002
 -5.382185045638305E-002 -5.548101557828430E-002 -5.714018070018555E-002
 -5.879934582208678E-002 -6.045851094398802E-002 -6.211767606588934E-002
 -6.377684118779070E-002 -6.543600630969200E-002 -6.709517143159320E-002
 -6.875433655349455E-002 -7.041350167539577E-002 -7.207266679729721E-002
 -7.373183191919842E-002 -7.539099704109976E-002 -7.705016216300092E-002
 -7.870932728490214E-002 -8.036849240680373E-002 -4.545846187224792E-002
 -4.711762699414903E-002 -4.877679211605065E-002 -5.043595723795180E-002
 -5.209512235985313E-002 -5.375428748175434E-002 -5.541345260365555E-002
 -5.707261772555685E-002 -5.873178284745809E-002 -6.039094796935962E-002
 -6.205011309126077E-002 -6.370927821316218E-002 -6.536844333506327E-002
 -6.702760845696447E-002 -6.868677357886591E-002 -7.034593870076708E-002
 -7.200510382266831E-002 -7.366426894456975E-002 -7.532343406647093E-002
 -7.698259918837236E-002 -7.864176431027335E-002 -8.030092943217489E-002
 -8.196009455407606E-002 -8.361925967597726E-002 -8.527842479787877E-002
 -8.693758991977989E-002 -5.191516030547957E-002 -5.357432542738075E-002
 -5.523349054928211E-002 -5.689265567118327E-002 -5.855182079308453E-002
 -6.021098591498582E-002 -6.187015103688717E-002 -6.352931615878844E-002
 -6.518848128068942E-002 -6.684764640259079E-002 -6.850681152449194E-002
 -7.016597664639346E-002 -7.182514176829477E-002 -7.348430689019599E-002
 -7.514347201209755E-002 -7.680263713399865E-002 -7.846180225589990E-002
 -8.012096737780124E-002 -8.178013249970272E-002 -8.343929762160371E-002
 -8.509846274350502E-002 -8.675762786540629E-002 -8.841679298730734E-002
 -9.007595810920892E-002 -9.173512323111005E-002 -9.339428835301114E-002
 -5.814898375863856E-002 -5.980814888053951E-002 -6.146731400244096E-002
 -6.312647912434205E-002 -6.478564424624358E-002 -6.644480936814455E-002
 -6.810397449004603E-002 -6.976313961194745E-002 -7.142230473384865E-002
 -7.308146985574983E-002 -7.474063497765136E-002 -7.639980009955243E-002
 -7.805896522145372E-002 -7.971813034335501E-002 -8.137729546525652E-002
 -8.303646058715780E-002 -8.469562570905884E-002 -8.635479083096001E-002
 -8.801395595286135E-002 -8.967312107476258E-002 -9.133228619666395E-002
 -9.299145131856523E-002 -9.465061644046652E-002 -9.630978156236775E-002
 -9.796894668426914E-002 -9.962811180617041E-002 -6.405326978409882E-002
 -6.571243490600005E-002 -6.737160002790164E-002 -6.903076514980273E-002
 -7.068993027170378E-002 -7.234909539360519E-002 -7.400826051550631E-002
 -7.566742563740769E-002 -7.732659075930914E-002 -7.898575588121029E-002
 -8.064492100311170E-002 -8.230408612501296E-002 -8.396325124691419E-002
 -8.562241636881547E-002 -8.728158149071674E-002 -8.894074661261803E-002
 -9.059991173451939E-002 -9.225907685642097E-002 -9.391824197832184E-002
 -9.557740710022322E-002 -9.723657222212449E-002 -9.889573734402565E-002
 -0.100554902465927      -0.102214067587828      -0.103873232709730     
 -0.105532397831631      -6.952699441098770E-002 -7.118615953288920E-002
 -7.284532465479041E-002 -7.450448977669175E-002 -7.616365489859303E-002
 -7.782282002049448E-002 -7.948198514239571E-002 -8.114115026429679E-002
 -8.280031538619803E-002 -8.445948050809944E-002 -8.611864563000063E-002
 -8.777781075190176E-002 -8.943697587380316E-002 -9.109614099570447E-002
 -9.275530611760563E-002 -9.441447123950712E-002 -9.607363636140830E-002
 -9.773280148330968E-002 -9.939196660521081E-002 -0.101051131727112     
 -0.102710296849013      -0.104369461970915      -0.106028627092816     
 -0.107687792214717      -0.109346957336618      -0.111006122458520     
 -7.447650069333611E-002 -7.613566581523763E-002 -7.779483093713882E-002
 -7.945399605904022E-002 -8.111316118094106E-002 -8.277232630284251E-002
 -8.443149142474404E-002 -8.609065654664504E-002 -8.774982166854656E-002
 -8.940898679044773E-002 -9.106815191234911E-002 -9.272731703425006E-002
 -9.438648215615153E-002 -9.604564727805295E-002 -9.770481239995429E-002
 -9.936397752185532E-002 -0.101023142643757      -0.102682307765658     
 -0.104341472887559      -0.106000638009460      -0.107659803131362     
 -0.109318968253263      -0.110978133375165      -0.112637298497066     
 -0.114296463618967      -0.115955628740868      -7.881710120639074E-002
 -8.047626632829188E-002 -8.213543145019320E-002 -8.379459657209447E-002
 -8.545376169399554E-002 -8.711292681589682E-002 -8.877209193779816E-002
 -9.043125705969943E-002 -9.209042218160078E-002 -9.374958730350212E-002
 -9.540875242540335E-002 -9.706791754730466E-002 -9.872708266920574E-002
 -0.100386247791107      -0.102045412913009      -0.103704578034910     
 -0.105363743156811      -0.107022908278712      -0.108682073400613     
 -0.110341238522515      -0.112000403644416      -0.113659568766317     
 -0.115318733888219      -0.116977899010120      -0.118637064132021     
 -0.120296229253923      -8.247452707193061E-002 -8.413369219383160E-002
 -8.579285731573319E-002 -8.745202243763449E-002 -8.911118755953570E-002
 -9.077035268143674E-002 -9.242951780333827E-002 -9.408868292523950E-002
 -9.574784804714100E-002 -9.740701316904216E-002 -9.906617829094312E-002
 -0.100725343412844      -0.102384508534746      -0.104043673656647     
 -0.105702838778549      -0.107362003900450      -0.109021169022351     
 -0.110680334144252      -0.112339499266154      -0.113998664388055     
 -0.115657829509956      -0.117316994631857      -0.118976159753759     
 -0.120635324875660      -0.122294489997561      -0.123953655119463     
 -8.538619871936683E-002 -8.704536384126819E-002 -8.870452896316934E-002
 -9.036369408507072E-002 -9.202285920697216E-002 -9.368202432887338E-002
 -9.534118945077460E-002 -9.700035457267581E-002 -9.865951969457702E-002
 -0.100318684816478      -0.101977849938380      -0.103637015060281     
 -0.105296180182182      -0.106955345304084      -0.108614510425985     
 -0.110273675547886      -0.111932840669787      -0.113592005791689     
 -0.115251170913590      -0.116910336035491      -0.118569501157393     
 -0.120228666279294      -0.121887831401195      -0.123546996523096     
 -0.125206161644998      -0.126865326766899      -8.750229663954438E-002
 -8.916146176144546E-002 -9.082062688334684E-002 -9.247979200524807E-002
 -9.413895712714940E-002 -9.579812224905036E-002 -9.745728737095187E-002
 -9.911645249285277E-002 -0.100775617614755      -0.102434782736656     
 -0.104093947858557      -0.105753112980458      -0.107412278102359     
 -0.109071443224260      -0.110730608346162      -0.112389773468064     
 -0.114048938589965      -0.115708103711866      -0.117367268833767     
 -0.119026433955668      -0.120685599077570      -0.122344764199471     
 -0.124003929321372      -0.125663094443273      -0.127322259565175     
 -0.128981424687076      -8.878661381035487E-002 -9.044577893225623E-002
 -9.210494405415735E-002 -9.376410917605855E-002 -9.542327429795966E-002
 -9.708243941986097E-002 -9.874160454176248E-002 -0.100400769663664     
 -0.102059934785565      -0.103719099907466      -0.105378265029368     
 -0.107037430151269      -0.108696595273170      -0.110355760395071     
 -0.112014925516973      -0.113674090638874      -0.115333255760775     
 -0.116992420882677      -0.118651586004578      -0.120310751126479     
 -0.121969916248380      -0.123629081370282      -0.125288246492183     
 -0.126947411614084      -0.128606576735985      -0.130265741857887     
 -8.921717520892614E-002 -9.087634033082738E-002 -9.253550545272850E-002
 -9.419467057463010E-002 -9.585383569653119E-002 -9.751300081843253E-002
 -9.917216594033372E-002 -0.100831331062235      -0.102490496184137     
 -0.104149661306038      -0.105808826427939      -0.107467991549840     
 -0.109127156671741      -0.110786321793643      -0.112445486915544     
 -0.114104652037445      -0.115763817159347      -0.117422982281248     
 -0.119082147403149      -0.120741312525051      -0.122400477646952     
 -0.124059642768853      -0.125718807890754      -0.127377973012655     
 -0.129037138134557      -0.130696303256458     
 -0.122242226509037      -0.121792818185337      -0.121343409861637     
 -0.120894001537937      -0.120444593214238      -0.119995184890538     
 -0.119545776566838      -0.119096368243138      -0.118646959919439     
 -0.118197551595739      -0.117748143272039      -0.117298734948339     
 -0.116849326624639      -0.116399918300940      -0.115950509977240     
 -0.115501101653540      -0.115051693329840      -0.114602285006141     
 -0.114152876682441      -0.113703468358741      -0.113254060035041     
 -0.112804651711341      -0.112355243387642      -0.111905835063942     
 -0.111456426740242      -0.111007018416542      -0.123831810897385     
 -0.123382402573685      -0.122932994249985      -0.122483585926285     
 -0.122034177602586      -0.121584769278886      -0.121135360955186     
 -0.120685952631486      -0.120236544307787      -0.119787135984087     
 -0.119337727660387      -0.118888319336687      -0.118438911012987     
 -0.117989502689288      -0.117540094365588      -0.117090686041888     
 -0.116641277718188      -0.116191869394488      -0.115742461070789     
 -0.115293052747089      -0.114843644423389      -0.114394236099689     
 -0.113944827775990      -0.113495419452290      -0.113046011128590     
 -0.112596602804890      -0.128573365832828      -0.128123957509128     
 -0.127674549185428      -0.127225140861728      -0.126775732538029     
 -0.126326324214329      -0.125876915890629      -0.125427507566929     
 -0.124978099243229      -0.124528690919530      -0.124079282595830     
 -0.123629874272130      -0.123180465948430      -0.122731057624731     
 -0.122281649301031      -0.121832240977331      -0.121382832653631     
 -0.120933424329932      -0.120484016006232      -0.120034607682532     
 -0.119585199358832      -0.119135791035132      -0.118686382711433     
 -0.118236974387733      -0.117787566064033      -0.117338157740333     
 -0.136385761995813      -0.135936353672113      -0.135486945348414     
 -0.135037537024714      -0.134588128701014      -0.134138720377314     
 -0.133689312053615      -0.133239903729915      -0.132790495406215     
 -0.132341087082515      -0.131891678758815      -0.131442270435116     
 -0.130992862111416      -0.130543453787716      -0.130094045464016     
 -0.129644637140317      -0.129195228816617      -0.128745820492917     
 -0.128296412169217      -0.127847003845517      -0.127397595521818     
 -0.126948187198118      -0.126498778874418      -0.126049370550718     
 -0.125599962227018      -0.125150553903319      -0.147135327121987     
 -0.146685918798287      -0.146236510474587      -0.145787102150888     
 -0.145337693827188      -0.144888285503488      -0.144438877179788     
 -0.143989468856089      -0.143540060532389      -0.143090652208689     
 -0.142641243884989      -0.142191835561290      -0.141742427237590     
 -0.141293018913890      -0.140843610590190      -0.140394202266490     
 -0.139944793942791      -0.139495385619091      -0.139045977295391     
 -0.138596568971691      -0.138147160647991      -0.137697752324292     
 -0.137248344000592      -0.136798935676892      -0.136349527353192     
 -0.135900119029492      -0.160638133171697      -0.160188724847998     
 -0.159739316524298      -0.159289908200598      -0.158840499876898     
 -0.158391091553199      -0.157941683229499      -0.157492274905799     
 -0.157042866582099      -0.156593458258400      -0.156144049934699     
 -0.155694641611000      -0.155245233287300      -0.154795824963601     
 -0.154346416639901      -0.153897008316201      -0.153447599992501     
 -0.152998191668801      -0.152548783345102      -0.152099375021402     
 -0.151649966697702      -0.151200558374002      -0.150751150050303     
 -0.150301741726603      -0.149852333402903      -0.149402925079203     
 -0.176663143389749      -0.176213735066050      -0.175764326742350     
 -0.175314918418650      -0.174865510094950      -0.174416101771250     
 -0.173966693447551      -0.173517285123851      -0.173067876800151     
 -0.172618468476451      -0.172169060152752      -0.171719651829052     
 -0.171270243505352      -0.170820835181652      -0.170371426857952     
 -0.169922018534252      -0.169472610210553      -0.169023201886853     
 -0.168573793563153      -0.168124385239453      -0.167674976915754     
 -0.167225568592054      -0.166776160268354      -0.166326751944655     
 -0.165877343620955      -0.165427935297255      -0.194936165408340     
 -0.194486757084640      -0.194037348760940      -0.193587940437240     
 -0.193138532113540      -0.192689123789841      -0.192239715466141     
 -0.191790307142441      -0.191340898818741      -0.190891490495041     
 -0.190442082171342      -0.189992673847642      -0.189543265523942     
 -0.189093857200242      -0.188644448876542      -0.188195040552843     
 -0.187745632229143      -0.187296223905443      -0.186846815581743     
 -0.186397407258044      -0.185947998934344      -0.185498590610644     
 -0.185049182286944      -0.184599773963245      -0.184150365639545     
 -0.183700957315845      -0.215144542754491      -0.214695134430791     
 -0.214245726107091      -0.213796317783391      -0.213346909459692     
 -0.212897501135992      -0.212448092812292      -0.211998684488592     
 -0.211549276164892      -0.211099867841193      -0.210650459517493     
 -0.210201051193793      -0.209751642870093      -0.209302234546394     
 -0.208852826222694      -0.208403417898994      -0.207954009575294     
 -0.207504601251595      -0.207055192927895      -0.206605784604195     
 -0.206156376280495      -0.205706967956796      -0.205257559633096     
 -0.204808151309396      -0.204358742985696      -0.203909334661996     
 -0.236942504488990      -0.236493096165290      -0.236043687841590     
 -0.235594279517891      -0.235144871194191      -0.234695462870491     
 -0.234246054546791      -0.233796646223091      -0.233347237899392     
 -0.232897829575692      -0.232448421251992      -0.231999012928293     
 -0.231549604604593      -0.231100196280893      -0.230650787957193     
 -0.230201379633493      -0.229751971309793      -0.229302562986094     
 -0.228853154662394      -0.228403746338694      -0.227954338014995     
 -0.227504929691295      -0.227055521367595      -0.226606113043895     
 -0.226156704720195      -0.225707296396496      -0.259957081443023     
 -0.259507673119323      -0.259058264795624      -0.258608856471924     
 -0.258159448148224      -0.257710039824524      -0.257260631500824     
 -0.256811223177125      -0.256361814853425      -0.255912406529725     
 -0.255462998206025      -0.255013589882325      -0.254564181558626     
 -0.254114773234926      -0.253665364911226      -0.253215956587526     
 -0.252766548263827      -0.252317139940127      -0.251867731616427     
 -0.251418323292727      -0.250968914969028      -0.250519506645328     
 -0.250070098321628      -0.249620689997928      -0.249171281674229     
 -0.248721873350529      -0.283794487824060      -0.283345079500361     
 -0.282895671176661      -0.282446262852961      -0.281996854529261     
 -0.281547446205562      -0.281098037881862      -0.280648629558162     
 -0.280199221234462      -0.279749812910763      -0.279300404587063     
 -0.278850996263363      -0.278401587939663      -0.277952179615963     
 -0.277502771292264      -0.277053362968564      -0.276603954644864     
 -0.276154546321164      -0.275705137997465      -0.275255729673765     
 -0.274806321350065      -0.274356913026365      -0.273907504702665     
 -0.273458096378966      -0.273008688055266      -0.272559279731566     
 -0.308046858999945      -0.307597450676245      -0.307148042352545     
 -0.306698634028845      -0.306249225705146      -0.305799817381446     
 -0.305350409057746      -0.304901000734046      -0.304451592410347     
 -0.304002184086647      -0.303552775762947      -0.303103367439247     
 -0.302653959115547      -0.302204550791848      -0.301755142468148     
 -0.301305734144448      -0.300856325820748      -0.300406917497048     
 -0.299957509173349      -0.299508100849649      -0.299058692525949     
 -0.298609284202249      -0.298159875878550      -0.297710467554850     
 -0.297261059231150      -0.296811650907450      -0.332299230175829     
 -0.331849821852129      -0.331400413528429      -0.330951005204730     
 -0.330501596881030      -0.330052188557330      -0.329602780233630     
 -0.329153371909931      -0.328703963586231      -0.328254555262531     
 -0.327805146938831      -0.327355738615132      -0.326906330291432     
 -0.326456921967732      -0.326007513644032      -0.325558105320332     
 -0.325108696996633      -0.324659288672933      -0.324209880349233     
 -0.323760472025533      -0.323311063701833      -0.322861655378134     
 -0.322412247054434      -0.321962838730734      -0.321513430407034     
 -0.321064022083335      -0.356136636556866      -0.355687228233167     
 -0.355237819909467      -0.354788411585767      -0.354339003262067     
 -0.353889594938368      -0.353440186614668      -0.352990778290968     
 -0.352541369967268      -0.352091961643568      -0.351642553319868     
 -0.351193144996169      -0.350743736672469      -0.350294328348769     
 -0.349844920025070      -0.349395511701369      -0.348946103377670     
 -0.348496695053970      -0.348047286730271      -0.347597878406571     
 -0.347148470082871      -0.346699061759171      -0.346249653435471     
 -0.345800245111771      -0.345350836788072      -0.344901428464372     
 -0.379151213510899      -0.378701805187200      -0.378252396863500     
 -0.377802988539800      -0.377353580216100      -0.376904171892400     
 -0.376454763568701      -0.376005355245001      -0.375555946921302     
 -0.375106538597602      -0.374657130273902      -0.374207721950202     
 -0.373758313626502      -0.373308905302803      -0.372859496979103     
 -0.372410088655403      -0.371960680331703      -0.371511272008003     
 -0.371061863684303      -0.370612455360604      -0.370163047036904     
 -0.369713638713204      -0.369264230389504      -0.368814822065805     
 -0.368365413742105      -0.367916005418405      -0.400949175245399     
 -0.400499766921699      -0.400050358597999      -0.399600950274300     
 -0.399151541950600      -0.398702133626900      -0.398252725303200     
 -0.397803316979500      -0.397353908655801      -0.396904500332101     
 -0.396455092008401      -0.396005683684701      -0.395556275361002     
 -0.395106867037302      -0.394657458713602      -0.394208050389902     
 -0.393758642066202      -0.393309233742503      -0.392859825418803     
 -0.392410417095103      -0.391961008771404      -0.391511600447704     
 -0.391062192124004      -0.390612783800304      -0.390163375476604     
 -0.389713967152904      -0.421157552591550      -0.420708144267850     
 -0.420258735944150      -0.419809327620451      -0.419359919296751     
 -0.418910510973051      -0.418461102649351      -0.418011694325652     
 -0.417562286001951      -0.417112877678252      -0.416663469354552     
 -0.416214061030852      -0.415764652707153      -0.415315244383453     
 -0.414865836059753      -0.414416427736054      -0.413967019412353     
 -0.413517611088654      -0.413068202764954      -0.412618794441254     
 -0.412169386117555      -0.411719977793855      -0.411270569470155     
 -0.410821161146455      -0.410371752822755      -0.409922344499056     
 -0.439430574610140      -0.438981166286441      -0.438531757962740     
 -0.438082349639041      -0.437632941315341      -0.437183532991641     
 -0.436734124667942      -0.436284716344242      -0.435835308020542     
 -0.435385899696842      -0.434936491373143      -0.434487083049442     
 -0.434037674725743      -0.433588266402043      -0.433138858078344     
 -0.432689449754643      -0.432240041430944      -0.431790633107244     
 -0.431341224783544      -0.430891816459844      -0.430442408136145     
 -0.429992999812445      -0.429543591488745      -0.429094183165045     
 -0.428644774841346      -0.428195366517646      -0.455455584828192     
 -0.455006176504492      -0.454556768180792      -0.454107359857092     
 -0.453657951533393      -0.453208543209693      -0.452759134885993     
 -0.452309726562294      -0.451860318238594      -0.451410909914894     
 -0.450961501591194      -0.450512093267494      -0.450062684943794     
 -0.449613276620095      -0.449163868296395      -0.448714459972695     
 -0.448265051648996      -0.447815643325296      -0.447366235001596     
 -0.446916826677896      -0.446467418354197      -0.446018010030497     
 -0.445568601706797      -0.445119193383097      -0.444669785059397     
 -0.444220376735698      -0.468958390877902      -0.468508982554203     
 -0.468059574230503      -0.467610165906803      -0.467160757583104     
 -0.466711349259404      -0.466261940935704      -0.465812532612004     
 -0.465363124288305      -0.464913715964604      -0.464464307640905     
 -0.464014899317205      -0.463565490993505      -0.463116082669805     
 -0.462666674346106      -0.462217266022406      -0.461767857698706     
 -0.461318449375007      -0.460869041051307      -0.460419632727607     
 -0.459970224403907      -0.459520816080207      -0.459071407756508     
 -0.458621999432807      -0.458172591109108      -0.457723182785408     
 -0.479707956004076      -0.479258547680377      -0.478809139356676     
 -0.478359731032977      -0.477910322709277      -0.477460914385578     
 -0.477011506061878      -0.476562097738178      -0.476112689414478     
 -0.475663281090778      -0.475213872767079      -0.474764464443379     
 -0.474315056119679      -0.473865647795979      -0.473416239472279     
 -0.472966831148579      -0.472517422824880      -0.472068014501180     
 -0.471618606177480      -0.471169197853780      -0.470719789530081     
 -0.470270381206381      -0.469820972882681      -0.469371564558981     
 -0.468922156235282      -0.468472747911582      -0.487520352167062     
 -0.487070943843362      -0.486621535519662      -0.486172127195962     