 Title = "Wing and Wake"
 VARIABLES = "X" "Y" "Z" "GAM"
 Zone I=   26 J=   25 K=1  T="Blade"
 DATAPACKING=BLOCK
 VARLOCATION=([4]=CELLCENTERED)
 -0.122240754949953      -0.121791559935453      -0.121342364920953     
 -0.120893169906453      -0.120443974891953      -0.119994779877452     
 -0.119545584862952      -0.119096389848452      -0.118647194833952     
 -0.118197999819452      -0.117748804804952      -0.117299609790452     
 -0.116850414775952      -0.116401219761451      -0.115952024746951     
 -0.115502829732451      -0.115053634717951      -0.114604439703451     
 -0.114155244688951      -0.113706049674451      -0.113256854659950     
 -0.112807659645450      -0.112358464630950      -0.111909269616450     
 -0.111460074601950      -0.111010879587450      -0.123830394678973     
 -0.123381199664473      -0.122932004649973      -0.122482809635473     
 -0.122033614620973      -0.121584419606472      -0.121135224591972     
 -0.120686029577472      -0.120236834562972      -0.119787639548472     
 -0.119338444533972      -0.118889249519472      -0.118440054504971     
 -0.117990859490471      -0.117541664475971      -0.117092469461471     
 -0.116643274446971      -0.116194079432471      -0.115744884417971     
 -0.115295689403471      -0.114846494388970      -0.114397299374470     
 -0.113948104359970      -0.113498909345470      -0.113049714330970     
 -0.112600519316470      -0.128572114689538      -0.128122919675037     
 -0.127673724660537      -0.127224529646037      -0.126775334631537     
 -0.126326139617037      -0.125876944602537      -0.125427749588037     
 -0.124978554573537      -0.124529359559037      -0.124080164544536     
 -0.123630969530036      -0.123181774515536      -0.122732579501036     
 -0.122283384486536      -0.121834189472036      -0.121384994457535     
 -0.120935799443035      -0.120486604428535      -0.120037409414035     
 -0.119588214399535      -0.119139019385035      -0.118689824370535     
 -0.118240629356034      -0.117791434341534      -0.117342239327034     
 -0.136384782837613      -0.135935587823113      -0.135486392808613     
 -0.135037197794113      -0.134588002779612      -0.134138807765112     
 -0.133689612750612      -0.133240417736112      -0.132791222721612     
 -0.132342027707112      -0.131892832692612      -0.131443637678112     
 -0.130994442663612      -0.130545247649111      -0.130096052634611     
 -0.129646857620111      -0.129197662605611      -0.128748467591111     
 -0.128299272576611      -0.127850077562111      -0.127400882547610     
 -0.126951687533110      -0.126502492518610      -0.126053297504110     
 -0.125604102489610      -0.125154907475110      -0.147134722205105     
 -0.146685527190605      -0.146236332176105      -0.145787137161605     
 -0.145337942147104      -0.144888747132604      -0.144439552118104     
 -0.143990357103604      -0.143541162089104      -0.143091967074604     
 -0.142642772060104      -0.142193577045604      -0.141744382031104     
 -0.141295187016603      -0.140845992002103      -0.140396796987603     
 -0.139947601973103      -0.139498406958603      -0.139049211944103     
 -0.138600016929602      -0.138150821915102      -0.137701626900602     
 -0.137252431886102      -0.136803236871602      -0.136354041857102     
 -0.135904846842602      -0.160637998348989      -0.160188803334489     
 -0.159739608319989      -0.159290413305489      -0.158841218290989     
 -0.158392023276489      -0.157942828261989      -0.157493633247489     
 -0.157044438232988      -0.156595243218488      -0.156146048203988     
 -0.155696853189488      -0.155247658174988      -0.154798463160488     
 -0.154349268145988      -0.153900073131487      -0.153450878116987     
 -0.153001683102487      -0.152552488087987      -0.152103293073487     
 -0.151654098058986      -0.151204903044487      -0.150755708029987     
 -0.150306513015486      -0.149857318000986      -0.149408122986486     
 -0.176663566470629      -0.176214371456129      -0.175765176441629     
 -0.175315981427128      -0.174866786412628      -0.174417591398128     
 -0.173968396383628      -0.173519201369128      -0.173070006354628     
 -0.172620811340128      -0.172171616325628      -0.171722421311128     
 -0.171273226296627      -0.170824031282127      -0.170374836267627     
 -0.169925641253127      -0.169476446238627      -0.169027251224127     
 -0.168578056209627      -0.168128861195126      -0.167679666180626     
 -0.167230471166126      -0.166781276151626      -0.166332081137126     
 -0.165882886122626      -0.165433691108126      -0.194937224656336     
 -0.194488029641836      -0.194038834627335      -0.193589639612835     
 -0.193140444598335      -0.192691249583835      -0.192242054569335     
 -0.191792859554835      -0.191343664540335      -0.190894469525834     
 -0.190445274511334      -0.189996079496834      -0.189546884482334     
 -0.189097689467834      -0.188648494453333      -0.188199299438834     
 -0.187750104424333      -0.187300909409834      -0.186851714395333     
 -0.186402519380833      -0.185953324366333      -0.185504129351833     
 -0.185054934337332      -0.184605739322833      -0.184156544308332     
 -0.183707349293832      -0.215146305548137      -0.214697110533636     
 -0.214247915519136      -0.213798720504636      -0.213349525490136     
 -0.212900330475636      -0.212451135461135      -0.212001940446636     
 -0.211552745432135      -0.211103550417635      -0.210654355403135     
 -0.210205160388635      -0.209755965374135      -0.209306770359635     
 -0.208857575345135      -0.208408380330634      -0.207959185316134     
 -0.207509990301634      -0.207060795287134      -0.206611600272634     
 -0.206162405258134      -0.205713210243634      -0.205264015229133     
 -0.204814820214634      -0.204365625200133      -0.203916430185633     
 -0.236945026168957      -0.236495831154457      -0.236046636139957     
 -0.235597441125457      -0.235148246110956      -0.234699051096456     
 -0.234249856081956      -0.233800661067456      -0.233351466052956     
 -0.232902271038456      -0.232453076023956      -0.232003881009456     
 -0.231554685994956      -0.231105490980455      -0.230656295965955     
 -0.230207100951455      -0.229757905936954      -0.229308710922455     
 -0.228859515907954      -0.228410320893455      -0.227961125878954     
 -0.227511930864454      -0.227062735849954      -0.226613540835454     
 -0.226164345820954      -0.225715150806454      -0.259960404365228     
 -0.259511209350728      -0.259062014336228      -0.258612819321728     
 -0.258163624307228      -0.257714429292728      -0.257265234278227     
 -0.256816039263727      -0.256366844249227      -0.255917649234727     
 -0.255468454220227      -0.255019259205727      -0.254570064191226     
 -0.254120869176726      -0.253671674162226      -0.253222479147726     
 -0.252773284133226      -0.252324089118726      -0.251874894104225     
 -0.251425699089726      -0.250976504075225      -0.250527309060725     
 -0.250078114046225      -0.249628919031725      -0.249179724017225     
 -0.248730529002725      -0.283798640634943      -0.283349445620443     
 -0.282900250605943      -0.282451055591443      -0.282001860576942     
 -0.281552665562443      -0.281103470547943      -0.280654275533442     
 -0.280205080518942      -0.279755885504442      -0.279306690489942     
 -0.278857495475442      -0.278408300460942      -0.277959105446441     
 -0.277509910431942      -0.277060715417441      -0.276611520402941     
 -0.276162325388441      -0.275713130373941      -0.275263935359441     
 -0.274814740344940      -0.274365545330440      -0.273916350315940     
 -0.273467155301440      -0.273017960286940      -0.272568765272440     
 -0.308051856146319      -0.307602661131819      -0.307153466117319     
 -0.306704271102819      -0.306255076088319      -0.305805881073818     
 -0.305356686059319      -0.304907491044819      -0.304458296030318     
 -0.304009101015818      -0.303559906001318      -0.303110710986818     
 -0.302661515972318      -0.302212320957817      -0.301763125943317     
 -0.301313930928817      -0.300864735914317      -0.300415540899817     
 -0.299966345885318      -0.299517150870817      -0.299067955856317     
 -0.298618760841817      -0.298169565827316      -0.297720370812816     
 -0.297271175798317      -0.296821980783816      -0.332305071657696     
 -0.331855876643196      -0.331406681628695      -0.330957486614195     
 -0.330508291599695      -0.330059096585195      -0.329609901570694     
 -0.329160706556195      -0.328711511541694      -0.328262316527195     
 -0.327813121512694      -0.327363926498194      -0.326914731483694     
 -0.326465536469194      -0.326016341454694      -0.325567146440193     
 -0.325117951425694      -0.324668756411193      -0.324219561396693     
 -0.323770366382193      -0.323321171367693      -0.322871976353193     
 -0.322422781338693      -0.321973586324193      -0.321524391309693     
 -0.321075196295193      -0.356143307927411      -0.355694112912911     
 -0.355244917898411      -0.354795722883911      -0.354346527869410     
 -0.353897332854910      -0.353448137840411      -0.352998942825910     
 -0.352549747811410      -0.352100552796910      -0.351651357782409     
 -0.351202162767910      -0.350752967753409      -0.350303772738909     
 -0.349854577724408      -0.349405382709909      -0.348956187695409     
 -0.348506992680909      -0.348057797666409      -0.347608602651908     
 -0.347159407637408      -0.346710212622908      -0.346261017608408     
 -0.345811822593908      -0.345362627579408      -0.344913432564908     
 -0.379158686123682      -0.378709491109182      -0.378260296094682     
 -0.377811101080182      -0.377361906065682      -0.376912711051182     
 -0.376463516036681      -0.376014321022181      -0.375565126007681     
 -0.375115930993181      -0.374666735978680      -0.374217540964180     
 -0.373768345949680      -0.373319150935180      -0.372869955920680     
 -0.372420760906180      -0.371971565891680      -0.371522370877180     
 -0.371073175862680      -0.370623980848180      -0.370174785833679     
 -0.369725590819180      -0.369276395804679      -0.368827200790180     
 -0.368378005775678      -0.367928810761179      -0.400957406744502     
 -0.400508211730003      -0.400059016715502      -0.399609821701002     
 -0.399160626686502      -0.398711431672002      -0.398262236657502     
 -0.397813041643001      -0.397363846628502      -0.396914651614001     
 -0.396465456599501      -0.396016261585001      -0.395567066570501     
 -0.395117871556001      -0.394668676541501      -0.394219481527000     
 -0.393770286512501      -0.393321091498001      -0.392871896483500     
 -0.392422701469001      -0.391973506454501      -0.391524311440000     
 -0.391075116425500      -0.390625921411000      -0.390176726396499     
 -0.389727531381999      -0.421166487636303      -0.420717292621803     
 -0.420268097607303      -0.419818902592803      -0.419369707578303     
 -0.418920512563803      -0.418471317549303      -0.418022122534802     
 -0.417572927520302      -0.417123732505802      -0.416674537491302     
 -0.416225342476802      -0.415776147462302      -0.415326952447802     
 -0.414877757433302      -0.414428562418802      -0.413979367404301     
 -0.413530172389801      -0.413080977375301      -0.412631782360800     
 -0.412182587346301      -0.411733392331800      -0.411284197317300     
 -0.410835002302800      -0.410385807288300      -0.409936612273800     
 -0.439440145822009      -0.438990950807510      -0.438541755793010     
 -0.438092560778509      -0.437643365764009      -0.437194170749509     
 -0.436744975735009      -0.436295780720509      -0.435846585706008     
 -0.435397390691509      -0.434948195677009      -0.434499000662509     
 -0.434049805648008      -0.433600610633509      -0.433151415619008     
 -0.432702220604508      -0.432253025590008      -0.431803830575508     
 -0.431354635561008      -0.430905440546507      -0.430456245532007     
 -0.430007050517507      -0.429557855503007      -0.429108660488507     
 -0.428659465474007      -0.428210270459507      -0.455465713943650     
 -0.455016518929150      -0.454567323914649      -0.454118128900149     
 -0.453668933885649      -0.453219738871149      -0.452770543856649     
 -0.452321348842149      -0.451872153827649      -0.451422958813148     
 -0.450973763798648      -0.450524568784148      -0.450075373769648     
 -0.449626178755148      -0.449176983740647      -0.448727788726147     
 -0.448278593711647      -0.447829398697147      -0.447380203682648     
 -0.446931008668147      -0.446481813653647      -0.446032618639146     
 -0.445583423624646      -0.445134228610146      -0.444685033595646     
 -0.444235838581147      -0.468968990087534      -0.468519795073034     
 -0.468070600058534      -0.467621405044034      -0.467172210029533     
 -0.466723015015033      -0.466273820000533      -0.465824624986033     
 -0.465375429971533      -0.464926234957033      -0.464477039942532     
 -0.464027844928032      -0.463578649913532      -0.463129454899032     
 -0.462680259884532      -0.462231064870032      -0.461781869855532     
 -0.461332674841032      -0.460883479826532      -0.460434284812031     
 -0.459985089797531      -0.459535894783031      -0.459086699768531     
 -0.458637504754030      -0.458188309739531      -0.457739114725030     
 -0.479718929455025      -0.479269734440526      -0.478820539426025     
 -0.478371344411525      -0.477922149397026      -0.477472954382525     
 -0.477023759368025      -0.476574564353525      -0.476125369339025     
 -0.475676174324525      -0.475226979310025      -0.474777784295525     
 -0.474328589281024      -0.473879394266524      -0.473430199252023     
 -0.472981004237524      -0.472531809223024      -0.472082614208524     
 -0.471633419194024      -0.471184224179523      -0.470735029165023     
 -0.470285834150523      -0.469836639136023      -0.469387444121523     
 -0.468938249107023      -0.468489054092522      -0.487531597603102     
 -0.487082402588602      -0.486633207574101      -0.486184012559601     
 -0.485734817545101      -0.485285622530601      -0.484836427516101     
 -0.484387232501601      -0.483938037487100      -0.483488842472600     
 -0.483039647458100      -0.482590452443600      -0.482141257429100     
 -0.481692062414599      -0.481242867400100      -0.480793672385599     
 -0.480344477371099      -0.479895282356599      -0.479446087342099     
 -0.478996892327598      -0.478547697313099      -0.478098502298599     
 -0.477649307284098      -0.477200112269599      -0.476750917255098     
 -0.476301722240598      -0.492273317613666      -0.491824122599166     
 -0.491374927584666      -0.490925732570165      -0.490476537555666     
 -0.490027342541164      -0.489578147526665      -0.489128952512165     
 -0.488679757497665      -0.488230562483164      -0.487781367468664     
 -0.487332172454165      -0.486882977439665      -0.486433782425164     
 -0.485984587410664      -0.485535392396164      -0.485086197381664     
 -0.484637002367164      -0.484187807352663      -0.483738612338163     
 -0.483289417323663      -0.482840222309163      -0.482391027294663     
 -0.481941832280163      -0.481492637265662      -0.481043442251163     
 -0.493862957342686      -0.493413762328186      -0.492964567313685     
 -0.492515372299185      -0.492066177284685      -0.491616982270185     
 -0.491167787255685      -0.490718592241185      -0.490269397226685     
 -0.489820202212185      -0.489371007197684      -0.488921812183184     
 -0.488472617168684      -0.488023422154184      -0.487574227139684     
 -0.487125032125184      -0.486675837110684      -0.486226642096183     
 -0.485777447081683      -0.485328252067183      -0.484879057052683     
 -0.484429862038183      -0.483980667023683      -0.483531472009183     
 -0.483082276994682      -0.482633081980182     
 -1.145416209355952E-002 -9.794939208563995E-003 -8.135716323568494E-003
 -6.476493438573133E-003 -4.817270553577683E-003 -3.158047668582346E-003
 -1.498824783586871E-003  1.603981014085556E-004  1.819620986404115E-003
  3.478843871399425E-003  5.138066756394920E-003  6.797289641390244E-003
  8.456512526385671E-003  1.011573541138117E-002  1.177495829637650E-002
  1.343418118137191E-002  1.509340406636749E-002  1.675262695136278E-002
  1.841184983635836E-002  2.007107272135367E-002  2.173029560634925E-002
  2.338951849134447E-002  2.504874137633997E-002  2.670796426133553E-002
  2.836718714633083E-002  3.002641003132622E-002 -1.102380505859785E-002
 -9.364582173602514E-003 -7.705359288606999E-003 -6.046136403611620E-003
 -4.386913518616174E-003 -2.727690633620821E-003 -1.068467748625273E-003
  5.907551363701197E-004  2.249978021365623E-003  3.909200906361000E-003
  5.568423791356428E-003  7.227646676351865E-003  8.886869561347282E-003
  1.054609244634275E-002  1.220531533133825E-002  1.386453821633370E-002
  1.552376110132899E-002  1.718298398632442E-002  1.884220687131988E-002
  2.050142975631525E-002  2.216065264131076E-002  2.381987552630613E-002
  2.547909841130171E-002  2.713832129629699E-002  2.879754418129252E-002
  3.045676706628791E-002 -9.740097481898790E-003 -8.080874596903447E-003
 -6.421651711907890E-003 -4.762428826912533E-003 -3.103205941917045E-003
 -1.443983056921648E-003  2.152398280738584E-004  1.874462713069164E-003
  3.533685598064728E-003  5.192908483060154E-003  6.852131368055588E-003
  8.511354253051091E-003  1.017057713804643E-002  1.182980002304194E-002
  1.348902290803730E-002  1.514824579303261E-002  1.680746867802815E-002
  1.846669156302346E-002  2.012591444801904E-002  2.178513733301446E-002
  2.344436021800986E-002  2.510358310300532E-002  2.676280598800085E-002
  2.842202887299605E-002  3.008125175799164E-002  3.174047464298701E-002
 -7.625003956010530E-003 -5.965781071015077E-003 -4.306558186019563E-003
 -2.647335301024105E-003 -9.881124160288500E-004  6.711104689664551E-004
  2.330333353962047E-003  3.989556238957583E-003  5.648779123952980E-003
  7.308002008948359E-003  8.967224893943889E-003  1.062644777893926E-002
  1.228567066393472E-002  1.394489354893014E-002  1.560411643392563E-002
  1.726333931892101E-002  1.892256220391640E-002  2.058178508891178E-002
  2.224100797390723E-002  2.390023085890273E-002  2.555945374389827E-002
  2.721867662889359E-002  2.887789951388913E-002  3.053712239888439E-002
  3.219634528387978E-002  3.385556816887535E-002 -4.714714317575594E-003
 -3.055491432580289E-003 -1.396268547584955E-003  2.629543374105793E-004
  1.922177222405974E-003  3.581400107401472E-003  5.240622992396977E-003
  6.899845877392284E-003  8.559068762387856E-003  1.021829164738329E-002
  1.187751453237871E-002  1.353673741737409E-002  1.519596030236960E-002
  1.685518318736488E-002  1.851440607236043E-002  2.017362895735580E-002
  2.183285184235116E-002  2.349207472734664E-002  2.515129761234207E-002
  2.681052049733752E-002  2.846974338233283E-002  3.012896626732846E-002
  3.178818915232365E-002  3.344741203731930E-002  3.510663492231469E-002
  3.676585780731000E-002 -1.059024429192646E-003  6.001984558027462E-004
  2.259421340798108E-003  3.918644225793498E-003  5.577867110788719E-003
  7.237089995784526E-003  8.896312880779925E-003  1.055553576577545E-002
  1.221475865077093E-002  1.387398153576612E-002  1.553320442076156E-002
  1.719242730575717E-002  1.885165019075241E-002  2.051087307574787E-002
  2.217009596074343E-002  2.382931884573865E-002  2.548854173073416E-002
  2.714776461572945E-002  2.880698750072506E-002  3.046621038572052E-002
  3.212543327071584E-002  3.378465615571132E-002  3.544387904070695E-002
  3.710310192570230E-002  3.876232481069770E-002  4.042154769569299E-002
  3.279515841599555E-003  4.938738726594733E-003  6.597961611590446E-003
  8.257184496585801E-003  9.916407381581159E-003  1.157563026657678E-002
  1.323485315157211E-002  1.489407603656761E-002  1.655329892156313E-002
  1.821252180655836E-002  1.987174469155377E-002  2.153096757654925E-002
  2.319019046154469E-002  2.484941334654015E-002  2.650863623153551E-002
  2.816785911653107E-002  2.982708200152639E-002  3.148630488652186E-002
  3.314552777151727E-002  3.480475065651281E-002  3.646397354150793E-002
  3.812319642650354E-002  3.978241931149883E-002  4.144164219649436E-002
  4.310086508148981E-002  4.476008796648526E-002  8.226672867896969E-003
  9.885895752892617E-003  1.154511863788804E-002  1.320434152288336E-002
  1.486356440787870E-002  1.652278729287451E-002  1.818201017786980E-002
  1.984123306286532E-002  2.150045594786060E-002  2.315967883285594E-002
  2.481890171785128E-002  2.647812460284702E-002  2.813734748784217E-002
  2.979657037283769E-002  3.145579325783314E-002  3.311501614282850E-002
  3.477423902782417E-002  3.643346191281981E-002  3.809268479781489E-002
  3.975190768281039E-002  4.141113056780592E-002  4.307035345280127E-002
  4.472957633779644E-002  4.638879922279222E-002  4.804802210778748E-002
  4.970724499278301E-002  1.369779942136883E-002  1.535702230636419E-002
  1.701624519135993E-002  1.867546807635525E-002  2.033469096135086E-002
  2.199391384634624E-002  2.365313673134163E-002  2.531235961633705E-002
  2.697158250133251E-002  2.863080538632789E-002  3.029002827132342E-002
  3.194925115631873E-002  3.360847404131415E-002  3.526769692630946E-002
  3.692691981130500E-002  3.858614269630050E-002  4.024536558129593E-002
  4.190458846629151E-002  4.356381135128671E-002  4.522303423628220E-002
  4.688225712127776E-002  4.854148000627308E-002  5.020070289126852E-002
  5.185992577626396E-002  5.351914866125923E-002  5.517837154625490E-002
  1.959928300980265E-002  2.125850589479805E-002  2.291772877979345E-002
  2.457695166478896E-002  2.623617454978435E-002  2.789539743477978E-002
  2.955462031977504E-002  3.121384320477064E-002  3.287306608976597E-002
  3.453228897476157E-002  3.619151185975688E-002  3.785073474475236E-002
  3.950995762974784E-002  4.116918051474323E-002  4.282840339973887E-002
  4.448762628473425E-002  4.614684916972937E-002  4.780607205472514E-002
  4.946529493972030E-002  5.112451782471567E-002  5.278374070971110E-002
  5.444296359470682E-002  5.610218647970185E-002  5.776140936469741E-002
  5.942063224969285E-002  6.107985513468841E-002  2.583014761279909E-002
  2.748937049779474E-002  2.914859338279003E-002  3.080781626778551E-002
  3.246703915278072E-002  3.412626203777649E-002  3.578548492277186E-002
  3.744470780776728E-002  3.910393069276261E-002  4.076315357775807E-002
  4.242237646275358E-002  4.408159934774895E-002  4.574082223274420E-002
  4.740004511773976E-002  4.905926800273514E-002  5.071849088773065E-002
  5.237771377272610E-002  5.403693665772153E-002  5.569615954271699E-002
  5.735538242771243E-002  5.901460531270784E-002  6.067382819770314E-002
  6.233305108269876E-002  6.399227396769405E-002  6.565149685268963E-002
  6.731071973768520E-002  3.228378140947985E-002  3.394300429447530E-002
  3.560222717947062E-002  3.726145006446600E-002  3.892067294946117E-002
  4.057989583445710E-002  4.223911871945250E-002  4.389834160444767E-002
  4.555756448944304E-002  4.721678737443873E-002  4.887601025943414E-002
  5.053523314442955E-002  5.219445602942475E-002  5.385367891442051E-002
  5.551290179941573E-002  5.717212468441125E-002  5.883134756940667E-002
  6.049057045440204E-002  6.214979333939766E-002  6.380901622439313E-002
  6.546823910938825E-002  6.712746199438385E-002  6.878668487937915E-002
  7.044590776437477E-002  7.210513064937010E-002  7.376435353436561E-002
  3.884976093629735E-002  4.050898382129296E-002  4.216820670628829E-002
  4.382742959128366E-002  4.548665247627904E-002  4.714587536127454E-002
  4.880509824627009E-002  5.046432113126553E-002  5.212354401626080E-002
  5.378276690125654E-002  5.544198978625162E-002  5.710121267124718E-002
  5.876043555624237E-002  6.041965844123788E-002  6.207888132623331E-002
  6.373810421122890E-002  6.539732709622449E-002  6.705654998121967E-002
  6.871577286621545E-002  7.037499575121058E-002  7.203421863620631E-002
  7.369344152120158E-002  7.535266440619726E-002  7.701188729119243E-002
  7.867111017618809E-002  8.033033306118342E-002  4.541574046311538E-002
  4.707496334811045E-002  4.873418623310622E-002  5.039340911810162E-002
  5.205263200309752E-002  5.371185488809250E-002  5.537107777308771E-002
  5.703030065808300E-002  5.868952354307860E-002  6.034874642807429E-002
  6.200796931306961E-002  6.366719219806501E-002  6.532641508306040E-002
  6.698563796805593E-002  6.864486085305142E-002  7.030408373804660E-002
  7.196330662304243E-002  7.362252950803740E-002  7.528175239303334E-002
  7.694097527802868E-002  7.860019816302374E-002  8.025942104801934E-002
  8.191864393301473E-002  8.357786681801027E-002  8.523708970300579E-002
  8.689631258800087E-002  5.186937425979585E-002  5.352859714479125E-002
  5.518782002978688E-002  5.684704291478241E-002  5.850626579977760E-002
  6.016548868477276E-002  6.182471156976850E-002  6.348393445476393E-002
  6.514315733975928E-002  6.680238022475442E-002  6.846160310974955E-002
  7.012082599474563E-002  7.178004887974102E-002  7.343927176473623E-002
  7.509849464973180E-002  7.675771753472732E-002  7.841694041972253E-002
  8.007616330471826E-002  8.173538618971414E-002  8.339460907470896E-002
  8.505383195970447E-002  8.671305484470034E-002  8.837227772969505E-002
  9.003150061469091E-002  9.169072349968611E-002  9.334994638468150E-002
  5.810023886279259E-002  5.975946174778767E-002  6.141868463278353E-002
  6.307790751777868E-002  6.473713040277441E-002  6.639635328776938E-002
  6.805557617276521E-002  6.971479905776068E-002  7.137402194275597E-002
  7.303324482775134E-002  7.469246771274714E-002  7.635169059774224E-002
  7.801091348273784E-002  7.967013636773262E-002  8.132935925272895E-002
  8.298858213772409E-002  8.464780502271928E-002  8.630702790771465E-002
  8.796625079271031E-002  8.962547367770562E-002  9.128469656270104E-002
  9.294391944769639E-002  9.460314233269219E-002  9.626236521768741E-002
  9.792158810268259E-002  9.958081098767826E-002  6.400172245122605E-002
  6.566094533622138E-002  6.732016822121709E-002  6.897939110621251E-002
  7.063861399120783E-002  7.229783687620316E-002  7.395705976119837E-002
  7.561628264619387E-002  7.727550553118932E-002  7.893472841618476E-002
  8.059395130118055E-002  8.225317418617620E-002  8.391239707117119E-002
  8.557161995616641E-002  8.723084284116173E-002  8.889006572615726E-002
  9.054928861115320E-002  9.220851149614859E-002  9.386773438114351E-002
  9.552695726613943E-002  9.718618015113470E-002  9.884540303613007E-002
  0.100504625921126       0.102163848806121       0.103823071691116     
  0.105482294576112       6.947284900469786E-002  7.113207188969357E-002
  7.279129477468886E-002  7.445051765968425E-002  7.610974054467974E-002
  7.776896342967546E-002  7.942818631467082E-002  8.108740919966584E-002
  8.274663208466122E-002  8.440585496965675E-002  8.606507785465228E-002
  8.772430073964725E-002  8.938352362464334E-002  9.104274650963871E-002
  9.270196939463374E-002  9.436119227962932E-002  9.602041516462489E-002
  9.767963804962047E-002  9.933886093461568E-002  0.100998083819611     
  0.102657306704607       0.104316529589602       0.105975752474597     
  0.107634975359593       0.109294198244589       0.110953421129584     
  7.442000603099533E-002  7.607922891599146E-002  7.773845180098668E-002
  7.939767468598215E-002  8.105689757097677E-002  8.271612045597225E-002
  8.437534334096818E-002  8.603456622596345E-002  8.769378911095885E-002
  8.935301199595447E-002  9.101223488095006E-002  9.267145776594551E-002
  9.433068065094052E-002  9.598990353593644E-002  9.764912642093196E-002
  9.930834930592698E-002  0.100967572190923       0.102626795075918     
  0.104286017960913       0.105945240845909       0.107604463730904     
  0.109263686615899       0.110922909500895       0.112582132385890     
  0.114241355270886       0.115900578155881       7.875854630178818E-002
  8.041776918678319E-002  8.207699207177868E-002  8.373621495677412E-002
  8.539543784176933E-002  8.705466072676513E-002  8.871388361176030E-002
  9.037310649675581E-002  9.203232938175109E-002  9.369155226674693E-002
  9.535077515174220E-002  9.700999803673757E-002  9.866922092173269E-002
  0.100328443806728       0.101987666691724       0.103646889576719     
  0.105306112461715       0.106965335346710       0.108624558231705     
  0.110283781116701       0.111943004001697       0.113602226886692     
  0.115261449771687       0.116920672656683       0.118579895541678     
  0.120239118426674       8.241423619017108E-002  8.407345907516631E-002
  8.573268196016183E-002  8.739190484515742E-002  8.905112773015278E-002
  9.071035061514768E-002  9.236957350014353E-002  9.402879638513867E-002
  9.568801927013433E-002  9.734724215512987E-002  9.900646504012510E-002
  0.100665687925120       0.102324910810116       0.103984133695111     
  0.105643356580107       0.107302579465102       0.108961802350098     
  0.110621025235093       0.112280248120089       0.113939471005084     
  0.115598693890079       0.117257916775075       0.118917139660070     
  0.120576362545065       0.122235585430061       0.123894808315056     
  8.532452582860565E-002  8.698374871360125E-002  8.864297159859615E-002
  9.030219448359160E-002  9.196141736858764E-002  9.362064025358260E-002
  9.527986313857788E-002  9.693908602357348E-002  9.859830890856937E-002
  0.100257531793564       0.101916754678560       0.103575977563555     
  0.105235200448551       0.106894423333546       0.108553646218542     
  0.110212869103537       0.111872091988533       0.113531314873528     
  0.115190537758523       0.116849760643519       0.118508983528514     
  0.120168206413510       0.121827429298505       0.123486652183501     
  0.125145875068496       0.126805097953491       8.743961935449426E-002
  8.909884223948943E-002  9.075806512448432E-002  9.241728800948029E-002