 Title = "Wing and Wake"
 VARIABLES = "X" "Y" "Z" "GAM"
 Zone I=   26 J=   25 K=1  T="Blade"
 DATAPACKING=BLOCK
 VARLOCATION=([4]=CELLCENTERED)
  2.058733201056454E-002  2.207366552077805E-002  2.355999903099160E-002
  2.504633254120498E-002  2.653266605141844E-002  2.801899956163182E-002
  2.950533307184534E-002  3.099166658205878E-002  3.247800009227233E-002
  3.396433360248570E-002  3.545066711269921E-002  3.693700062291264E-002
  3.842333413312610E-002  3.990966764333953E-002  4.139600115355296E-002
  4.288233466376640E-002  4.436866817397994E-002  4.585500168419329E-002
  4.734133519440684E-002  4.882766870462026E-002  5.031400221483380E-002
  5.180033572504708E-002  5.328666923526057E-002  5.477300274547420E-002
  5.625933625568761E-002  5.774566976590096E-002  2.141460658717149E-002
  2.290094009738494E-002  2.438727360759846E-002  2.587360711781194E-002
  2.735994062802539E-002  2.884627413823882E-002  3.033260764845230E-002
  3.181894115866565E-002  3.330527466887925E-002  3.479160817909265E-002
  3.627794168930610E-002  3.776427519951960E-002  3.925060870973303E-002
  4.073694221994648E-002  4.222327573015997E-002  4.370960924037344E-002
  4.519594275058683E-002  4.668227626080027E-002  4.816860977101380E-002
  4.965494328122725E-002  5.114127679144068E-002  5.262761030165410E-002
  5.411394381186765E-002  5.560027732208103E-002  5.708661083229454E-002
  5.857294434250797E-002  2.388227541962275E-002  2.536860892983615E-002
  2.685494244004967E-002  2.834127595026302E-002  2.982760946047656E-002
  3.131394297069003E-002  3.280027648090352E-002  3.428660999111696E-002
  3.577294350133042E-002  3.725927701154389E-002  3.874561052175737E-002
  4.023194403197076E-002  4.171827754218425E-002  4.320461105239775E-002
  4.469094456261114E-002  4.617727807282464E-002  4.766361158303807E-002
  4.914994509325149E-002  5.063627860346499E-002  5.212261211367841E-002
  5.360894562389187E-002  5.509527913410540E-002  5.658161264431888E-002
  5.806794615453222E-002  5.955427966474572E-002  6.104061317495918E-002
  2.794811601002799E-002  2.943444952024144E-002  3.092078303045502E-002
  3.240711654066841E-002  3.389345005088180E-002  3.537978356109513E-002
  3.686611707130867E-002  3.835245058152223E-002  3.983878409173571E-002
  4.132511760194908E-002  4.281145111216258E-002  4.429778462237607E-002
  4.578411813258952E-002  4.727045164280301E-002  4.875678515301646E-002
  5.024311866322979E-002  5.172945217344334E-002  5.321578568365677E-002
  5.470211919387023E-002  5.618845270408363E-002  5.767478621429719E-002
  5.916111972451068E-002  6.064745323472417E-002  6.213378674493746E-002
  6.362012025515093E-002  6.510645376536441E-002  3.354256069862149E-002
  3.502889420883492E-002  3.651522771904823E-002  3.800156122926178E-002
  3.948789473947526E-002  4.097422824968881E-002  4.246056175990227E-002
  4.394689527011560E-002  4.543322878032920E-002  4.691956229054253E-002
  4.840589580075608E-002  4.989222931096942E-002  5.137856282118299E-002
  5.286489633139629E-002  5.435122984160985E-002  5.583756335182327E-002
  5.732389686203674E-002  5.881023037225017E-002  6.029656388246368E-002
  6.178289739267710E-002  6.326923090289049E-002  6.475556441310407E-002
  6.624189792331742E-002  6.772823143353102E-002  6.921456494374441E-002
  7.070089845395779E-002  4.056988698570805E-002  4.205622049592151E-002
  4.354255400613487E-002  4.502888751634836E-002  4.651522102656172E-002
  4.800155453677538E-002  4.948788804698886E-002  5.097422155720232E-002
  5.246055506741574E-002  5.394688857762910E-002  5.543322208784253E-002
  5.691955559805614E-002  5.840588910826958E-002  5.989222261848304E-002
  6.137855612869652E-002  6.286488963890990E-002  6.435122314912328E-002
  6.583755665933672E-002  6.732389016955026E-002  6.881022367976372E-002
  7.029655718997710E-002  7.178289070019070E-002  7.326922421040434E-002
  7.475555772061769E-002  7.624189123083103E-002  7.772822474104446E-002
  4.890985537017304E-002  5.039618888038632E-002  5.188252239060000E-002
  5.336885590081340E-002  5.485518941102675E-002  5.634152292124033E-002
  5.782785643145377E-002  5.931418994166721E-002  6.080052345188069E-002
  6.228685696209409E-002  6.377319047230755E-002  6.525952398252118E-002
  6.674585749273451E-002  6.823219100294800E-002  6.971852451316131E-002
  7.120485802337480E-002  7.269119153358831E-002  7.417752504380179E-002
  7.566385855401531E-002  7.715019206422864E-002  7.863652557444201E-002
  8.012285908465561E-002  8.160919259486900E-002  8.309552610508252E-002
  8.458185961529596E-002  8.606819312550937E-002  5.841976668068203E-002
  5.990610019089556E-002  6.139243370110886E-002  6.287876721132221E-002
  6.436510072153577E-002  6.585143423174925E-002  6.733776774196262E-002
  6.882410125217617E-002  7.031043476238961E-002  7.179676827260301E-002
  7.328310178281652E-002  7.476943529303008E-002  7.625576880324345E-002
  7.774210231345693E-002  7.922843582367031E-002  8.071476933388369E-002
  8.220110284409735E-002  8.368743635431096E-002  8.517376986452420E-002
  8.666010337473776E-002  8.814643688495113E-002  8.963277039516465E-002
  9.111910390537792E-002  9.260543741559164E-002  9.409177092580483E-002
  9.557810443601845E-002  6.893690369806646E-002  7.042323720827974E-002
  7.190957071849355E-002  7.339590422870688E-002  7.488223773892032E-002
  7.636857124913392E-002  7.785490475934724E-002  7.934123826956076E-002
  8.082757177977408E-002  8.231390528998769E-002  8.380023880020114E-002
  8.528657231041463E-002  8.677290582062797E-002  8.825923933084140E-002
  8.974557284105500E-002  9.123190635126824E-002  9.271823986148200E-002
  9.420457337169537E-002  9.569090688190872E-002  9.717724039212226E-002
  9.866357390233572E-002  0.100149907412549       0.101636240922763     
  0.103122574432976       0.104608907943189       0.106095241453403     
  8.028131529205805E-002  8.176764880227148E-002  8.325398231248489E-002
  8.474031582269845E-002  8.622664933291191E-002  8.771298284312530E-002
  8.919931635333873E-002  9.068564986355225E-002  9.217198337376573E-002
  9.365831688397917E-002  9.514465039419261E-002  9.663098390440611E-002
  9.811731741461961E-002  9.960365092483285E-002  0.101089984435047     
  0.102576317945260       0.104062651455473       0.105548984965687     
  0.107035318475900       0.108521651986114       0.110007985496327     
  0.111494319006541       0.112980652516754       0.114466986026968     
  0.115953319537181       0.117439653047394       9.225889543501811E-002
  9.374522894523175E-002  9.523156245544515E-002  9.671789596565858E-002
  9.820422947587203E-002  9.969056298608565E-002  0.101176896496299     
  0.102663230006512       0.104149563516726       0.105635897026939     
  0.107122230537153       0.108608564047366       0.110094897557580     
  0.111581231067793       0.113067564578006       0.114553898088220     
  0.116040231598433       0.117526565108647       0.119012898618860     
  0.120499232129074       0.121985565639287       0.123471899149501     
  0.124958232659714       0.126444566169928       0.127930899680141     
  0.129417233190355       0.104664704409888       0.106151037920102     
  0.107637371430315       0.109123704940529       0.110610038450742     
  0.112096371960956       0.113582705471169       0.115069038981382     
  0.116555372491596       0.118041706001810       0.119528039512023     
  0.121014373022236       0.122500706532450       0.123987040042663     
  0.125473373552877       0.126959707063090       0.128446040573304     
  0.129932374083517       0.131418707593731       0.132905041103944     
  0.134391374614157       0.135877708124371       0.137364041634584     
  0.138850375144798       0.140336708655011       0.141823042165225     
  0.117286475385568       0.118772808895782       0.120259142405995     
  0.121745475916209       0.123231809426422       0.124718142936635     
  0.126204476446849       0.127690809957063       0.129177143467276     
  0.130663476977490       0.132149810487703       0.133636143997916     
  0.135122477508130       0.136608811018343       0.138095144528557     
  0.139581478038770       0.141067811548984       0.142554145059197     
  0.144040478569411       0.145526812079624       0.147013145589838     
  0.148499479100051       0.149985812610265       0.151472146120478     
  0.152958479630691       0.154444813140905       0.129908246361249     
  0.131394579871462       0.132880913381676       0.134367246891889     
  0.135853580402103       0.137339913912316       0.138826247422529     
  0.140312580932743       0.141798914442956       0.143285247953170     
  0.144771581463383       0.146257914973597       0.147744248483810     
  0.149230581994024       0.150716915504237       0.152203249014450     
  0.153689582524664       0.155175916034877       0.156662249545091     
  0.158148583055304       0.159634916565517       0.161121250075731     
  0.162607583585945       0.164093917096158       0.165580250606372     
  0.167066584116585       0.142314055336119       0.143800388846332     
  0.145286722356546       0.146773055866759       0.148259389376973     
  0.149745722887186       0.151232056397400       0.152718389907613     
  0.154204723417826       0.155691056928040       0.157177390438253     
  0.158663723948467       0.160150057458680       0.161636390968894     
  0.163122724479107       0.164609057989320       0.166095391499534     
  0.167581725009748       0.169068058519961       0.170554392030174     
  0.172040725540388       0.173527059050601       0.175013392560814     
  0.176499726071028       0.177986059581242       0.179472393091455     
  0.154291635479079       0.155777968989292       0.157264302499506     
  0.158750636009719       0.160236969519933       0.161723303030146     
  0.163209636540360       0.164695970050573       0.166182303560787     
  0.167668637071000       0.169154970581214       0.170641304091427     
  0.172127637601640       0.173613971111854       0.175100304622068     
  0.176586638132281       0.178072971642494       0.179559305152708     
  0.181045638662921       0.182531972173135       0.184018305683348     
  0.185504639193561       0.186990972703775       0.188477306213988     
  0.189963639724202       0.191449973234415       0.165636047073070     
  0.167122380583284       0.168608714093498       0.170095047603711     
  0.171581381113924       0.173067714624138       0.174554048134351     
  0.176040381644565       0.177526715154778       0.179013048664991     
  0.180499382175205       0.181985715685419       0.183472049195632     
  0.184958382705845       0.186444716216059       0.187931049726272     
  0.189417383236486       0.190903716746700       0.192390050256912     
  0.193876383767126       0.195362717277340       0.196849050787553     
  0.198335384297766       0.199821717807980       0.201308051318193     
  0.202794384828407       0.176153184090455       0.177639517600669     
  0.179125851110882       0.180612184621095       0.182098518131309     
  0.183584851641522       0.185071185151736       0.186557518661949     
  0.188043852172162       0.189530185682376       0.191016519192589     
  0.192502852702803       0.193989186213016       0.195475519723230     
  0.196961853233443       0.198448186743657       0.199934520253870     
  0.201420853764084       0.202907187274297       0.204393520784510     
  0.205879854294724       0.207366187804937       0.208852521315151     
  0.210338854825364       0.211825188335578       0.213311521845792     
  0.185663095400964       0.187149428911178       0.188635762421391     
  0.190122095931604       0.191608429441817       0.193094762952031     
  0.194581096462245       0.196067429972458       0.197553763482672     
  0.199040096992885       0.200526430503098       0.202012764013312     
  0.203499097523525       0.204985431033739       0.206471764543953     
  0.207958098054166       0.209444431564379       0.210930765074593     
  0.212417098584806       0.213903432095020       0.215389765605233     
  0.216876099115447       0.218362432625660       0.219848766135874     
  0.221335099646087       0.222821433156300       0.194003063785429     
  0.195489397295642       0.196975730805856       0.198462064316069     
  0.199948397826283       0.201434731336496       0.202921064846709     
  0.204407398356923       0.205893731867136       0.207380065377350     
  0.208866398887563       0.210352732397777       0.211839065907990     
  0.213325399418204       0.214811732928417       0.216298066438631     
  0.217784399948844       0.219270733459057       0.220757066969271     
  0.222243400479484       0.223729733989698       0.225216067499912     
  0.226702401010125       0.228188734520338       0.229675068030552     
  0.231161401540766       0.201030390072516       0.202516723582729     
  0.204003057092942       0.205489390603156       0.206975724113369     
  0.208462057623583       0.209948391133796       0.211434724644010     
  0.212921058154224       0.214407391664437       0.215893725174650     
  0.217380058684863       0.218866392195077       0.220352725705290     
  0.221839059215504       0.223325392725717       0.224811726235931     
  0.226298059746144       0.227784393256358       0.229270726766571     
  0.230757060276785       0.232243393786998       0.233729727297212     
  0.235216060807425       0.236702394317639       0.238188727827852     
  0.206624834761109       0.208111168271322       0.209597501781535     
  0.211083835291749       0.212570168801963       0.214056502312176     
  0.215542835822390       0.217029169332603       0.218515502842816     
  0.220001836353030       0.221488169863244       0.222974503373457     
  0.224460836883671       0.225947170393884       0.227433503904097     
  0.228919837414311       0.230406170924524       0.231892504434738     
  0.233378837944951       0.234865171455165       0.236351504965378     
  0.237837838475592       0.239324171985805       0.240810505496019     
  0.242296839006232       0.243783172516445       0.210690675351515     
  0.212177008861728       0.213663342371941       0.215149675882155     
  0.216636009392368       0.218122342902581       0.219608676412795     
  0.221095009923008       0.222581343433222       0.224067676943435     
  0.225554010453649       0.227040343963862       0.228526677474076     
  0.230013010984289       0.231499344494503       0.232985678004716     
  0.234472011514930       0.235958345025143       0.237444678535356     
  0.238931012045570       0.240417345555783       0.241903679065997     
  0.243390012576210       0.244876346086424       0.246362679596637     
  0.247849013106851       0.213158344183966       0.214644677694179     
  0.216131011204392       0.217617344714606       0.219103678224819     
  0.220590011735033       0.222076345245246       0.223562678755460     
  0.225049012265673       0.226535345775886       0.228021679286100     
  0.229508012796313       0.230994346306527       0.232480679816740     
  0.233967013326954       0.235453346837167       0.236939680347380     
  0.238426013857594       0.239912347367808       0.241398680878021     
  0.242885014388235       0.244371347898448       0.245857681408662     
  0.247344014918875       0.248830348429088       0.250316681939302     
  0.213985618760572       0.215471952270786       0.216958285780999     
  0.218444619291213       0.219930952801426       0.221417286311640     
  0.222903619821853       0.224389953332066       0.225876286842280     
  0.227362620352493       0.228848953862707       0.230335287372920     
  0.231821620883133       0.233307954393347       0.234794287903561     
  0.236280621413774       0.237766954923988       0.239253288434201     
  0.240739621944414       0.242225955454628       0.243712288964841     
  0.245198622475055       0.246684955985268       0.248171289495482     
  0.249657623005695       0.251143956515908     
  0.121037852594495       0.120174365802726       0.119310879010956     
  0.118447392219186       0.117583905427416       0.116720418635646     
  0.115856931843877       0.114993445052107       0.114129958260337     
  0.113266471468567       0.112402984676798       0.111539497885028     
  0.110676011093258       0.109812524301488       0.108949037509718     
  0.108085550717949       0.107222063926179       0.106358577134409     
  0.105495090342639       0.104631603550870       0.103768116759100     
  0.102904629967330       0.102041143175560       0.101177656383790     
  0.100314169592021       9.945068280025077E-002  0.122461853444397     
  0.121598366652627       0.120734879860857       0.119871393069087     
  0.119007906277317       0.118144419485548       0.117280932693778     
  0.116417445902008       0.115553959110238       0.114690472318468     
  0.113826985526699       0.112963498734929       0.112100011943159     
  0.111236525151389       0.110373038359619       0.109509551567850     
  0.108646064776080       0.107782577984310       0.106919091192540     
  0.106055604400771       0.105192117609001       0.104328630817231     
  0.103465144025461       0.102601657233692       0.101738170441922     
  0.100874683650152       0.126709490944750       0.125846004152980     
  0.124982517361211       0.124119030569441       0.123255543777671     
  0.122392056985901       0.121528570194132       0.120665083402362     
  0.119801596610592       0.118938109818822       0.118074623027053     
  0.117211136235283       0.116347649443513       0.115484162651743     
  0.114620675859973       0.113757189068204       0.112893702276434     
  0.112030215484664       0.111166728692894       0.110303241901124     
  0.109439755109355       0.108576268317585       0.107712781525815     
  0.106849294734045       0.105985807942276       0.105122321150506     
  0.133708086840258       0.132844600048488       0.131981113256719     
  0.131117626464949       0.130254139673179       0.129390652881409     
  0.128527166089640       0.127663679297870       0.126800192506100     
  0.125936705714330       0.125073218922560       0.124209732130791     
  0.123346245339021       0.122482758547251       0.121619271755481     
  0.120755784963712       0.119892298171942       0.119028811380172     
  0.118165324588402       0.117301837796632       0.116438351004863     
  0.115574864213093       0.114711377421323       0.113847890629553     
  0.112984403837783       0.112120917046014       0.143337893214771     
  0.142474406423001       0.141610919631231       0.140747432839462     
  0.139883946047692       0.139020459255922       0.138156972464152     
  0.137293485672383       0.136429998880613       0.135566512088843     
  0.134703025297073       0.133839538505303       0.132976051713534     
  0.132112564921764       0.131249078129994       0.130385591338224     
  0.129522104546455       0.128658617754685       0.127795130962915     
  0.126931644171145       0.126068157379375       0.125204670587606     
  0.124341183795836       0.123477697004066       0.122614210212296     
  0.121750723420526       0.155434141411333       0.154570654619564     
  0.153707167827794       0.152843681036024       0.151980194244254     
  0.151116707452484       0.150253220660715       0.149389733868945     
  0.148526247077175       0.147662760285405       0.146799273493635     
  0.145935786701866       0.145072299910096       0.144208813118326     
  0.143345326326557       0.142481839534787       0.141618352743017     
  0.140754865951247       0.139891379159477       0.139027892367708     
  0.138164405575938       0.137300918784168       0.136437431992398     
  0.135573945200628       0.134710458408859       0.133846971617089     
  0.169789861269589       0.168926374477819       0.168062887686050     
  0.167199400894280       0.166335914102510       0.165472427310740     
  0.164608940518971       0.163745453727201       0.162881966935431     
  0.162018480143661       0.161154993351891       0.160291506560122     
  0.159428019768352       0.158564532976582       0.157701046184812     
  0.156837559393042       0.155974072601273       0.155110585809503     
  0.154247099017733       0.153383612225963       0.152520125434194     
  0.151656638642424       0.150793151850654       0.149929665058884     
  0.149066178267114       0.148202691475345       0.186159422442606     
  0.185295935650836       0.184432448859066       0.183568962067297     
  0.182705475275527       0.181841988483757       0.180978501691987     
  0.180115014900217       0.179251528108448       0.178388041316678     
  0.177524554524908       0.176661067733138       0.175797580941369     
  0.174934094149599       0.174070607357829       0.173207120566059     
  0.172343633774290       0.171480146982520       0.170616660190750     
  0.169753173398980       0.168889686607210       0.168026199815441     
  0.167162713023671       0.166299226231901       0.165435739440131     
  0.164572252648361       0.204262737200213       0.203399250408444     
  0.202535763616674       0.201672276824904       0.200808790033134     
  0.199945303241365       0.199081816449595       0.198218329657825     
  0.197354842866055       0.196491356074286       0.195627869282516     
  0.194764382490746       0.193900895698976       0.193037408907206     
  0.192173922115437       0.191310435323667       0.190446948531897     
  0.189583461740127       0.188719974948357       0.187856488156588     
  0.186993001364818       0.186129514573048       0.185266027781278     
  0.184402540989509       0.183539054197739       0.182675567405969     
  0.223790052807722       0.222926566015953       0.222063079224183     
  0.221199592432413       0.220336105640643       0.219472618848873     
  0.218609132057103       0.217745645265334       0.216882158473564     
  0.216018671681794       0.215155184890024       0.214291698098255     
  0.213428211306485       0.212564724514715       0.211701237722945     
  0.210837750931176       0.209974264139406       0.209110777347636     
  0.208247290555866       0.207383803764096       0.206520316972327     
  0.205656830180557       0.204793343388787       0.203929856597017     
  0.203066369805248       0.202202883013478       0.244407251481093     
  0.243543764689323       0.242680277897553       0.241816791105784     
  0.240953304314014       0.240089817522244       0.239226330730474     
  0.238362843938704       0.237499357146934       0.236635870355165     
  0.235772383563395       0.234908896771625       0.234045409979855     
  0.233181923188085       0.232318436396316       0.231454949604546     
  0.230591462812776       0.229727976021007       0.228864489229237     
  0.228001002437467       0.227137515645697       0.226274028853927     
  0.225410542062158       0.224547055270388       0.223683568478618     
  0.222820081686848       0.265761567234857       0.264898080443087     
  0.264034593651317       0.263171106859547       0.262307620067777     
  0.261444133276008       0.260580646484238       0.259717159692468     
  0.258853672900698       0.257990186108929       0.257126699317159     
  0.256263212525389       0.255399725733619       0.254536238941849     
  0.253672752150080       0.252809265358310       0.251945778566540     
  0.251082291774770       0.250218804983001       0.249355318191231     
  0.248491831399461       0.247628344607691       0.246764857815921     
  0.245901371024152       0.245037884232382       0.244174397440612     
  0.287487621805932       0.286624135014162       0.285760648222392     
  0.284897161430622       0.284033674638853       0.283170187847082     
  0.282306701055313       0.281443214263543       0.280579727471774     
  0.279716240680004       0.278852753888234       0.277989267096464     
  0.277125780304694       0.276262293512924       0.275398806721155     
  0.274535319929385       0.273671833137615       0.272808346345845     
  0.271944859554076       0.271081372762305       0.270217885970536     
  0.269354399178766       0.268490912386997       0.267627425595227     
  0.266763938803457       0.265900452011687       0.309213676377007     
  0.308350189585237       0.307486702793467       0.306623216001697     
  0.305759729209928       0.304896242418158       0.304032755626388     
  0.303169268834618       0.302305782042849       0.301442295251079     
  0.300578808459309       0.299715321667539       0.298851834875769     
  0.297988348084000       0.297124861292230       0.296261374500460     
  0.295397887708690       0.294534400916920       0.293670914125151     
  0.292807427333381       0.291943940541611       0.291080453749841     
  0.290216966958072       0.289353480166302       0.288489993374532     
  0.287626506582763       0.330567992130771       0.329704505339001     
  0.328841018547231       0.327977531755462       0.327114044963692     
  0.326250558171922       0.325387071380152       0.324523584588382     
  0.323660097796613       0.322796611004843       0.321933124213073     
  0.321069637421303       0.320206150629533       0.319342663837763     
  0.318479177045994       0.317615690254224       0.316752203462454     
  0.315888716670684       0.315025229878915       0.314161743087145     
  0.313298256295375       0.312434769503605       0.311571282711836     
  0.310707795920066       0.309844309128296       0.308980822336526     
  0.351185190804141       0.350321704012372       0.349458217220601     
  0.348594730428832       0.347731243637062       0.346867756845293     
  0.346004270053523       0.345140783261753       0.344277296469983     
  0.343413809678213       0.342550322886443       0.341686836094673     
  0.340823349302904       0.339959862511134       0.339096375719365     
  0.338232888927595       0.337369402135825       0.336505915344055     
  0.335642428552285       0.334778941760516       0.333915454968745     
  0.333051968176976       0.332188481385206       0.331324994593436     
  0.330461507801666       0.329598021009897       0.370712506411650     
  0.369849019619880       0.368985532828110       0.368122046036341     
  0.367258559244571       0.366395072452801       0.365531585661031     
  0.364668098869261       0.363804612077492       0.362941125285722     
  0.362077638493952       0.361214151702183       0.360350664910413     
  0.359487178118643       0.358623691326873       0.357760204535103     
  0.356896717743333       0.356033230951564       0.355169744159794     
  0.354306257368024       0.353442770576255       0.352579283784485     
  0.351715796992715       0.350852310200945       0.349988823409175     
  0.349125336617405       0.388815821169257       0.387952334377488     
  0.387088847585718       0.386225360793948       0.385361874002179     
  0.384498387210409       0.383634900418639       0.382771413626869     
  0.381907926835099       0.381044440043330       0.380180953251560     
  0.379317466459790       0.378453979668020       0.377590492876251     
  0.376727006084481       0.375863519292711       0.375000032500941     
  0.374136545709171       0.373273058917401       0.372409572125631     
  0.371546085333862       0.370682598542092       0.369819111750322     
  0.368955624958552       0.368092138166782       0.367228651375013     
  0.405185382342274       0.404321895550505       0.403458408758735     
  0.402594921966965       0.401731435175195       0.400867948383425     
  0.400004461591656       0.399140974799886       0.398277488008116     
  0.397414001216346       0.396550514424577       0.395687027632806     
  0.394823540841037       0.393960054049267       0.393096567257497     
  0.392233080465727       0.391369593673958       0.390506106882188     
  0.389642620090418       0.388779133298648       0.387915646506878     
  0.387052159715109       0.386188672923339       0.385325186131569     
  0.384461699339800       0.383598212548030       0.419541102200530     
  0.418677615408761       0.417814128616990       0.416950641825220     
  0.416087155033451       0.415223668241681       0.414360181449911     
  0.413496694658142       0.412633207866372       0.411769721074602     
  0.410906234282832       0.410042747491062       0.409179260699293     
  0.408315773907523       0.407452287115753       0.406588800323983     
  0.405725313532213       0.404861826740444       0.403998339948674     
  0.403134853156904       0.402271366365134       0.401407879573364     
  0.400544392781595       0.399680905989825       0.398817419198055     
  0.397953932406286       0.431637350397092       0.430773863605323     
  0.429910376813553       0.429046890021783       0.428183403230014     
  0.427319916438244       0.426456429646473       0.425592942854704     
  0.424729456062935       0.423865969271164       0.423002482479395     
  0.422138995687625       0.421275508895855       0.420412022104085     
  0.419548535312316       0.418685048520546       0.417821561728776     
  0.416958074937006       0.416094588145237       0.415231101353466     
  0.414367614561697       0.413504127769927       0.412640640978158     
  0.411777154186387       0.410913667394618       0.410050180602848     
  0.441267156771605       0.440403669979835       0.439540183188065     
  0.438676696396296       0.437813209604526       0.436949722812757     
  0.436086236020987       0.435222749229216       0.434359262437447     
  0.433495775645677       0.432632288853907       0.431768802062137     
  0.430905315270368       0.430041828478598       0.429178341686828     
  0.428314854895058       0.427451368103289       0.426587881311519     
  0.425724394519749       0.424860907727979       0.423997420936210     
  0.423133934144440       0.422270447352670       0.421406960560900     
  0.420543473769130       0.419679986977361       0.448265752667113     
  0.447402265875344       0.446538779083573       0.445675292291804     