 Title = "Wing and Wake"
 VARIABLES = "X" "Y" "Z" "GAM"
 Zone I=   26 J=   25 K=1  T="Blade"
 DATAPACKING=BLOCK
 VARLOCATION=([4]=CELLCENTERED)
  7.400437600835827E-002  7.235677648737077E-002  7.070917696638329E-002
  6.906157744539583E-002  6.741397792440837E-002  6.576637840342089E-002
  6.411877888243341E-002  6.247117936144596E-002  6.082357984045847E-002
  5.917598031947105E-002  5.752838079848355E-002  5.588078127749607E-002
  5.423318175650861E-002  5.258558223552113E-002  5.093798271453365E-002
  4.929038319354618E-002  4.764278367255870E-002  4.599518415157124E-002
  4.434758463058379E-002  4.269998510959633E-002  4.105238558860884E-002
  3.940478606762134E-002  3.775718654663389E-002  3.610958702564641E-002
  3.446198750465897E-002  3.281438798367148E-002  7.447393681114209E-002
  7.282633729015461E-002  7.117873776916715E-002  6.953113824817971E-002
  6.788353872719223E-002  6.623593920620476E-002  6.458833968521725E-002
  6.294074016422983E-002  6.129314064324232E-002  5.964554112225486E-002
  5.799794160126741E-002  5.635034208027991E-002  5.470274255929248E-002
  5.305514303830496E-002  5.140754351731749E-002  4.975994399633003E-002
  4.811234447534256E-002  4.646474495435509E-002  4.481714543336762E-002
  4.316954591238015E-002  4.152194639139269E-002  3.987434687040523E-002
  3.822674734941772E-002  3.657914782843025E-002  3.493154830744277E-002
  3.328394878645533E-002  7.587458490397107E-002  7.422698538298363E-002
  7.257938586199608E-002  7.093178634100863E-002  6.928418682002123E-002
  6.763658729903375E-002  6.598898777804625E-002  6.434138825705879E-002
  6.269378873607126E-002  6.104618921508386E-002  5.939858969409635E-002
  5.775099017310887E-002  5.610339065212142E-002  5.445579113113395E-002
  5.280819161014649E-002  5.116059208915902E-002  4.951299256817153E-002
  4.786539304718409E-002  4.621779352619660E-002  4.457019400520911E-002
  4.292259448422168E-002  4.127499496323418E-002  3.962739544224667E-002
  3.797979592125925E-002  3.633219640027179E-002  3.468459687928430E-002
  7.818235480964397E-002  7.653475528865646E-002  7.488715576766899E-002
  7.323955624668153E-002  7.159195672569407E-002  6.994435720470664E-002
  6.829675768371912E-002  6.664915816273165E-002  6.500155864174419E-002
  6.335395912075673E-002  6.170635959976924E-002  6.005876007878178E-002
  5.841116055779429E-002  5.676356103680684E-002  5.511596151581934E-002
  5.346836199483190E-002  5.182076247384440E-002  5.017316295285694E-002
  4.852556343186943E-002  4.687796391088199E-002  4.523036438989450E-002
  4.358276486890705E-002  4.193516534791960E-002  4.028756582693210E-002
  3.863996630594464E-002  3.699236678495717E-002  8.135775994523987E-002
  7.971016042425245E-002  7.806256090326492E-002  7.641496138227750E-002
  7.476736186128997E-002  7.311976234030253E-002  7.147216281931509E-002
  6.982456329832765E-002  6.817696377734019E-002  6.652936425635268E-002
  6.488176473536519E-002  6.323416521437777E-002  6.158656569339028E-002
  5.993896617240280E-002  5.829136665141529E-002  5.664376713042784E-002
  5.499616760944041E-002  5.334856808845288E-002  5.170096856746544E-002
  5.005336904647795E-002  4.840576952549048E-002  4.675817000450303E-002
  4.511057048351557E-002  4.346297096252807E-002  4.181537144154063E-002
  4.016777192055312E-002  8.534646824850027E-002  8.369886872751280E-002
  8.205126920652529E-002  8.040366968553796E-002  7.875607016455040E-002
  7.710847064356292E-002  7.546087112257543E-002  7.381327160158797E-002
  7.216567208060048E-002  7.051807255961300E-002  6.887047303862553E-002
  6.722287351763807E-002  6.557527399665060E-002  6.392767447566318E-002
  6.228007495467566E-002  6.063247543368823E-002  5.898487591270075E-002
  5.733727639171329E-002  5.568967687072582E-002  5.404207734973832E-002
  5.239447782875081E-002  5.074687830776334E-002  4.909927878677593E-002
  4.745167926578844E-002  4.580407974480091E-002  4.415648022381348E-002
  9.008023181447744E-002  8.843263229349003E-002  8.678503277250249E-002
  8.513743325151497E-002  8.348983373052751E-002  8.184223420954007E-002
  8.019463468855260E-002  7.854703516756509E-002  7.689943564657757E-002
  7.525183612559017E-002  7.360423660460272E-002  7.195663708361523E-002
  7.030903756262777E-002  6.866143804164029E-002  6.701383852065280E-002
  6.536623899966532E-002  6.371863947867785E-002  6.207103995769044E-002
  6.042344043670293E-002  5.877584091571542E-002  5.712824139472799E-002
  5.548064187374057E-002  5.383304235275308E-002  5.218544283176563E-002
  5.053784331077812E-002  4.889024378979062E-002  9.547805463611028E-002
  9.383045511512286E-002  9.218285559413535E-002  9.053525607314782E-002
  8.888765655216031E-002  8.724005703117289E-002  8.559245751018545E-002
  8.394485798919794E-002  8.229725846821048E-002  8.064965894722304E-002
  7.900205942623557E-002  7.735445990524802E-002  7.570686038426064E-002
  7.405926086327316E-002  7.241166134228566E-002  7.076406182129817E-002
  6.911646230031065E-002  6.746886277932324E-002  6.582126325833576E-002
  6.417366373734835E-002  6.252606421636085E-002  6.087846469537343E-002
  5.923086517438590E-002  5.758326565339843E-002  5.593566613241094E-002
  5.428806661142346E-002  0.101447578468361       9.979997894737398E-002
  9.815237942638649E-002  9.650477990539895E-002  9.485718038441143E-002
  9.320958086342408E-002  9.156198134243657E-002  8.991438182144909E-002
  8.826678230046164E-002  8.661918277947421E-002  8.497158325848676E-002
  8.332398373749930E-002  8.167638421651174E-002  8.002878469552434E-002
  7.838118517453684E-002  7.673358565354936E-002  7.508598613256186E-002
  7.343838661157444E-002  7.179078709058694E-002  7.014318756959947E-002
  6.849558804861201E-002  6.684798852762455E-002  6.520038900663709E-002
  6.355278948564955E-002  6.190518996466213E-002  6.025759044367464E-002
  0.107886663103396       0.106239063582409       0.104591464061422     
  0.102943864540434       0.101296265019447       9.964866549845909E-002
  9.800106597747162E-002  9.635346645648410E-002  9.470586693549665E-002
  9.305826741450912E-002  9.141066789352169E-002  8.976306837253423E-002
  8.811546885154675E-002  8.646786933055930E-002  8.482026980957183E-002
  8.317267028858435E-002  8.152507076759687E-002  7.987747124660936E-002
  7.822987172562194E-002  7.658227220463447E-002  7.493467268364697E-002
  7.328707316265948E-002  7.163947364167209E-002  6.999187412068461E-002
  6.834427459969714E-002  6.669667507870973E-002  0.114685134017858     
  0.113037534496871       0.111389934975883       0.109742335454896     
  0.108094735933908       0.106447136412921       0.104799536891933     
  0.103151937370946       0.101504337849958       9.985673832897103E-002
  9.820913880798350E-002  9.656153928699612E-002  9.491393976600859E-002
  9.326634024502117E-002  9.161874072403364E-002  8.997114120304620E-002
  8.832354168205876E-002  8.667594216107127E-002  8.502834264008376E-002
  8.338074311909628E-002  8.173314359810883E-002  8.008554407712139E-002
  7.843794455613390E-002  7.679034503514638E-002  7.514274551415896E-002
  7.349514599317145E-002  0.121726667489508       0.120079067968521     
  0.118431468447533       0.116783868926546       0.115136269405558     
  0.113488669884571       0.111841070363583       0.110193470842596     
  0.108545871321608       0.106898271800621       0.105250672279634     
  0.103603072758646       0.101955473237659       0.100307873716671     
  9.866027419568361E-002  9.701267467469618E-002  9.536507515370873E-002
  9.371747563272127E-002  9.206987611173385E-002  9.042227659074628E-002
  8.877467706975883E-002  8.712707754877139E-002  8.547947802778388E-002
  8.383187850679642E-002  8.218427898580895E-002  8.053667946482153E-002
  0.128890780928365       0.127243181407377       0.125595581886390     
  0.123947982365402       0.122300382844415       0.120652783323427     
  0.119005183802440       0.117357584281452       0.115709984760465     
  0.114062385239477       0.112414785718490       0.110767186197502     
  0.109119586676515       0.107471987155527       0.105824387634540     
  0.104176788113553       0.102529188592565       0.100881589071578     
  9.923398955059014E-002  9.758639002960261E-002  9.593879050861522E-002
  9.429119098762770E-002  9.264359146664027E-002  9.099599194565273E-002
  8.934839242466527E-002  8.770079290367784E-002  0.136054894367221     
  0.134407294846233       0.132759695325246       0.131112095804258     
  0.129464496283271       0.127816896762284       0.126169297241296     
  0.124521697720309       0.122874098199321       0.121226498678334     
  0.119578899157346       0.117931299636359       0.116283700115371     
  0.114636100594384       0.112988501073396       0.111340901552409     
  0.109693302031421       0.108045702510434       0.106398102989446     
  0.104750503468459       0.103102903947471       0.101455304426484     
  9.980770490549662E-002  9.816010538450913E-002  9.651250586352156E-002
  9.486490634253415E-002  0.143096427838871       0.141448828317883     
  0.139801228796896       0.138153629275908       0.136506029754921     
  0.134858430233934       0.133210830712946       0.131563231191959     
  0.129915631670971       0.128268032149984       0.126620432628996     
  0.124972833108009       0.123325233587021       0.121677634066034     
  0.120030034545046       0.118382435024059       0.116734835503071     
  0.115087235982084       0.113439636461097       0.111792036940109     
  0.110144437419121       0.108496837898134       0.106849238377147     
  0.105201638856159       0.103554039335172       0.101906439814184     
  0.149894898753333       0.148247299232345       0.146599699711358     
  0.144952100190370       0.143304500669383       0.141656901148396     
  0.140009301627408       0.138361702106420       0.136714102585433     
  0.135066503064445       0.133418903543458       0.131771304022471     
  0.130123704501483       0.128476104980496       0.126828505459508     
  0.125180905938521       0.123533306417533       0.121885706896546     
  0.120238107375558       0.118590507854571       0.116942908333583     
  0.115295308812596       0.113647709291608       0.112000109770621     
  0.110352510249633       0.108704910728646       0.156333983388368     
  0.154686383867380       0.153038784346393       0.151391184825405     
  0.149743585304418       0.148095985783430       0.146448386262443     
  0.144800786741455       0.143153187220468       0.141505587699480     
  0.139857988178493       0.138210388657506       0.136562789136518     
  0.134915189615531       0.133267590094543       0.131619990573556     
  0.129972391052568       0.128324791531581       0.126677192010593     
  0.125029592489606       0.123381992968618       0.121734393447631     
  0.120086793926643       0.118439194405656       0.116791594884668     
  0.115143995363681       0.162303507220619       0.160655907699631     
  0.159008308178644       0.157360708657657       0.155713109136669     
  0.154065509615682       0.152417910094694       0.150770310573707     
  0.149122711052719       0.147475111531732       0.145827512010744     
  0.144179912489757       0.142532312968769       0.140884713447782     
  0.139237113926794       0.137589514405807       0.135941914884819     
  0.134294315363832       0.132646715842844       0.130999116321857     
  0.129351516800870       0.127703917279882       0.126056317758895     
  0.124408718237907       0.122761118716920       0.121113519195932     
  0.167701330042252       0.166053730521264       0.164406131000277     
  0.162758531479289       0.161110931958302       0.159463332437314     
  0.157815732916327       0.156168133395339       0.154520533874352     
  0.152872934353365       0.151225334832377       0.149577735311390     
  0.147930135790402       0.146282536269415       0.144634936748427     
  0.142987337227440       0.141339737706452       0.139692138185465     
  0.138044538664477       0.136396939143490       0.134749339622502     
  0.133101740101515       0.131454140580527       0.129806541059540     
  0.128158941538553       0.126511342017565       0.172435093608229     
  0.170787494087242       0.169139894566254       0.167492295045266     
  0.165844695524279       0.164197096003292       0.162549496482304     
  0.160901896961317       0.159254297440329       0.157606697919342     
  0.155959098398354       0.154311498877367       0.152663899356379     
  0.151016299835392       0.149368700314404       0.147721100793417     
  0.146073501272429       0.144425901751442       0.142778302230455     
  0.141130702709467       0.139483103188479       0.137835503667492     
  0.136187904146505       0.134540304625517       0.132892705104530     
  0.131245105583542       0.176423801911489       0.174776202390502     
  0.173128602869514       0.171481003348527       0.169833403827539     
  0.168185804306552       0.166538204785564       0.164890605264577     
  0.163243005743589       0.161595406222602       0.159947806701615     
  0.158300207180627       0.156652607659640       0.155005008138652     
  0.153357408617665       0.151709809096677       0.150062209575690     
  0.148414610054702       0.146767010533715       0.145119411012727     
  0.143471811491740       0.141824211970752       0.140176612449765     
  0.138529012928777       0.136881413407790       0.135233813886803     
  0.179599207047085       0.177951607526098       0.176304008005110     
  0.174656408484123       0.173008808963135       0.171361209442148     
  0.169713609921160       0.168066010400173       0.166418410879186     
  0.164770811358198       0.163123211837210       0.161475612316223     
  0.159828012795236       0.158180413274248       0.156532813753261     
  0.154885214232273       0.153237614711286       0.151590015190298     
  0.149942415669311       0.148294816148323       0.146647216627336     
  0.144999617106348       0.143352017585361       0.141704418064373     
  0.140056818543386       0.138409219022398       0.181906976952758     
  0.180259377431771       0.178611777910783       0.176964178389796     
  0.175316578868808       0.173668979347821       0.172021379826833     
  0.170373780305846       0.168726180784858       0.167078581263871     
  0.165430981742883       0.163783382221896       0.162135782700908     
  0.160488183179921       0.158840583658934       0.157192984137946     
  0.155545384616959       0.153897785095971       0.152250185574984     
  0.150602586053996       0.148954986533009       0.147307387012021     
  0.145659787491034       0.144012187970046       0.142364588449059     
  0.140716988928071       0.183307625045587       0.181660025524600     
  0.180012426003612       0.178364826482625       0.176717226961637     
  0.175069627440650       0.173422027919662       0.171774428398675     
  0.170126828877687       0.168479229356700       0.166831629835712     
  0.165184030314725       0.163536430793737       0.161888831272750     
  0.160241231751762       0.158593632230775       0.156946032709788     
  0.155298433188800       0.153650833667813       0.152003234146825     
  0.150355634625838       0.148708035104850       0.147060435583863     
  0.145412836062875       0.143765236541888       0.142117637020900     
  0.183777185848371       0.182129586327383       0.180481986806396     
  0.178834387285409       0.177186787764421       0.175539188243434     
  0.173891588722446       0.172243989201459       0.170596389680471     
  0.168948790159484       0.167301190638496       0.165653591117509     
  0.164005991596521       0.162358392075534       0.160710792554546     
  0.159063193033559       0.157415593512571       0.155767993991584     
  0.154120394470596       0.152472794949609       0.150825195428621     
  0.149177595907634       0.147529996386647       0.145882396865659     
  0.144234797344672       0.142587197823684     
 -9.796607745344066E-002 -9.845619229874346E-002 -9.894630714404634E-002
 -9.943642198934907E-002 -9.992653683465189E-002 -0.100416651679955     
 -0.100906766525258      -0.101396881370560      -0.101886996215863     
 -0.102377111061166      -0.102867225906469      -0.103357340751772     
 -0.103847455597074      -0.104337570442377      -0.104827685287680     
 -0.105317800132983      -0.105807914978286      -0.106298029823588     
 -0.106788144668891      -0.107278259514194      -0.107768374359497     
 -0.108258489204799      -0.108748604050102      -0.109238718895405     
 -0.109728833740708      -0.110218948586011      -9.954458126975167E-002
 -0.100034696115054      -0.100524810960357      -0.101014925805660     
 -0.101505040650963      -0.101995155496266      -0.102485270341569     
 -0.102975385186871      -0.103465500032174      -0.103955614877477     
 -0.104445729722780      -0.104935844568083      -0.105425959413385     
 -0.105916074258688      -0.106406189103991      -0.106896303949294     
 -0.107386418794597      -0.107876533639899      -0.108366648485202     
 -0.108856763330505      -0.109346878175808      -0.109836993021111     
 -0.110327107866413      -0.110817222711716      -0.111307337557019     
 -0.111797452402322      -0.104253084080744      -0.104743198926046     
 -0.105233313771349      -0.105723428616652      -0.106213543461955     
 -0.106703658307257      -0.107193773152560      -0.107683887997863     
 -0.108174002843166      -0.108664117688469      -0.109154232533772     
 -0.109644347379074      -0.110134462224377      -0.110624577069680     
 -0.111114691914983      -0.111604806760286      -0.112094921605588     
 -0.112585036450891      -0.113075151296194      -0.113565266141497     
 -0.114055380986800      -0.114545495832102      -0.115035610677405     
 -0.115525725522708      -0.116015840368011      -0.116505955213314     
 -0.112011022097877      -0.112501136943179      -0.112991251788482     
 -0.113481366633785      -0.113971481479088      -0.114461596324391     
 -0.114951711169693      -0.115441826014996      -0.115931940860299     
 -0.116422055705602      -0.116912170550905      -0.117402285396207     
 -0.117892400241510      -0.118382515086813      -0.118872629932116     
 -0.119362744777419      -0.119852859622721      -0.120342974468024     
 -0.120833089313327      -0.121323204158630      -0.121813319003933     
 -0.122303433849235      -0.122793548694538      -0.123283663539841     
 -0.123773778385144      -0.124263893230447      -0.122685654850771     
 -0.123175769696074      -0.123665884541377      -0.124155999386679     
 -0.124646114231982      -0.125136229077285      -0.125626343922588     
 -0.126116458767891      -0.126606573613193      -0.127096688458496     
 -0.127586803303799      -0.128076918149102      -0.128567032994405     
 -0.129057147839707      -0.129547262685010      -0.130037377530313     
 -0.130527492375616      -0.131017607220919      -0.131507722066221     
 -0.131997836911524      -0.132487951756827      -0.132978066602130     
 -0.133468181447433      -0.133958296292735      -0.134448411138038     
 -0.134938525983341      -0.136094336413457      -0.136584451258760     
 -0.137074566104063      -0.137564680949366      -0.138054795794668     
 -0.138544910639971      -0.139035025485274      -0.139525140330577     
 -0.140015255175880      -0.140505370021182      -0.140995484866485     
 -0.141485599711788      -0.141975714557091      -0.142465829402394     
 -0.142955944247696      -0.143446059092999      -0.143936173938302     
 -0.144426288783605      -0.144916403628908      -0.145406518474211     
 -0.145896633319513      -0.146386748164816      -0.146876863010119     
 -0.147366977855422      -0.147857092700725      -0.148347207546027     
 -0.152007640526809      -0.152497755372112      -0.152987870217415     
 -0.153477985062717      -0.153968099908020      -0.154458214753323     
 -0.154948329598626      -0.155438444443929      -0.155928559289231     
 -0.156418674134534      -0.156908788979837      -0.157398903825140     
 -0.157889018670443      -0.158379133515746      -0.158869248361048     
 -0.159359363206351      -0.159849478051654      -0.160339592896957     
 -0.160829707742260      -0.161319822587562      -0.161809937432865     
 -0.162300052278168      -0.162790167123471      -0.163280281968774     
 -0.163770396814076      -0.164260511659379      -0.170153286145446     
 -0.170643400990749      -0.171133515836051      -0.171623630681354     
 -0.172113745526657      -0.172603860371960      -0.173093975217262     
 -0.173584090062565      -0.174074204907868      -0.174564319753171     
 -0.175054434598474      -0.175544549443776      -0.176034664289079     
 -0.176524779134382      -0.177014893979685      -0.177505008824988     
 -0.177995123670291      -0.178485238515593      -0.178975353360896     
 -0.179465468206199      -0.179955583051502      -0.180445697896805     
 -0.180935812742107      -0.181425927587410      -0.181916042432713     
 -0.182406157278016      -0.190220796241909      -0.190710911087211     
 -0.191201025932514      -0.191691140777817      -0.192181255623120     
 -0.192671370468423      -0.193161485313725      -0.193651600159028     
 -0.194141715004331      -0.194631829849634      -0.195121944694937     
 -0.195612059540239      -0.196102174385542      -0.196592289230845     
 -0.197082404076148      -0.197572518921451      -0.198062633766753     
 -0.198552748612056      -0.199042863457359      -0.199532978302662     
 -0.200023093147965      -0.200513207993267      -0.201003322838570     
 -0.201493437683873      -0.201983552529176      -0.202473667374479     
 -0.211866810154682      -0.212356924999985      -0.212847039845288     
 -0.213337154690591      -0.213827269535894      -0.214317384381196     
 -0.214807499226499      -0.215297614071802      -0.215787728917105     
 -0.216277843762407      -0.216767958607710      -0.217258073453013     
 -0.217748188298316      -0.218238303143619      -0.218728417988922     
 -0.219218532834224      -0.219708647679527      -0.220198762524830     
 -0.220688877370133      -0.221178992215436      -0.221669107060738     
 -0.222159221906041      -0.222649336751344      -0.223139451596647     
 -0.223629566441950      -0.224119681287252      -0.234720958584311     
 -0.235211073429613      -0.235701188274916      -0.236191303120219     
 -0.236681417965522      -0.237171532810825      -0.237661647656127     
 -0.238151762501430      -0.238641877346733      -0.239131992192036     
 -0.239622107037339      -0.240112221882641      -0.240602336727944     
 -0.241092451573247      -0.241582566418550      -0.242072681263853     
 -0.242562796109156      -0.243052910954458      -0.243543025799761     
 -0.244033140645064      -0.244523255490367      -0.245013370335670     
 -0.245503485180972      -0.245993600026275      -0.246483714871578     
 -0.246973829716881      -0.258392200714796      -0.258882315560098     
 -0.259372430405401      -0.259862545250704      -0.260352660096007     
 -0.260842774941310      -0.261332889786613      -0.261823004631915     
 -0.262313119477218      -0.262803234322521      -0.263293349167824     
 -0.263783464013126      -0.264273578858429      -0.264763693703732     
 -0.265253808549035      -0.265743923394338      -0.266234038239640     
 -0.266724153084943      -0.267214267930246      -0.267704382775549     
 -0.268194497620852      -0.268684612466155      -0.269174727311457     
 -0.269664842156760      -0.270154957002063      -0.270645071847366     
 -0.282475515030376      -0.282965629875679      -0.283455744720982     
 -0.283945859566285      -0.284435974411588      -0.284926089256890     
 -0.285416204102193      -0.285906318947496      -0.286396433792799     
 -0.286886548638102      -0.287376663483404      -0.287866778328707     
 -0.288356893174010      -0.288847008019313      -0.289337122864616     
 -0.289827237709918      -0.290317352555221      -0.290807467400524     
 -0.291297582245827      -0.291787697091129      -0.292277811936432     
 -0.292767926781735      -0.293258041627038      -0.293748156472341     
 -0.294238271317644      -0.294728386162946      -0.306558829345957     
 -0.307048944191260      -0.307539059036563      -0.308029173881865     
 -0.308519288727168      -0.309009403572471      -0.309499518417774     
 -0.309989633263077      -0.310479748108379      -0.310969862953682     
 -0.311459977798985      -0.311950092644288      -0.312440207489591     
 -0.312930322334894      -0.313420437180196      -0.313910552025499     
 -0.314400666870802      -0.314890781716105      -0.315380896561407     
 -0.315871011406710      -0.316361126252013      -0.316851241097316     
 -0.317341355942619      -0.317831470787921      -0.318321585633224     
 -0.318811700478527      -0.330230071476442      -0.330720186321745     
 -0.331210301167047      -0.331700416012350      -0.332190530857653     
 -0.332680645702956      -0.333170760548259      -0.333660875393562     
 -0.334150990238865      -0.334641105084167      -0.335131219929470     
 -0.335621334774773      -0.336111449620076      -0.336601564465378     
 -0.337091679310681      -0.337581794155984      -0.338071909001287     
 -0.338562023846590      -0.339052138691893      -0.339542253537195     
 -0.340032368382498      -0.340522483227801      -0.341012598073104     
 -0.341502712918406      -0.341992827763709      -0.342482942609012     
 -0.353084219906071      -0.353574334751373      -0.354064449596676     
 -0.354554564441979      -0.355044679287282      -0.355534794132584     
 -0.356024908977887      -0.356515023823190      -0.357005138668493     
 -0.357495253513796      -0.357985368359098      -0.358475483204401     
 -0.358965598049704      -0.359455712895007      -0.359945827740310     
 -0.360435942585613      -0.360926057430915      -0.361416172276218     
 -0.361906287121521      -0.362396401966824      -0.362886516812126     
 -0.363376631657429      -0.363866746502732      -0.364356861348035     
 -0.364846976193338      -0.365337091038640      -0.374730233818844     
 -0.375220348664147      -0.375710463509450      -0.376200578354753     
 -0.376690693200055      -0.377180808045358      -0.377670922890661     
 -0.378161037735964      -0.378651152581267      -0.379141267426569     
 -0.379631382271872      -0.380121497117175      -0.380611611962478     
 -0.381101726807780      -0.381591841653083      -0.382081956498386     
 -0.382572071343689      -0.383062186188992      -0.383552301034294     
 -0.384042415879597      -0.384532530724900      -0.385022645570203     
 -0.385512760415506      -0.386002875260809      -0.386492990106111     
 -0.386983104951414      -0.394797743915307      -0.395287858760610     
 -0.395777973605913      -0.396268088451215      -0.396758203296518     
 -0.397248318141821      -0.397738432987124      -0.398228547832427     
 -0.398718662677729      -0.399208777523032      -0.399698892368335     
 -0.400189007213638      -0.400679122058941      -0.401169236904244     
 -0.401659351749546      -0.402149466594849      -0.402639581440152     
 -0.403129696285455      -0.403619811130757      -0.404109925976060     
 -0.404600040821363      -0.405090155666666      -0.405580270511969     
 -0.406070385357271      -0.406560500202574      -0.407050615047877     
 -0.412943389533944      -0.413433504379246      -0.413923619224549     
 -0.414413734069852      -0.414903848915155      -0.415393963760457     
 -0.415884078605760      -0.416374193451063      -0.416864308296366     
 -0.417354423141669      -0.417844537986972      -0.418334652832274     
 -0.418824767677577      -0.419314882522880      -0.419804997368183     
 -0.420295112213486      -0.420785227058788      -0.421275341904091     
 -0.421765456749394      -0.422255571594697      -0.422745686440000     
 -0.423235801285302      -0.423725916130605      -0.424216030975908     
 -0.424706145821211      -0.425196260666514      -0.428856693647296     
 -0.429346808492598      -0.429836923337901      -0.430327038183204     
 -0.430817153028507      -0.431307267873809      -0.431797382719112     
 -0.432287497564415      -0.432777612409718      -0.433267727255021     
 -0.433757842100323      -0.434247956945626      -0.434738071790929     
 -0.435228186636232      -0.435718301481535      -0.436208416326837     
 -0.436698531172140      -0.437188646017443      -0.437678760862746     
 -0.438168875708049      -0.438658990553351      -0.439149105398654     
 -0.439639220243957      -0.440129335089260      -0.440619449934563     
 -0.441109564779865      -0.442265375209982      -0.442755490055284     
 -0.443245604900587      -0.443735719745890      -0.444225834591193     
 -0.444715949436496      -0.445206064281798      -0.445696179127101     
 -0.446186293972404      -0.446676408817707      -0.447166523663010     
 -0.447656638508312      -0.448146753353615      -0.448636868198918     
 -0.449126983044221      -0.449617097889524      -0.450107212734827     
 -0.450597327580129      -0.451087442425432      -0.451577557270735     
 -0.452067672116038      -0.452557786961341      -0.453047901806644     
 -0.453538016651946      -0.454028131497249      -0.454518246342552     
 -0.452940007962876      -0.453430122808179      -0.453920237653482     
 -0.454410352498784      -0.454900467344087      -0.455390582189390     
 -0.455880697034693      -0.456370811879996      -0.456860926725299     
 -0.457351041570601      -0.457841156415904      -0.458331271261207     
 -0.458821386106510      -0.459311500951813      -0.459801615797115     
 -0.460291730642418      -0.460781845487721      -0.461271960333024     
 -0.461762075178327      -0.462252190023629      -0.462742304868932     
 -0.463232419714235      -0.463722534559538      -0.464212649404841     
 -0.464702764250143      -0.465192879095446      -0.460697945980009     
 -0.461188060825312      -0.461678175670615      -0.462168290515918     