 Title = "Wing and Tip"
 VARIABLES = "X" "Y" "Z" "GAM" "ageAzimuthal"
 Zone I=   17 J=   20 K=1  T="Blade"
 DATAPACKING=BLOCK
 VARLOCATION=([4,5]=CELLCENTERED)
 -9.298848236302755E-002 -9.300484974895333E-002 -9.305992007340173E-002
 -9.315333670893183E-002 -9.328697587898607E-002 -9.346245187960806E-002
 -9.367882327068364E-002 -9.393087702822035E-002 -9.420252353077879E-002
 -9.447224177432301E-002 -9.471931483176474E-002 -9.492949989240748E-002
 -9.509727391176340E-002 -9.522452979018727E-002 -9.531738760194705E-002
 -9.538320744148812E-002 -9.542893220626988E-002 -9.557073214403336E-002
 -9.559321417425287E-002 -9.565807919021684E-002 -9.576416532387541E-002
 -9.591464473374216E-002 -9.611225945341344E-002 -9.635635589188345E-002
 -9.664075540882579E-002 -9.694735647718830E-002 -9.725193148384227E-002
 -9.753089839137538E-002 -9.776797882459010E-002 -9.795697811257718E-002
 -9.810003996514538E-002 -9.820416804279510E-002 -9.827779852893852E-002
 -9.832870141054037E-002 -9.817264218824678E-002 -9.820139128769000E-002
 -9.827472105859483E-002 -9.839056723593710E-002 -9.855351452673977E-002
 -9.876746431182919E-002 -9.903229377246912E-002 -9.934083492861523E-002
 -9.967362108697574E-002 -0.100004349573949      -0.100307219981171     
 -0.100564443646742      -0.100769156083320      -0.100923833193943     
 -0.101036140569246      -0.101115357901068      -0.101169855761638     
 -0.100790883258392      -0.100825839310350      -0.100906431437504     
 -0.101029566668134      -0.101201286601890      -0.101426806848081     
 -0.101706449128323      -0.102032284437082      -0.102383912074415     
 -0.102733496584791      -0.103053636774913      -0.103325283277472     
 -0.103541180523348      -0.103703972031271      -0.103821914280853     
 -0.103904871776606      -0.103961680251848      -0.103412846167076     
 -0.103454341364775      -0.103542087767367      -0.103672035965752     
 -0.103851679604062      -0.104087612903111      -0.104380723586447     
 -0.104722271202627      -0.105091038240319      -0.105457852002954     
 -0.105793746323796      -0.106078554440600      -0.106304566547609     
 -0.106474680011158      -0.106597638967171      -0.106683886656530     
 -0.106742679047689      -0.106040880895418      -0.106088154342369     
 -0.106182045770774      -0.106317712683531      -0.106504074654050     
 -0.106748743168062      -0.107053122758783      -0.107407764179699     
 -0.107790883917544      -0.108172094078122      -0.108521220601532     
 -0.108817122641070      -0.109051730272550      -0.109228114554302     
 -0.109355431971091      -0.109444573342304      -0.109505116487005     
 -0.108675379947382      -0.108725861686832      -0.108823160633106     
 -0.108963162412251      -0.109155201984671      -0.109407250954522     
 -0.109720687739815      -0.110085878477592      -0.110480401383340     
 -0.110873002559212      -0.111232711172826      -0.111537757220682     
 -0.111779843046197      -0.111961999629893      -0.112093600264487     
 -0.112185838809235      -0.112248529930059      -0.111316128195480     
 -0.111368678983600      -0.111468422934060      -0.111611656793587     
 -0.111808038601357      -0.112065690576467      -0.112386152676312     
 -0.112759521999569      -0.113162910954308      -0.113564421295130     
 -0.113932327304967      -0.114244494595579      -0.114492342509418     
 -0.114678934218516      -0.114813839784641      -0.114908426759041     
 -0.114972766693398      -0.113963553276326      -0.114017146216409     
 -0.114118406658874      -0.114263757660168      -0.114463030951464     
 -0.114724525482003      -0.115049781209181      -0.115428781656390     
 -0.115838285771409      -0.116245974427372      -0.116619611755676     
 -0.116936706869640      -0.117188548535678      -0.117378209040279     
 -0.117515365944190      -0.117611566566959      -0.117677059190412     
 -0.116618424134216      -0.116673074417022      -0.116775155419853     
 -0.116921493433542      -0.117122056841600      -0.117385252092248     
 -0.117712593027676      -0.118094123287984      -0.118506388632985     
 -0.118916852481529      -0.119293175086015      -0.119612623218435     
 -0.119866476530747      -0.120057708924915      -0.120196097574371     
 -0.120293191026824      -0.120359351139383      -0.119280508059081     
 -0.119335838565433      -0.119437951888771      -0.119584114593970     
 -0.119784414716126      -0.120047227740113      -0.120374131891141     
 -0.120755134351488      -0.121166910810671      -0.121576958042714     
 -0.121952989694094      -0.122272324120887      -0.122526167477571     
 -0.122717508856874      -0.122856028275860      -0.122953307701911     
 -0.123019620950228      -0.121950058510721      -0.122005582812469     
 -0.122106881909738      -0.122251744025215      -0.122450183114690     
 -0.122710538851540      -0.123034418614336      -0.123411917627263     
 -0.123819993934474      -0.124226416322016      -0.124599213564344     
 -0.124915914102850      -0.125167756865358      -0.125357720020145     
 -0.125495283195247      -0.125591940316134      -0.125657863193501     
 -0.124627592751111      -0.124682729073732      -0.124782344321299     
 -0.124924600797527      -0.125119462684111      -0.125375109343204     
 -0.125693157267830      -0.126063928186416      -0.126464745691516     
 -0.126864036814831      -0.127230361038584      -0.127541678545586     
 -0.127789359421525      -0.127976223333445      -0.128111635752266     
 -0.128206816135117      -0.128271805134827      -0.127313353218592     
 -0.127367585980576      -0.127464589448092      -0.127602978351501     
 -0.127792479443811      -0.128041120890406      -0.128350499145407     
 -0.128711174594087      -0.129101141227264      -0.129489692015786     
 -0.129846254191023      -0.130149352063224      -0.130390616223822     
 -0.130572707838624      -0.130704725796505      -0.130797559817689     
 -0.130860999163716      -0.130006333216870      -0.130059177800059     
 -0.130152784867648      -0.130286201537742      -0.130468867942400     
 -0.130708545664960      -0.131006780157290      -0.131354510733831     
 -0.131730512320796      -0.132105205562089      -0.132449151438432     
 -0.132741630890256      -0.132974511937679      -0.133150372552744     
 -0.133277906579950      -0.133367650925557      -0.133429015921937     
 -0.132712223922927      -0.132762954014164      -0.132851761247773     
 -0.132978174321866      -0.133151231362277      -0.133378298022423     
 -0.133660842636712      -0.133990298834031      -0.134346637862978     
 -0.134701756006329      -0.135027843536771      -0.135305205835119     
 -0.135526159081825      -0.135693090556190      -0.135814228941623     
 -0.135899501444664      -0.135957842312151      -0.135434672869166     
 -0.135482340499197      -0.135564555192987      -0.135681402536124     
 -0.135841343146233      -0.136051168206671      -0.136312288973287     
 -0.136616827120314      -0.136946205876334      -0.137274558705815     
 -0.137576139371144      -0.137832762311678      -0.138037279910114     
 -0.138191910020069      -0.138304170202556      -0.138383234653919     
 -0.138437399996076      -0.138149866407267      -0.138194716891075     
 -0.138271092637074      -0.138379557772705      -0.138527952291426     
 -0.138722650179610      -0.138964942459686      -0.139247535618560     
 -0.139553227747342      -0.139857996600422      -0.140137959040853     
 -0.140376281293462      -0.140566283940184      -0.140709994141890     
 -0.140814385952888      -0.140887931561578      -0.140938364044267     
 -0.140868096710870      -0.140909878010839      -0.140980112351008     
 -0.141079745244309      -0.141216037947829      -0.141394803940481     
 -0.141617277166138      -0.141876765925132      -0.142157490553365     
 -0.142437408519334      -0.142694602437593      -0.142913587280287     
 -0.143088247174963      -0.143220407665299      -0.143316434915872     
 -0.143384142223100      -0.143430563693499      -0.143603760889564     
 -0.143641368345198      -0.143703561074717      -0.143791656862090     
 -0.143912079532281      -0.144070069904138      -0.144266655456196     
 -0.144495953995710      -0.144744017414068      -0.144991405974357     
 -0.145218746779006      -0.145412408204540      -0.145566927194185     
 -0.145683892444763      -0.145768935921399      -0.145828912026809     
 -0.145870066627652     
 -8.676037737664677E-002 -8.669199059165457E-002 -8.646189383371597E-002
 -8.607157717608964E-002 -8.551320131629449E-002 -8.478002134607115E-002
 -8.387597082347333E-002 -8.282283098788150E-002 -8.168782805898603E-002
 -8.056088184942346E-002 -7.952855254937101E-002 -7.865034996920675E-002
 -7.794935068680113E-002 -7.741764571961038E-002 -7.702966395902879E-002
 -7.675465320072847E-002 -7.656360438743011E-002 -8.772907090628794E-002
 -8.763513570040056E-002 -8.736411441940242E-002 -8.692086162106480E-002
 -8.629212328160940E-002 -8.546644254025179E-002 -8.444655025381718E-002
 -8.325826223366513E-002 -8.197721091396853E-002 -8.070462495624334E-002
 -7.953903565495297E-002 -7.854845788734591E-002 -7.775877444432740E-002
 -7.716102840250742E-002 -7.672595682234959E-002 -7.641831134691890E-002
 -7.620562714460677E-002 -8.861604885942453E-002 -8.849592836546066E-002
 -8.818953934896877E-002 -8.770550679435608E-002 -8.702467471820349E-002
 -8.613074223453003E-002 -8.502422250888192E-002 -8.373506504647292E-002
 -8.234460626685347E-002 -8.096274492187698E-002 -7.969728118118702E-002
 -7.862254025482139E-002 -7.776720358415180E-002 -7.712092626441026E-002
 -7.665167965638980E-002 -7.632069102671890E-002 -7.609298615740263E-002
 -8.943436232452075E-002 -8.928830772422131E-002 -8.895157487655075E-002
 -8.843708694425940E-002 -8.771960070413821E-002 -8.677732411474245E-002
 -8.560891294755348E-002 -8.424749645112486E-002 -8.277831354431517E-002
 -8.131766730209986E-002 -7.998004634978234E-002 -7.884504342088680E-002
 -7.794297398836132E-002 -7.726279280969262E-002 -7.677000237265334E-002
 -7.642338645907686E-002 -7.618602729862936E-002 -9.023755469716355E-002
 -9.006417800915145E-002 -8.969755291733329E-002 -8.915459880461048E-002
 -8.840400546466722E-002 -8.741822069319799E-002 -8.619353537259353E-002
 -8.476646916312422E-002 -8.322567381358430E-002 -8.169303970628505E-002
 -8.028959429335121E-002 -7.909959904695006E-002 -7.815526734746084E-002
 -7.744449331741000E-002 -7.693074190189897E-002 -7.657037878619133E-002
 -7.632473035879243E-002 -9.101494795664947E-002 -9.081742838528624E-002
 -9.042512793144417E-002 -8.985827968608516E-002 -8.907961557525905E-002
 -8.805733302276272E-002 -8.678556355872989E-002 -8.530378835582537E-002
 -8.370302405193418E-002 -8.211023841064932E-002 -8.065150574560957E-002
 -7.941515748278288E-002 -7.843491166196957E-002 -7.769793667972451E-002
 -7.716597459078274E-002 -7.679352099223105E-002 -7.654055750507682E-002
 -9.176576137647544E-002 -9.155483680505107E-002 -9.114829894073091E-002
 -9.056333860483962E-002 -8.976095213894747E-002 -8.870783230743155E-002
 -8.739821975589743E-002 -8.587236702788999E-002 -8.422395760857759E-002
 -8.258357762832338E-002 -8.108063050345490E-002 -7.980607642488605E-002
 -7.879458495190289E-002 -7.803349193555548E-002 -7.748363355600002E-002
 -7.709823923853108E-002 -7.683630100233085E-002 -9.249003456254416E-002
 -9.227046501951905E-002 -9.185371135309724E-002 -9.125524662578022E-002
 -9.043471728009832E-002 -8.935818677581751E-002 -8.801922080902383E-002
 -8.645919602878578E-002 -8.477374217312714E-002 -8.309613760791894E-002
 -8.155893983511604E-002 -8.025463153070787E-002 -7.921906469852601E-002
 -7.843944068592178E-002 -7.787577352572045E-002 -7.748056691724579E-002
 -7.721173955060681E-002 -9.318641037223353E-002 -9.296248647338176E-002
 -9.253939654696645E-002 -9.193208590378113E-002 -9.109947526038510E-002
 -9.000688965645999E-002 -8.864789478809212E-002 -8.706434184858027E-002
 -8.535333741611484E-002 -8.364991839824623E-002 -8.208877382993385E-002
 -8.076387592144739E-002 -7.971162225398296E-002 -7.891917609255390E-002
 -7.834610231398044E-002 -7.794415350338954E-002 -7.767050993080675E-002
 -9.385210559920495E-002 -9.362376387396186E-002 -9.319724545349198E-002
 -9.258581084056054E-002 -9.174780978613710E-002 -9.064811817389952E-002
 -8.928041081540643E-002 -8.768628772221553E-002 -8.596374622195603E-002
 -8.424873179727184E-002 -8.267636751398608E-002 -8.134163814139395E-002
 -8.028097934302883E-002 -7.948196545757016E-002 -7.890374515662980E-002
 -7.849806589379126E-002 -7.822163339485078E-002 -9.448723331352150E-002
 -9.425604945444235E-002 -9.382939599129601E-002 -9.321869385843927E-002
 -9.238179287438558E-002 -9.128369829496838E-002 -8.991781592434976E-002
 -8.832589810344117E-002 -8.660539928302372E-002 -8.489212557998883E-002
 -8.332097696716030E-002 -8.198672268340293E-002 -8.092610548198657E-002
 -8.012663623102520E-002 -7.954786954425376E-002 -7.914141324001524E-002
 -7.886434090388869E-002 -9.509159374786841E-002 -9.485960016608207E-002
 -9.443634873080933E-002 -9.383108076746645E-002 -9.300195561532937E-002
 -9.191412815907010E-002 -9.056088239326535E-002 -8.898360279904173E-002
 -8.727856408315182E-002 -8.558043583233868E-002 -8.402280134067158E-002
 -8.269955206117846E-002 -8.164729381240365E-002 -8.085358310736968E-002
 -8.027881183228294E-002 -7.987495566526952E-002 -7.959951439071473E-002
 -9.566216641285463E-002 -9.543179389904261E-002 -9.501557798355359E-002
 -9.442119699336024E-002 -9.360701823559978E-002 -9.253886641292003E-002
 -9.120998743755905E-002 -8.966081940270064E-002 -8.798610966796570E-002
 -8.631777751505634E-002 -8.478718881625162E-002 -8.348643110748188E-002
 -8.245156219890001E-002 -8.167080085893630E-002 -8.110501594905295E-002
 -8.070732994061015E-002 -8.043579062638463E-002 -9.619836796776451E-002
 -9.597177074264228E-002 -9.556646745801725E-002 -9.498824609600329E-002
 -9.419646599658829E-002 -9.315758359805992E-002 -9.186492853990202E-002
 -9.035794175090320E-002 -8.872856950919235E-002 -8.710511299919024E-002
 -8.561531243332478E-002 -8.434889829049405E-002 -8.334083992664004E-002
 -8.258001836559853E-002 -8.202841631127081E-002 -8.164053395330870E-002
 -8.137546945636247E-002 -9.670483424994494E-002 -9.648403716207114E-002
 -9.609292483454934E-002 -9.553547863187967E-002 -9.477225546373516E-002
 -9.377082561084081E-002 -9.252473181208473E-002 -9.107183174112946E-002
 -8.950080874449406E-002 -8.793525232356328E-002 -8.649816561950302E-002
 -8.527611773250483E-002 -8.430308598565758E-002 -8.356829900589888E-002
 -8.303543186772729E-002 -8.266045890044722E-002 -8.240406152383377E-002
 -9.715692693715759E-002 -9.694496469359994E-002 -9.657390720048303E-002
 -9.604572366786045E-002 -9.532265068189147E-002 -9.437391281155919E-002
 -9.319337501062699E-002 -9.181682959083431E-002 -9.032796138260966E-002
 -8.884419432133266E-002 -8.748172398343894E-002 -8.632283911643306E-002
 -8.539964452419903E-002 -8.470216559277932E-002 -8.419602094901209E-002
 -8.383973239092551E-002 -8.359597053554310E-002 -9.754026502909321E-002
 -9.734109846817909E-002 -9.699758615577532E-002 -9.650937049518311E-002
 -9.584110103758685E-002 -9.496440262288398E-002 -9.387337869246598E-002
 -9.260094674292811E-002 -9.122472489108209E-002 -8.985278960142250E-002
 -8.859271470547206E-002 -8.752048374948809E-002 -8.666596115836564E-002
 -8.601988021846294E-002 -8.555083079312054E-002 -8.522048093393490E-002
 -8.499416540469502E-002 -9.795348829771261E-002 -9.776609243579434E-002
 -9.744697661950966E-002 -9.699378379182531E-002 -9.637375661755998E-002
 -9.556026308365947E-002 -9.454790899499775E-002 -9.336716836337632E-002
 -9.208991480686286E-002 -9.081651891321456E-002 -8.964677004151211E-002
 -8.865100366062995E-002 -8.785712794901052E-002 -8.725667295211785E-002
 -8.682049943204986E-002 -8.651320859456750E-002 -8.630248982946487E-002
 -9.835445287002520E-002 -9.817988077949294E-002 -9.788642520009191E-002
 -9.747013555657967E-002 -9.690067261034271E-002 -9.615374628021912E-002
 -9.522420085871112E-002 -9.413999583969161E-002 -9.296706236822172E-002
 -9.179749932127414E-002 -9.072288268616682E-002 -8.980791254850304E-002
 -8.907814246072124E-002 -8.852594487229903E-002 -8.812472045148959E-002
 -8.784182340961001E-002 -8.764786359650648E-002 -9.868214499132960E-002
 -9.852501220334825E-002 -9.826515636314388E-002 -9.789707145960092E-002
 -9.739391724231858E-002 -9.673379633847723E-002 -9.591241570127625E-002
 -9.495435251441950E-002 -9.391788525370928E-002 -9.288423770861449E-002
 -9.193435439812023E-002 -9.112519144875422E-002 -9.047957479562246E-002
 -8.999086649002845E-002 -8.963553485808806E-002 -8.938494059435521E-002
 -8.921298700005421E-002
  0.136072491107502       0.136044271321599       0.135939089615246     
  0.135748372628625       0.135452903829215       0.135022620777644     
  0.134449785204626       0.133771134720208       0.133028550220608     
  0.132280500275850       0.131586410742332       0.130989437787772     
  0.130508540777492       0.130141136124186       0.129871658703515     
  0.129679807507163       0.129546223537979       0.136273827949946     
  0.136232164231772       0.136103388088989       0.135880995420469     
  0.135543624618968       0.135060474522290       0.134423240599152     
  0.133667794541564       0.132840080224192       0.132005241110636     
  0.131229568463691       0.130561807754672       0.130023517211413     
  0.129611870523307       0.129309491582929       0.129093655202869     
  0.128942113866161       0.136412558813385       0.136357062361147     
  0.136207259539838       0.135959375637032       0.135590644916178     
  0.135071325145618       0.134392811583831       0.133587803576369     
  0.132704429230475       0.131812132435028       0.130982191113351     
  0.130266928268611       0.129689793927129       0.129248076475088     
  0.128923016781626       0.128690303070454       0.128525835183974     
  0.136496710233129       0.136427717638143       0.136259787211059     
  0.135992348521816       0.135601912663336       0.135061019949727     
  0.134361015928675       0.133529684656066       0.132616085974476     
  0.131691741084726       0.130830850588443       0.130088266088843     
  0.129488465715280       0.129028844774577       0.128690007334311     
  0.128446806527663       0.128273467016610       0.136558941559787     
  0.136476567518841       0.136291579246560       0.136006670581872     
  0.135598237366710       0.135041671222627       0.134328401012391     
  0.133480416254467       0.132546936199646       0.131601045309170     
  0.130718737115770       0.129956705587456       0.129340694403446     
  0.128867955291753       0.128518917359435       0.128267400360172     
  0.128086786089257       0.136594182540646       0.136501177271214     
  0.136303736511524       0.136007019937135       0.135587222047127     
  0.135022285837354       0.134303650446418       0.133448562286853     
  0.132506157294367       0.131549702943973       0.130656380279647     
  0.129884039398945       0.129258930256452       0.128778609789789     
  0.128423173014383       0.128166489117606       0.127980950949575     
  0.136603531541205       0.136507198685172       0.136308334912886     
  0.136010578574128       0.135589889220830       0.135023703573481     
  0.134303374678816       0.133446253370322       0.132501332281996     
  0.131541965257816       0.130645380552871       0.129869582396460     
  0.129241050413847       0.128757565936864       0.128399403940824     
  0.128140363073536       0.127952903947895       0.136588614031102     
  0.136491615214389       0.136294394409526       0.135999449666155     
  0.135582557799538       0.135021473792392       0.134307459323119     
  0.133457513081587       0.132519983401183       0.131567882535199     
  0.130677554491602       0.129906604422062       0.129281470294302     
  0.128800217820992       0.128443414134437       0.128185163092055     
  0.127997880872416       0.136550251771147       0.136455084212094     
  0.136262149671490       0.135973471305317       0.135565131138447     
  0.135015288507693       0.134315205091457       0.133481237778682     
  0.132560926194561       0.131625805978031       0.130750895877663     
  0.129992893192451       0.129377805430782       0.128903995738785     
  0.128552474760718       0.128297849852581       0.128112941547042     
  0.136489678652400       0.136396838073437       0.136209995503713     
  0.135930542574119       0.135535190057833       0.135002540803623     
  0.134323770398023       0.133514899138660       0.132621872562798     
  0.131713726868450       0.130863623164188       0.130126479424723     
  0.129528005724983       0.129066419132604       0.128723682578845     
  0.128475209628218       0.128294462614312       0.136410244758618     
  0.136320448776703       0.136141556094957       0.135874003280483     
  0.135495341196357       0.134984694519018       0.134333807596678     
  0.133557510993128       0.132699861223930       0.131827152322873     
  0.131009691037205       0.130300248044329       0.129723667224039     
  0.129278661366399       0.128947853532683       0.128707747876749     
  0.128532764295659       0.136314640043546       0.136228869827705     
  0.136059414478329       0.135806112918819       0.135447163089648     
  0.134962819414456       0.134345011477811       0.133607612280032     
  0.132792400513183       0.131962288745590       0.131184077009312     
  0.130508198171626       0.129958267220636       0.129533406576968     
  0.129217361272951       0.128987593025913       0.128819789782466     
  0.136203874004033       0.136123063789282       0.135964546269287     
  0.135727343606005       0.135391093973190       0.134936949371327     
  0.134357136818441       0.133664493435665       0.132898170447631     
  0.132117278773702       0.131384485482124       0.130747457670399     
  0.130228727513434       0.129827607944677       0.129528715468061     
  0.129311280849362       0.129152074848386       0.136080386094374     
  0.136005331813387       0.135858882147078       0.135639500771560     
  0.135328271370340       0.134907540954203       0.134369648738280     
  0.133726792542461       0.133014718520360       0.132288618468803     
  0.131606533269480       0.131013087645428       0.130529355209183     
  0.130154839407016       0.129875417016255       0.129671816522905     
  0.129522564682600       0.135951054219387       0.135882029977167     
  0.135748091953597       0.135547257536053       0.135261982878544     
  0.134875875265254       0.134381907936085       0.133790854029952     
  0.133135597285886       0.132466758024320       0.131838003939515     
  0.131290304184043       0.130843286860689       0.130496805059658     
  0.130238074147393       0.130049333382742       0.129910534202323     
  0.135801857908970       0.135739677967277       0.135619953149213     
  0.135440327592665       0.135184695185240       0.134838299233694     
  0.134394660910837       0.133863063411506       0.133273293113011     
  0.132670496006074       0.132103282861964       0.131608513197898     
  0.131204351277822       0.130890556323924       0.130656018883074     
  0.130484533421294       0.130358136186193       0.135629028564251     
  0.135574935144495       0.135471446133717       0.135315991551429     
  0.135094304873250       0.134793568138430       0.134407738255585     
  0.133944801487979       0.133430596208364       0.132904363341319     
  0.132408503382364       0.131975492108352       0.131621072380922     
  0.131345603565646       0.131139286193585       0.130988156173183     
  0.130876425931377       0.135495348233151       0.135447387050531     
  0.135356379132086       0.135219282103350       0.135023794277678     
  0.134758039705490       0.134416648478032       0.134006771768038     
  0.133550847876610       0.133083947829242       0.132643383816755     
  0.132258244596971       0.131942696995586       0.131697006510154     
  0.131512790576564       0.131377692520909       0.131277453872058     
  0.135373319186107       0.135330926755413       0.135250957196333     
  0.135130555870439       0.134958454470589       0.134724405293622     
  0.134423474166585       0.134061765830093       0.133659098616865     
  0.133246196193109       0.132856333876437       0.132515114261155     
  0.132235175071024       0.132017097566144       0.131853347325553     
  0.131733049843270       0.131643653210297       0.135232700143834     
  0.135196602135275       0.135129250025387       0.135027679478321     
  0.134882407064784       0.134684416750090       0.134429698043370     
  0.134123191779541       0.133781663086824       0.133431135851424     
  0.133099815138238       0.132809431075946       0.132570940931415     
  0.132384858201962       0.132244971503438       0.132142058181832     
  0.132065424245247     
  1.115849238423720E-002  2.541939597862329E-002  3.990855696691369E-002
  5.491220042421521E-002  7.042331596871561E-002  8.534506396877961E-002
  9.841007162255382E-002  0.109961939236103       0.119913441273602     
  0.128272327148600       0.135245374441019       0.141124035298422     
  0.146054345441306       0.149899185418891       0.152437607022093     
  0.153681135337793       2.046534555126218E-002  4.329251001362019E-002
  6.619430273358376E-002  8.995955409826804E-002  0.114669837442656     
  0.138979486930459       0.161186406335161       0.181180962786676     
  0.198590949484796       0.213240496876678       0.225096439262894     
  0.234196923772981       0.240734937097000       0.245090769106769     
  0.247688607900500       0.248935575035835       3.066193017513386E-002
  6.141679802831663E-002  9.164591042648454E-002  0.122745891761940     
  0.154933991643333       0.186900005259829       0.216797262444182     
  0.243974567945159       0.267592801973840       0.287086178469897     
  0.302231612108477       0.313206285438681       0.320601211769705     
  0.325251850628023       0.327929258738717       0.329235538746383     
  4.164451764104937E-002  8.003811077771779E-002  0.116972924596423     
  0.154566565692085       0.193207381623295       0.231763279029453     
  0.268398745493648       0.301867099277008       0.330855147987625     
  0.354482396045801       0.372471387914669       0.385215888303189     
  0.393639686976921       0.398862271569058       0.401870781253538     
  0.403383278068691       5.271505942988013E-002  9.836042800582494E-002
  0.141459965056451       0.184935730809505       0.229372850919588     
  0.273856548853927       0.316597268122198       0.355737439677117     
  0.389542348065678       0.416879343242378       0.437463418367832     
  0.451872095125893       0.461286203690488       0.467066251305387     
  0.470392017241271       0.472104706950580       6.239993066788593E-002
  0.114509491975020       0.163341629026457       0.212442462091003     
  0.262532397281235       0.312724909975631       0.361123270776861     
  0.405430223166413       0.443575709504491       0.474224280212004     
  0.497106267520810       0.512969040535219       0.523221007549685     
  0.529443303459306       0.532988957868810       0.534831823073543     
  7.017384083562699E-002  0.127840673046775       0.181945341148329     
  0.236403882111315       0.291979835484216       0.347663888116653     
  0.401331988159136       0.450402071198527       0.492516478889437     
  0.526192481330618       0.551154112522859       0.568296395663864     
  0.579238771286126       0.585774260927635       0.589439780399324     
  0.591333964419733       7.651941527239081E-002  0.139089844899952     
  0.197883637130766       0.257136534077445       0.317630786434003     
  0.378255394318508       0.436675324575265       0.490029592057785     
  0.535712223361361       0.572113877484568       0.598948414006173     
  0.617246267887108       0.628810616987255       0.635630144783274     
  0.639402648271492       0.641341740111023       8.172927695945323E-002
  0.148408265046837       0.211155259132337       0.274467184428661     
  0.339161324191888       0.404031176720032       0.466538014282692     
  0.523595567940637       0.572392037612388       0.611174429749805     
  0.639668395385925       0.658995346113620       0.671135089648227     
  0.678221739935455       0.682098495740966       0.684076782918911     
  8.603643225481823E-002  0.155853733378262       0.221666920359394     
  0.288171271170550       0.356214700151802       0.424488302146828     
  0.490305140839397       0.550389965286384       0.601766269540254     
  0.642552029660151       0.672478433883829       0.692722699206655     
  0.705398542375009       0.712761631268306       0.716762182597097     
  0.718796473265544       8.915009186902972E-002  0.161083457843732     
  0.229023125149656       0.297805620218391       0.368264755569713     
  0.439017735396918       0.507291619986513       0.569657930460523     
  0.623021257139911       0.665406388308600       0.696514692051226     
  0.717568660999287       0.730738137143069       0.738389786397726     
  0.742544356139273       0.744654936453426       9.087017145576727E-002
  0.163846381614479       0.232906286657273       0.302941876904206     
  0.374770601014537       0.446975598077901       0.516726310030532     
  0.580521511072735       0.635197902548041       0.678722874428335     
  0.710733689060274       0.732456530588358       0.746084374158130     
  0.754032214937356       0.758361431491462       0.760562221584845     
  9.108280080728269E-002  0.163934294092785       0.233009198159622     
  0.303144946653847       0.375162325418160       0.447641346703827     
  0.517729016912675       0.581965263197223       0.637163006178674     
  0.681284286380594       0.713878441662101       0.736113624527554     