 Title = "Wing and Tip"
 VARIABLES = "X" "Y" "Z" "GAM" "ageAzimuthal"
 Zone I=   17 J=   20 K=1  T="Blade"
 DATAPACKING=BLOCK
 VARLOCATION=([4,5]=CELLCENTERED)
  6.916006256144479E-002  6.914198177808070E-002  6.908114649194284E-002
  6.897795066352805E-002  6.883032165950610E-002  6.863647619345667E-002
  6.839745425886677E-002  6.811901459802404E-002  6.781893115241069E-002
  6.752097782297244E-002  6.724804026001061E-002  6.701585226340449E-002
  6.683051505000936E-002  6.668993756378240E-002  6.658735905884101E-002
  6.651464895930687E-002  6.646413755998309E-002  6.660297164344815E-002
  6.657813611260537E-002  6.650648079104980E-002  6.638928917540145E-002
  6.622305703406543E-002  6.600475528740446E-002  6.573510594670562E-002
  6.542093445481778E-002  6.508223727242685E-002  6.474577824724628E-002
  6.443760807006305E-002  6.417570919554559E-002  6.396692477526628E-002
  6.380888668808214E-002  6.369385810486138E-002  6.361251971185428E-002
  6.355628813162460E-002  6.402417315092895E-002  6.399241449128153E-002
  6.391140829347705E-002  6.378343491730375E-002  6.360342971194732E-002
  6.336708288585803E-002  6.307453011488454E-002  6.273368974927018E-002
  6.236606632650284E-002  6.200071597964147E-002  6.166613999755603E-002
  6.138198922391934E-002  6.115584674555256E-002  6.098497747289046E-002
  6.086091335341366E-002  6.077340326341998E-002  6.071320036875993E-002
  6.142732324485265E-002  6.138870786634575E-002  6.129967906244781E-002
  6.116365358840019E-002  6.097395738794607E-002  6.072482886284025E-002
  6.041591261247902E-002  6.005596767950822E-002  5.966753038327953E-002
  5.928135009596278E-002  5.892769646734462E-002  5.862761302173115E-002
  5.838911486758282E-002  5.820928175302416E-002  5.807899288015234E-002
  5.798735109227459E-002  5.792459569940156E-002  5.882637268113855E-002
  5.878053361535002E-002  5.868360160046256E-002  5.854004995243780E-002
  5.834160056524210E-002  5.808096891106346E-002  5.775717433622769E-002
  5.737987227439705E-002  5.697250136309485E-002  5.656728820278120E-002
  5.619623124378866E-002  5.588160837832078E-002  5.563193650261869E-002
  5.544401494351084E-002  5.530818419714846E-002  5.521290778624197E-002
  5.514796079392435E-002  5.621870388113491E-002  5.616648167796552E-002
  5.606276135363179E-002  5.591289233543240E-002  5.570702131659766E-002
  5.543674001340996E-002  5.510049686101203E-002  5.470873028738311E-002
  5.428550418311748E-002  5.386438755760779E-002  5.347871320099601E-002
  5.315183506064793E-002  5.289266784973669E-002  5.269781902038803E-002
  5.255717355373626E-002  5.245870053984428E-002  5.239181951874122E-002
  5.360390484510556E-002  5.354813849371897E-002  5.344065394016247E-002
  5.328599626600817E-002  5.307385329327345E-002  5.279541892130889E-002
  5.244917043429796E-002  5.204575020298226E-002  5.160992720575866E-002
  5.117622711207782E-002  5.077886289360475E-002  5.044188351691745E-002
  5.017445526744443E-002  4.997322987060768E-002  4.982785280334590E-002
  4.972595839253714E-002  4.965670453736574E-002  5.098219162789693E-002
  5.092413963230720E-002  5.081395412264196E-002  5.065572602218575E-002
  5.043878625312372E-002  5.015416233294875E-002  4.980015309592793E-002
  4.938769811508351E-002  4.894208093864087E-002  4.849853903624760E-002
  4.809211928832601E-002  4.774727319131212E-002  4.747347965716989E-002
  4.726735484988614E-002  4.711832687885090E-002  4.701383819623945E-002
  4.694276292374239E-002  4.835310262282546E-002  4.829389937901711E-002
  4.818203862545362E-002  4.802147175313547E-002  4.780133780954479E-002
  4.751246908127429E-002  4.715316440259152E-002  4.673448881127606E-002
  4.628211631735368E-002  4.583174933133807E-002  4.541899828970362E-002
  4.506870850688217E-002  4.479050314004741E-002  4.458098828459553E-002
  4.442947329755306E-002  4.432320204399814E-002  4.425085341472125E-002
  4.571579918619398E-002  4.565542791318332E-002  4.554266070001263E-002
  4.538100349125612E-002  4.515944437679291E-002  4.486869689085175E-002
  4.450708871674181E-002  4.408561848229749E-002  4.363019570280475E-002
  4.317676300696410E-002  4.276104558467805E-002  4.240815646087753E-002
  4.212772886132660E-002  4.191647756519603E-002  4.176360188900822E-002
  4.165634434111370E-002  4.158325834754493E-002  4.307051679604059E-002
  4.300939409121176E-002  4.289659117410519E-002  4.273512762576934E-002
  4.251385935893214E-002  4.222353411252804E-002  4.186240844699629E-002
  4.144152126453183E-002  4.098663854920084E-002  4.053366608279000E-002
  4.011827007163863E-002  3.976550655658409E-002  3.948508995485125E-002
  3.927371826462665E-002  3.912069812947895E-002  3.901323513959412E-002
  3.893997997945987E-002  4.041699705243917E-002  4.035566026500868E-002
  4.024375681011528E-002  4.008373000195893E-002  3.986451758746744E-002
  3.957690686594755E-002  3.921912219259890E-002  3.880210521116181E-002
  3.835130999315615E-002  3.790234183314159E-002  3.749051882073690E-002
  3.714066491896575E-002  3.686245834087826E-002  3.665260915271914E-002
  3.650064536454181E-002  3.639386982498651E-002  3.632104590125183E-002
  3.775464695158499E-002  3.769373875834660E-002  3.758369542466036E-002
  3.742654702353900E-002  3.721128628653644E-002  3.692887760614660E-002
  3.657753526897968E-002  3.616795070324928E-002  3.572517416513885E-002
  3.528408379600652E-002  3.487941142128334E-002  3.453550406631661E-002
  3.426189505620810E-002  3.405546955092222E-002  3.390588166800911E-002
  3.380073745679366E-002  3.372894517242347E-002  3.508320947229462E-002
  3.502329942770348E-002  3.491614128469590E-002  3.476326532797086E-002
  3.455392657266781E-002  3.427925643587688E-002  3.393749134085713E-002
  3.353905907550932E-002  3.310826931802793E-002  3.267904362096404E-002
  3.228515522147153E-002  3.195032796254649E-002  3.168380739286033E-002
  3.148265376609689E-002  3.133681568862959E-002  3.123426346474842E-002
  3.116418305743957E-002  3.240380749196956E-002  3.234543094577438E-002
  3.224202475018059E-002  3.209464153822373E-002  3.189285295051352E-002
  3.162808489296395E-002  3.129863013018892E-002  3.091449785323671E-002
  3.049913505375312E-002  3.008521756232226E-002  2.970526618173901E-002
  2.938216891802405E-002  2.912490903626386E-002  2.893063869293302E-002
  2.878975394029877E-002  2.869061483046154E-002  2.862282592325997E-002
  2.971013246757460E-002  2.965409176603313E-002  2.955598786848342E-002
  2.941634141440777E-002  2.922516813411443E-002  2.897433131082073E-002
  2.866220889953730E-002  2.829826403023469E-002  2.790462213679665E-002
  2.751232893569538E-002  2.715210537755988E-002  2.684570778588245E-002
  2.660162435036324E-002  2.641721788263118E-002  2.628339829079276E-002
  2.618919915225165E-002  2.612475095074507E-002  2.699817662272642E-002
  2.694551897195878E-002  2.685469774525308E-002  2.672561839761146E-002
  2.654893462321049E-002  2.631714431293877E-002  2.602868847555601E-002
  2.569227016860286E-002  2.532841084743604E-002  2.496568485052577E-002
  2.463253362520175E-002  2.434904646268130E-002  2.412311921882127E-002
  2.395230186702824E-002  2.382828988068353E-002  2.374094867523047E-002
  2.368111310821922E-002  2.429422491202170E-002  2.424467931658209E-002
  2.416030827994162E-002  2.404048861974863E-002  2.387655962354013E-002
  2.366148005288658E-002  2.339382373643816E-002  2.308164769874532E-002
  2.274395460703348E-002  2.240728144287910E-002  2.209801151679647E-002
  2.183474082471847E-002  2.162484801046514E-002  2.146609370259854E-002
  2.135077377746450E-002  2.126952914719134E-002  2.121381720894167E-002
  2.158692933265058E-002  2.154077421436734E-002  2.146318748823709E-002
  2.135312466159768E-002  2.120256434258383E-002  2.100508447618325E-002
  2.075932194479348E-002  2.047266895952243E-002  2.016255705704825E-002
  1.985333626117617E-002  1.956921834890751E-002  1.932730937708609E-002
  1.913436544991926E-002  1.898836991918126E-002  1.888229018705415E-002
  1.880749503285701E-002  1.875621399424034E-002  1.886036404030665E-002
  1.881881969955103E-002  1.875011640909612E-002  1.865279843455959E-002
  1.851976948163518E-002  1.834524010351359E-002  1.812807526147087E-002
  1.787477291756662E-002  1.760074131910924E-002  1.732745522531585E-002
  1.707631555907622E-002  1.686238095174922E-002  1.669168635274421E-002
  1.656247675468157E-002  1.646853061786244E-002  1.640227599578410E-002
  1.635681318176863E-002
 -7.494017010625718E-002 -7.500812397999931E-002 -7.523676414840637E-002
 -7.562460997088240E-002 -7.617945112449862E-002 -7.690798981998634E-002
 -7.780631740003184E-002 -7.885279050779360E-002 -7.998060848806463E-002
 -8.110042075073401E-002 -8.212621506061522E-002 -8.299885832435845E-002
 -8.369542004655899E-002 -8.422375914325264E-002 -8.460928484936389E-002
 -8.488255469746976E-002 -8.507239410780255E-002 -7.390689031695850E-002
 -7.400023088153598E-002 -7.426953650706711E-002 -7.470998336675666E-002
 -7.533474158197410E-002 -7.615519548773882E-002 -7.716863151446331E-002
 -7.834939727351935E-002 -7.962233910936954E-002 -8.088686917182449E-002
 -8.204507990251024E-002 -8.302938698112834E-002 -8.381407146350693E-002
 -8.440803357271159E-002 -8.484035100407217E-002 -8.514604898062042E-002
 -8.535738682070923E-002 -7.295480623321896E-002 -7.307416632423065E-002
 -7.337861579564582E-002 -7.385958426209739E-002 -7.453610644321385E-002
 -7.542438003490953E-002 -7.652389512014797E-002 -7.780489178411269E-002
 -7.918654849402651E-002 -8.055966219393769E-002 -8.181711512537637E-002
 -8.288505258177385E-002 -8.373497468488672E-002 -8.437716085277179E-002
 -8.484343697262434E-002 -8.517233033342943E-002 -8.539859375467009E-002
 -7.207095455229809E-002 -7.221608457806759E-002 -7.255068579404864E-002
 -7.306191684543928E-002 -7.377486115739205E-002 -7.471117282043163E-002
 -7.587218755366006E-002 -7.722498582776118E-002 -7.868486831477735E-002
 -8.013626817714473E-002 -8.146542154089748E-002 -8.259323952116848E-002
 -8.348959855210510E-002 -8.416547395613688E-002 -8.465514486468635E-002
 -8.499956658345674E-002 -8.523542318093287E-002 -7.120212565826974E-002
 -7.137440481378741E-002 -7.173870904600071E-002 -7.227822607736770E-002
 -7.302406791011394E-002 -7.400361233386452E-002 -7.522054498627240E-002
 -7.663857738874646E-002 -7.816961898774887E-002 -7.969255100790754E-002
 -8.108711214139797E-002 -8.226957431938904E-002 -8.320792808298705E-002
 -8.391420267540697E-002 -8.442470187241505E-002 -8.478278376892326E-002
 -8.502687715951512E-002 -7.035893514435489E-002 -7.055520435068686E-002
 -7.094502141128424E-002 -7.150828131742641E-002 -7.228201622367562E-002
 -7.329782738527718E-002 -7.456154612271838E-002 -7.603394119237834E-002
 -7.762457212216908E-002 -7.920727489695965E-002 -8.065677329573584E-002
 -8.188529506003615E-002 -8.285933559654342E-002 -8.359164528035611E-002
 -8.412023987113360E-002 -8.449033571368102E-002 -8.474169785725033E-002
 -6.954215362683167E-002 -6.975174297508549E-002 -7.015570731858506E-002
 -7.073696465966120E-002 -7.153427175052454E-002 -7.258072498084303E-002
 -7.388204724636875E-002 -7.539824081563719E-002 -7.703621525131338E-002
 -7.866621107696978E-002 -8.015964404323757E-002 -8.142612976767209E-002
 -8.243121816090750E-002 -8.318749320359015E-002 -8.373387079546885E-002
 -8.411682543784908E-002 -8.437710551729753E-002 -6.875174691848045E-002
 -6.896992651276962E-002 -6.938404198892234E-002 -6.997871823410437E-002
 -7.079405335425286E-002 -7.186376905993802E-002 -7.319425892377503E-002
 -7.474440822473992E-002 -7.641919259307520E-002 -7.808617735959686E-002
 -7.961364415572819E-002 -8.090969575178864E-002 -8.193870709913671E-002
 -8.271339583066413E-002 -8.327349478898297E-002 -8.366619960728122E-002
 -8.393332520666551E-002 -6.798906098677386E-002 -6.821156737235924E-002
 -6.863197899785793E-002 -6.923544516129831E-002 -7.006278510050076E-002
 -7.114845427167288E-002 -7.249884624742987E-002 -7.407237476654170E-002
 -7.577254796797604E-002 -7.746518377302822E-002 -7.901644577343440E-002
 -8.033295663448402E-002 -8.137854918385921E-002 -8.216597889571586E-002
 -8.273542492536240E-002 -8.313482926537956E-002 -8.340674058251142E-002
 -6.725685883544053E-002 -6.748375508109686E-002 -6.790757349713461E-002
 -6.851513752421162E-002 -6.934783375133453E-002 -7.044056394740697E-002
 -7.179961326030909E-002 -7.338364502048722E-002 -7.509528225621308E-002
 -7.679944006527288E-002 -7.836185075609908E-002 -7.968813084479458E-002
 -8.074207531777722E-002 -8.153603117777089E-002 -8.211059115057445E-002
 -8.251370232782718E-002 -8.278838491647894E-002 -6.655503327815257E-002
 -6.678475366598602E-002 -6.720870626983479E-002 -6.781554245368139E-002
 -6.864714557424836E-002 -6.973828884725282E-002 -7.109552472506495E-002
 -7.267736517307287E-002 -7.438697265980410E-002 -7.608940076656544E-002
 -7.765060348253552E-002 -7.897641148986773E-002 -8.003031462922446E-002
 -8.082472297210452E-002 -8.139982587193387E-002 -8.180370917165432E-002
 -8.207902754710833E-002 -6.588377764966699E-002 -6.611430263439164E-002
 -6.653487474634256E-002 -6.713631116078803E-002 -6.796018767305839E-002
 -6.904112881723265E-002 -7.038580808417114E-002 -7.195310297037100E-002
 -7.364734822021364E-002 -7.533472675053754E-002 -7.688250089425877E-002
 -7.819737356268902E-002 -7.924297066437340E-002 -8.003165691485038E-002
 -8.060278969528906E-002 -8.100408931752373E-002 -8.127778695657192E-002
 -6.524609848662927E-002 -6.547501266528254E-002 -6.588859379464622E-002
 -6.647921215412779E-002 -6.728823688770331E-002 -6.834962695164747E-002
 -6.967009367808537E-002 -7.120945496050493E-002 -7.287356322179962E-002
 -7.453133427349753E-002 -7.605223383328209E-002 -7.734475731016351E-002
 -7.837307515200163E-002 -7.914889401122566E-002 -7.971109731316192E-002
 -8.010626583599600E-002 -8.037608621543066E-002 -6.464257285303086E-002
 -6.486773564183620E-002 -6.527047322094327E-002 -6.584503424810373E-002
 -6.663180211434140E-002 -6.766410803939107E-002 -6.894858015815226E-002
 -7.044602721612377E-002 -7.206508498590765E-002 -7.367826447254568E-002
 -7.515863410193166E-002 -7.641703141914698E-002 -7.741870843598375E-002
 -7.817471374176338E-002 -7.872282397036925E-002 -7.910825090311319E-002
 -7.937163745303015E-002 -6.406859167394616E-002 -6.428799104231421E-002
 -6.467662749782872E-002 -6.523054487936041E-002 -6.598893658926601E-002
 -6.698402705583704E-002 -6.822223266356095E-002 -6.966593539052636E-002
 -7.122701328549577E-002 -7.278265921001552E-002 -7.421064867399413E-002
 -7.542496058863370E-002 -7.639183271867891E-002 -7.712196825079361E-002
 -7.765146216153641E-002 -7.802406142436429E-002 -7.827883571972269E-002
 -6.354864247074635E-002 -6.375926292232165E-002 -6.412797149724898E-002
 -6.465281145123417E-002 -6.537130714306263E-002 -6.631403918496674E-002
 -6.748710378628556E-002 -6.885493521259985E-002 -7.033437838648092E-002
 -7.180875270538291E-002 -7.316259814977973E-002 -7.431414688749528E-002
 -7.523149734880524E-002 -7.592456100502040E-002 -7.642750158369740E-002
 -7.678153471589877E-002 -7.702375347710677E-002 -6.309701003922996E-002
 -6.329491580911727E-002 -6.363625357354973E-002 -6.412137866551908E-002
 -6.478541775366163E-002 -6.565656637381452E-002 -6.674068375739595E-002
 -6.800506078658690E-002 -6.937257069324772E-002 -7.073582117309626E-002
 -7.198791937298707E-002 -7.305336274795572E-002 -7.390247592491771E-002
 -7.454446695611425E-002 -7.501054714152092E-002 -7.533880577547199E-002
 -7.556368865162406E-002 -6.261568419818736E-002 -6.280189378154527E-002
 -6.311898948784903E-002 -6.356931345317075E-002 -6.418541564779125E-002
 -6.499375949520307E-002 -6.599970504347094E-002 -6.717297119149312E-002
 -6.844213930527282E-002 -6.970747417648547E-002 -7.086981814610968E-002
 -7.185928099234321E-002 -7.264813120485852E-002 -7.324478512054315E-002
 -7.367819751616521E-002 -7.398354309974209E-002 -7.419292794449713E-002
 -6.214653686781708E-002 -6.232000385855639E-002 -6.261160176586866E-002
 -6.302525615653227E-002 -6.359111421162054E-002 -6.433331224794704E-002
 -6.525697333565481E-002 -6.633431497383058E-002 -6.749982338363929E-002
 -6.866198270484149E-002 -6.972979665678579E-002 -7.063897472707728E-002
 -7.136412512582110E-002 -7.191282711859115E-002 -7.231151165445671E-002
 -7.259261786332590E-002 -7.278534984586002E-002 -6.175020073328500E-002
 -6.190633881809839E-002 -6.216454968381506E-002 -6.253030448665581E-002
 -6.303027356924870E-002 -6.368621568671054E-002 -6.450239670941771E-002
 -6.545439503546985E-002 -6.648430111133224E-002 -6.751140532132334E-002
 -6.845527555236953E-002 -6.925931622929733E-002 -6.990084591281331E-002
 -7.038646053117648E-002 -7.073954279489499E-002 -7.098855071302060E-002
 -7.115941578348647E-002
  4.606156154963135E-002  4.603334176372857E-002  4.592816005737550E-002
  4.573744307075506E-002  4.544197427134421E-002  4.501169121977330E-002
  4.443885564675570E-002  4.376020516233738E-002  4.301762066273724E-002
  4.226957071797986E-002  4.157548118446130E-002  4.097850822990156E-002
  4.049761121962193E-002  4.013020656631573E-002  3.986072914564504E-002
  3.966887794929244E-002  3.953529398010863E-002  4.626289839207541E-002
  4.622123467390132E-002  4.609245853111819E-002  4.587006586259838E-002
  4.553269506109806E-002  4.504954496441952E-002  4.441231104128172E-002
  4.365686498369360E-002  4.282915066632124E-002  4.199431155276573E-002
  4.121863890582039E-002  4.055087819680210E-002  4.001258765354233E-002
  3.960094096543674E-002  3.929856202505882E-002  3.908272564499875E-002
  3.893118430829028E-002  4.640162925551514E-002  4.634613280327676E-002
  4.619632998196738E-002  4.594844607916169E-002  4.557971535830727E-002
  4.506039558774810E-002  4.438188202596103E-002  4.357687401849835E-002
  4.269349967260461E-002  4.180120287715802E-002  4.097126155548041E-002
  4.025599871074071E-002  3.967886436925828E-002  3.923714691721814E-002
  3.891208722375569E-002  3.867937351258321E-002  3.851490562610416E-002
  4.648578067525903E-002  4.641678808027244E-002  4.624885765318902E-002
  4.598141896394572E-002  4.559098310546525E-002  4.505009039185694E-002
  4.435008637080472E-002  4.351875509819533E-002  4.260515641660602E-002
  4.168081152685572E-002  4.081992103057297E-002  4.007733653097287E-002
  3.947753615740985E-002  3.901791521670665E-002  3.867907777644050E-002
  3.843587696979320E-002  3.826253745873944E-002  4.654801200191621E-002
  4.646563796097072E-002  4.628064968868999E-002  4.599574102400166E-002
  4.558730780883963E-002  4.503074166475699E-002  4.431747145452087E-002
  4.346948669659649E-002  4.253600664177547E-002  4.159011575129992E-002
  4.070780755789997E-002  3.994577602958543E-002  3.932976484557577E-002
  3.885702573388228E-002  3.850798780156472E-002  3.825647080230211E-002
  3.807585653138711E-002  4.658325298277523E-002  4.649024771334399E-002
  4.629280695365332E-002  4.599609037926481E-002  4.557629248925665E-002
  4.501135627948332E-002  4.429272088854744E-002  4.343763272898261E-002
  4.249522773649717E-002  4.153877338610214E-002  4.064545072177705E-002
  3.987310984107512E-002  3.924800069858177E-002  3.876768023191830E-002
  3.841224345651230E-002  3.815555955973603E-002  3.797002139170468E-002
  4.659260198333517E-002  4.649626912730157E-002  4.629740535501595E-002
  4.599964901625807E-002  4.557895966296013E-002  4.501277401561063E-002
  4.429244512094529E-002  4.343532381245147E-002  4.249040272412582E-002
  4.153103569994604E-002  4.063445099500065E-002  3.985865283858957E-002
  3.923012085597663E-002  3.874663637899379E-002  3.838847438295408E-002
  3.812943351566601E-002  3.794197439002484E-002  4.657768447323191E-002
  4.648068565651824E-002  4.628346485165610E-002  4.598852010828479E-002
  4.557162824166740E-002  4.501054423452165E-002  4.429652976524873E-002
  4.344658352371672E-002  4.250905384331228E-002  4.155695297732911E-002
  4.066662493373185E-002  3.989567486419194E-002  3.927054073643155E-002
  3.878928826312188E-002  3.843248457656671E-002  3.817423353418455E-002
  3.798695131454535E-002  4.653932221327693E-002  4.644415465422323E-002
  4.625122011362000E-002  4.596254174744665E-002  4.555420158057628E-002
  4.500435894982272E-002  4.430427553358717E-002  4.347030822081164E-002
  4.254999663669053E-002  4.161487642016074E-002  4.073996631979317E-002
  3.998196363458084E-002  3.936687587291137E-002  3.889306618091434E-002
  3.854154520284734E-002  3.828692029471115E-002  3.810201198917185E-002
  4.647874909452943E-002  4.638590851556639E-002  4.619906594584310E-002
  4.591961301624842E-002  4.552426049996228E-002  4.499161124575236E-002
  4.431284084015290E-002  4.350396958078985E-002  4.261094300492783E-002
  4.170279731057949E-002  4.085269360631758E-002  4.011554986685226E-002
  3.951707616711275E-002  3.905548957473327E-002  3.871275302097509E-002
  3.846428007034729E-002  3.828353305644207E-002  4.639931520074728E-002
  4.630951921883236E-002  4.613062653708692E-002  4.586307372261242E-002
  4.548441163848715E-002  4.497376496114788E-002  4.432287803880727E-002
  4.354658143525762E-002  4.268893166605928E-002  4.181622276500310E-002
  4.099876147933463E-002  4.028931848645906E-002  3.971273766616880E-002
  3.926773180852876E-002  3.893692397481315E-002  3.869681831887857E-002
  3.852183473778853E-002  4.630371048567541E-002  4.621794026983445E-002
  4.604848492045868E-002  4.579518336094901E-002  4.543623353177747E-002
  4.495188985658599E-002  4.433408191994029E-002  4.359668272216133E-002
  4.278147095531223E-002  4.195135918771989E-002  4.117314745144136E-002
  4.049726861375609E-002  3.994733766276523E-002  3.952247701909745E-002
  3.920643171508054E-002  3.897666346804243E-002  3.880886022459566E-002
  4.619294444616231E-002  4.611213423141192E-002  4.595361671141682E-002
  4.571641404813438E-002  4.538016441531940E-002  4.492601981345672E-002
  4.434620726057045E-002  4.365356387779484E-002  4.288724088976054E-002
  4.210634921583145E-002  4.137355592425317E-002  4.073652811252883E-002
  4.021779795556366E-002  3.981667838680701E-002  3.951778591019112E-002
  3.930035129149122E-002  3.914114529051576E-002  4.606945653650373E-002
  4.599440225551669E-002  4.584795258920723E-002  4.562857121368982E-002
  4.531734181246973E-002  4.489661139633309E-002  4.435871918040937E-002
  4.371586298459069E-002  4.300378896248924E-002  4.227768891093294E-002
  4.159560371160921E-002  4.100215808755727E-002  4.051842565131264E-002
  4.014390984914538E-002  3.986448745838513E-002  3.966088696503448E-002
  3.951163512472992E-002  4.594012466151665E-002  4.587110041929663E-002
  4.573716239572632E-002  4.553632797818274E-002  4.525105332067390E-002
  4.486494570738329E-002  4.437097837821492E-002  4.377992447208125E-002
  4.312466772801597E-002  4.245582846644962E-002  4.182707438164456E-002
  4.127937462617242E-002  4.083235730281824E-002  4.048587550178741E-002
  4.022714458952229E-002  4.003840382487201E-002  3.989960464445274E-002
  4.579092835109976E-002  4.572874840940640E-002  4.560902359134228E-002
  4.542939803479456E-002  4.517376562737014E-002  4.482736967582369E-002
  4.438373135296672E-002  4.385213385363600E-002  4.326236355514068E-002
  4.265956644820344E-002  4.209235330409414E-002  4.159758364002773E-002
  4.119342171995196E-002  4.087962676605367E-002  4.064508932520406E-002
  4.047360386342413E-002  4.034720662832261E-002  4.561809900638086E-002
  4.556400558662446E-002  4.546051657584642E-002  4.530506199355871E-002
  4.508337531537929E-002  4.478263858056002E-002  4.439680869771463E-002
  4.393387193010875E-002  4.341966665049342E-002  4.289343378344913E-002
  4.239757382449356E-002  4.196456255048131E-002  4.161014282305146E-002
  4.133467400777534E-002  4.112835663571447E-002  4.097722661531307E-002
  4.086549637350704E-002  4.548441867528080E-002  4.543645749266100E-002
  4.534544957421529E-002  4.520835254547971E-002  4.501286471980786E-002
  4.474711014761976E-002  4.440571892016132E-002  4.399584221016770E-002
  4.353991831873939E-002  4.307301827137195E-002  4.263245425888449E-002
  4.224731503910027E-002  4.193176743771571E-002  4.168607695228362E-002
  4.150186101869360E-002  4.136676296303864E-002  4.126652431418801E-002
  4.536238962823645E-002  4.531999719754252E-002  4.524002763846238E-002
  4.511962631256908E-002  4.494752491271899E-002  4.471347573575164E-002
  4.441254460871517E-002  4.405083627222280E-002  4.364816905899432E-002
  4.323526663523895E-002  4.284540431856700E-002  4.250418470328429E-002
  4.222424551315380E-002  4.200616800827365E-002  4.184241776768308E-002
  4.172212028539927E-002  4.163272365242639E-002  4.522177058596412E-002
  4.518567257740484E-002  4.511832046751639E-002  4.501674992045042E-002
  4.487147750691348E-002  4.467348719222015E-002  4.441876848549987E-002
  4.411226222167092E-002  4.377073352895412E-002  4.342020629355332E-002
  4.308888558036738E-002  4.279850151807559E-002  4.256001137354451E-002
  4.237392864409218E-002  4.223404194556744E-002  4.213112862396150E-002
  4.205449468737645E-002
 -2.502162694718083E-002 -5.577980589780300E-002 -8.506668297707057E-002
 -0.112744217297330      -0.138445945935056      -0.161255613104628     
 -0.180401813043594      -0.196104915230068      -0.208595459814488     
 -0.218399491672299      -0.226290654461839      -0.232982689034206     
 -0.238783512520689      -0.243464320523886      -0.246608400116460     
 -0.248149790685974      -3.907654387956218E-002 -8.155923276268534E-002
 -0.122435653289529      -0.162483549502938      -0.201372178356043     
 -0.237461150009641      -0.269004520487801      -0.295580774231781     
 -0.317129652237296      -0.334127474095778      -0.347178886334928     
 -0.356730407242300      -0.363233140091750      -0.367311453413139     
 -0.369599663675793      -0.370636801545075      -5.198432392680086E-002
 -0.103109600078850      -0.151894129062936      -0.200142076228927     
 -0.247775138570813      -0.293020870851909      -0.333636033073258     
 -0.368466365649314      -0.396823331120966      -0.418701760042297     
 -0.434539052558319      -0.445106101713897      -0.451521638612451     
 -0.455070987168842      -0.456851357372858      -0.457633846414575     
 -6.417809554205781E-002 -0.122387936396665      -0.177193769929582     
 -0.231463819706903      -0.285400324065969      -0.337309253070855     
 -0.384758395224887      -0.425930175252022      -0.459517516150247     
 -0.485115336964751      -0.503151133375624      -0.514758785811550     
 -0.521533560165918      -0.525126184883376      -0.526874446805039     
 -0.527669483831601      -7.504410039114578E-002 -0.139107711133853     
 -0.198630194000756      -0.257517872873476      -0.316257548362479     
 -0.373322036505737      -0.426196039100265      -0.472463778662354     
 -0.510321385759980      -0.539056793040679      -0.559106322318840     
 -0.571851504174375      -0.579193659189746      -0.583034994015600     
 -0.584895698987567      -0.585780538416187      -8.308862603693452E-002
 -0.151624715402745      -0.215026166395888      -0.277830519732590     
 -0.340697575125776      -0.402156731744648      -0.459569784912868     
 -0.510099236314797      -0.551582076348354      -0.583067977191448     
 -0.604986922972128      -0.618884313560017      -0.626873447550232     
 -0.631045666129000      -0.633063285753528      -0.634044049690937     
 -8.823153940353318E-002 -0.159987146693904      -0.226593544897065     
 -0.292812452979548      -0.359338742394283      -0.424637021886789     
 -0.485917372184938      -0.540107290201197      -0.584756121601743     
 -0.618730395142889      -0.642415221110618      -0.657455460477706     
 -0.666117432771065      -0.670643204828346      -0.672828144477918     
 -0.673888473992650      -9.143996475539139E-002 -0.165575614373705     
 -0.234634673240146      -0.303542278246887      -0.373011665993642     
 -0.441470407697018      -0.506014300812287      -0.563358988463320     
 -0.610789404679411      -0.647007576055531      -0.672342243182904     
 -0.688506557647581      -0.697874216600643      -0.702809648254647     
 -0.705212976774361      -0.706383097550559      -9.337487960973397E-002
 -0.169031816160959      -0.239751862556318      -0.310569215074939     
 -0.382250410861844      -0.453232337890146      -0.520461377580007     
 -0.580431239060755      -0.630244184634514      -0.668436386809345     
 -0.695288630847211      -0.712529003278670      -0.722620822032543     
 -0.728001010981823      -0.730657985249791      -0.731955486356935     
 -9.459135643595742E-002 -0.170945366328024      -0.242576481247730     
 -0.314576968705920      -0.387747030893338      -0.460483312102668     
 -0.529678787821197      -0.591689430142562      -0.643445264858971     
 -0.683320338909425      -0.711534137099875      -0.729789861246671     
 -0.740599169660198      -0.746450722715767      -0.749390903083075     
 -0.750838371099411      -9.499425665114287E-002 -0.171340950804141     
 -0.243214996430539      -0.315724698561429      -0.389660143471896     
 -0.463406829587342      -0.533857375629428      -0.597285812099392     
 -0.650504303289356      -0.691746881947462      -0.721130963733791     
 -0.740321656907914      -0.751812614462002      -0.758141688149832     
 -0.761386420695044      -0.762999324681532      -9.451179449775525E-002
 -0.170190500512041      -0.241656577783560      -0.313974369859004     
 -0.387925444348770      -0.461921975839972      -0.532875275776372     
 -0.597044686601233      -0.651183229806833      -0.693423823254692     
 -0.723749936587684      -0.743751454693115      -0.755880307568199     
 -0.762676241048259      -0.766228072795904      -0.768009331691230     
 -9.311400096472251E-002 -0.167424169420662      -0.237787136724003     
 -0.309144309267036      -0.382288493314899      -0.455677717631339     
 -0.526264888573855      -0.590396602300619      -0.644813992956706     
 -0.687605309670192      -0.718602246550888      -0.739269081150362     