 Title = "Wing and Tip"
 VARIABLES = "X" "Y" "Z" "GAM" "ageAzimuthal"
 Zone I=   17 J=   20 K=1  T="Blade"
 DATAPACKING=BLOCK
 VARLOCATION=([4,5]=CELLCENTERED)
  6.831752280471751E-002  6.835240546961469E-002  6.846977300052032E-002
  6.866886534231340E-002  6.895368115879258E-002  6.932766088621481E-002
  6.978879809910707E-002  7.032598264403152E-002  7.090492383611377E-002
  7.147975546462010E-002  7.200632499178017E-002  7.245427771128943E-002
  7.281184274471149E-002  7.308305429818386E-002  7.328095565795903E-002
  7.342123287856561E-002  7.351868287177796E-002  6.577202737395048E-002
  6.581994175257484E-002  6.595818402447226E-002  6.618427798152753E-002
  6.650498422332224E-002  6.692614665428270E-002  6.744637232161058E-002
  6.805249312131051E-002  6.870593053478494E-002  6.935504994464359E-002
  6.994959260386288E-002  7.045486554988652E-002  7.085766651385722E-002
  7.116256423456220E-002  7.138448512379078E-002  7.154140862922860E-002
  7.164989438066502E-002  6.326813838950403E-002  6.332940933444911E-002
  6.348569194653128E-002  6.373258680207745E-002  6.407986496651273E-002
  6.453584117993313E-002  6.510025368735514E-002  6.575782587423470E-002
  6.646706973865124E-002  6.717192823195170E-002  6.781741474825931E-002
  6.836561755659501E-002  6.880190685518808E-002  6.913155936301987E-002
  6.937091221728284E-002  6.953974257617332E-002  6.965589005485279E-002
  6.079934867606745E-002  6.087384806479471E-002  6.104560842882585E-002
  6.130803793385148E-002  6.167401261865915E-002  6.215464814659288E-002
  6.275063018043024E-002  6.344506018523183E-002  6.419445957601816E-002
  6.493950459321583E-002  6.562179698997843E-002  6.620073818206057E-002
  6.666086488245196E-002  6.700781103773056E-002  6.725917310544249E-002
  6.743597461413633E-002  6.755704654426327E-002  5.833819695917794E-002
  5.842663277188094E-002  5.861364054278688E-002  5.889059004949109E-002
  5.927345197163492E-002  5.977628011084168E-002  6.040096641022083E-002
  6.112888295691585E-002  6.191481035296693E-002  6.269657487049921E-002
  6.341244294422899E-002  6.401943456423645E-002  6.450111836073141E-002
  6.486366928794289E-002  6.512572311120420E-002  6.530953677941476E-002
  6.543483689078089E-002  5.589027978449289E-002  5.599103037569693E-002
  5.619113461033765E-002  5.648027201302006E-002  5.687745224672400E-002
  5.739889713864400E-002  5.804760007219285E-002  5.880342252914644E-002
  5.961993883121366E-002  6.043238538480468E-002  6.117645432641438E-002
  6.180708964803960E-002  6.230709248467317E-002  6.268300796814338E-002
  6.295435067402869E-002  6.314433144399080E-002  6.327336281393531E-002
  5.345584547300553E-002  5.356343367362694E-002  5.377080011278236E-002
  5.406917611301978E-002  5.447845662256540E-002  5.501563096383036E-002
  5.568363686271266E-002  5.646194234087916E-002  5.730276141716543E-002
  5.813948484497222E-002  5.890610665532692E-002  5.955622996235470E-002
  6.007217055091306E-002  6.046038813780370E-002  6.074085936623120E-002
  6.093744092553531E-002  6.107105012676035E-002  5.103502373379867E-002
  5.114702155314134E-002  5.135959885871512E-002  5.166486316582063E-002
  5.208339797787573E-002  5.263251361237711E-002  5.331549207281787E-002
  5.411122799821110E-002  5.497094266462528E-002  5.582665357258673E-002
  5.661074592018851E-002  5.727604623384644E-002  5.780426715825185E-002
  5.820193701772266E-002  5.848945181557614E-002  5.869103841875064E-002
  5.882816162094144E-002  4.862843186125206E-002  4.874265074618739E-002
  4.895846004510732E-002  4.926823646839096E-002  4.969293369705543E-002
  5.025023870119651E-002  5.094343348430767E-002  5.175117063034171E-002
  5.262391811016830E-002  5.349279642908139E-002  5.428910353488871E-002
  5.496490617380574E-002  5.550163870295209E-002  5.590584887164748E-002
  5.619816178826806E-002  5.640318744735252E-002  5.654276729519558E-002
  4.623741455494103E-002  4.635388688047332E-002  4.657144498231196E-002
  4.688332495608030E-002  4.731077172036822E-002  4.787170135033081E-002
  4.856934019194683E-002  4.938246895170752E-002  5.026110124787405E-002
  5.113589414063863E-002  5.193792418776691E-002  5.261874165035046E-002
  5.315976146050665E-002  5.356732168749928E-002  5.386225973725230E-002
  5.406918822179749E-002  5.421019064248955E-002  4.386206405142097E-002
  4.397998608982106E-002  4.419761307409703E-002  4.450911942513985E-002
  4.493600506660191E-002  4.549612008361364E-002  4.619282803718640E-002
  4.700483193380229E-002  4.788242230181803E-002  4.875632728897374E-002
  4.955773724809545E-002  5.023831237782742E-002  5.077931097025250E-002
  5.118710346963840E-002  5.148232021934568E-002  5.168964505641394E-002
  5.183097384463656E-002  4.150233233658657E-002  4.162066739755905E-002
  4.183655907876008E-002  4.214529357389289E-002  4.256821292655969E-002
  4.312309089935879E-002  4.381335318581605E-002  4.461789042997556E-002
  4.548759492288298E-002  4.635377453247289E-002  4.714829122179238E-002
  4.782325292963316E-002  4.835998779560995E-002  4.876484298147975E-002
  4.905802175547395E-002  4.926402031707060E-002  4.940451713499024E-002
  3.915991000995737E-002  3.927741819815116E-002  3.948972120825114E-002
  3.979290248668927E-002  4.020819799702288E-002  4.075303984174713E-002
  4.143087313939062E-002  4.222107126664076E-002  4.307530558228469E-002
  4.392628682718271E-002  4.470700802473576E-002  4.537049725401725E-002
  4.589836218223031E-002  4.629661216853665E-002  4.658520718609210E-002
  4.678805847919505E-002  4.692656498897821E-002  3.683501966578739E-002
  3.695060215839151E-002  3.715733886433457E-002  3.745227745531912E-002
  3.785614787974897E-002  3.838606000501763E-002  3.904541624214128E-002
  3.981409860045401E-002  4.064520721167089E-002  4.147329833220114E-002
  4.223321435850272E-002  4.287918565501155E-002  4.339337508659828E-002
  4.378145420982987E-002  4.406281485019262E-002  4.426066550677615E-002
  4.439586934804725E-002  3.452522170505193E-002  3.463784566927947E-002
  3.483734386560011E-002  3.512168548347534E-002  3.551098961612670E-002
  3.602179798327805E-002  3.665740429840905E-002  3.739849815609068E-002
  3.819984404102651E-002  3.899840154033395E-002  3.973142933118176E-002
  4.035477033098758E-002  4.085109341977625E-002  4.122589284906217E-002
  4.149769720158015E-002  4.168896304869726E-002  4.181974597364338E-002
  3.224323353046205E-002  3.235135102587784E-002  3.254061967173515E-002
  3.281003501528151E-002  3.317885938198757E-002  3.366279067382849E-002
  3.426495824923256E-002  3.496710520057618E-002  3.572654565079744E-002
  3.648338411293599E-002  3.717835166016895E-002  3.776947452805716E-002
  3.824037672940385E-002  3.859614610561262E-002  3.885431987412796E-002
  3.903605519594272E-002  3.916039300648633E-002  2.999624067747115E-002
  3.009783136350621E-002  3.027304979032691E-002  3.052207836051003E-002
  3.086294859666827E-002  3.131013407291925E-002  3.186664250015400E-002
  3.251568335366591E-002  3.321766525978542E-002  3.391746068042630E-002
  3.456019846004082E-002  3.510712098512069E-002  3.554299503880884E-002
  3.587254737740306E-002  3.611179965291696E-002  3.628030418837874E-002
  3.639574299382060E-002  2.773407897818177E-002  2.782966567750049E-002
  2.799243996326538E-002  2.822360412083984E-002  2.853986697995162E-002
  2.895481297196387E-002  2.947119356269003E-002  3.007346459777546E-002
  3.072496485189239E-002  3.137449739308053E-002  3.197116176193723E-002
  3.247908131078311E-002  3.288402066305172E-002  3.319030016493019E-002
  3.341278313059834E-002  3.356952574265589E-002  3.367700896578837E-002
  2.547809522719219E-002  2.556714078965194E-002  2.571682632669879E-002
  2.592916694391741E-002  2.621963805068521E-002  2.660062950802022E-002
  2.707477113419723E-002  2.762780137772567E-002  2.822609014414046E-002
  2.882265972768658E-002  2.937079913765767E-002  2.983750621720189E-002
  3.020974663509875E-002  3.049141104491399E-002  3.069606720796203E-002
  3.084036705644046E-002  3.093930188960719E-002  2.325956117248974E-002
  2.333971131243459E-002  2.347225832713186E-002  2.366001071738513E-002
  2.391665913206199E-002  2.425337296183155E-002  2.467234199983827E-002
  2.516102994007884E-002  2.568971015419406E-002  2.621695209050535E-002
  2.670146764735200E-002  2.711420469900941E-002  2.744352021465821E-002
  2.769280007272545E-002  2.787404728658090E-002  2.800187016534277E-002
  2.808958008778694E-002
 -8.500754651640362E-002 -8.506860258386047E-002 -8.527403413289271E-002
 -8.562251081856000E-002 -8.612103160975934E-002 -8.677561839469164E-002
 -8.758275927283596E-002 -8.852300784353048E-002 -8.953634419788878E-002
 -9.054248747248583E-002 -9.146415629181665E-002 -9.224821999624917E-002
 -9.287407570036789E-002 -9.334878458378178E-002 -9.369517666156037E-002
 -9.394070765723499E-002 -9.411127700383637E-002 -8.606907093808160E-002
 -8.615293676490586E-002 -8.639490593507143E-002 -8.679064427485128E-002
 -8.735198504369755E-002 -8.808915698485320E-002 -8.899972197553521E-002
 -9.006063152881733E-002 -9.120436062501497E-002 -9.234053180323695E-002
 -9.338117582553725E-002 -9.426556866557369E-002 -9.497060203674237E-002
 -9.550427272553889E-002 -9.589270683235744E-002 -9.616737426851220E-002
 -9.635725979982995E-002 -8.720362182768369E-002 -8.731086601211556E-002
 -8.758441167537592E-002 -8.801655838777192E-002 -8.862440870816715E-002
 -8.942251614999518E-002 -9.041042255646123E-002 -9.156138885786327E-002
 -9.280279748752741E-002 -9.403653028406719E-002 -9.516634271090496E-002
 -9.612587684467397E-002 -9.688952574948220E-002 -9.746652540861836E-002
 -9.788547115312768E-002 -9.818097947542877E-002 -9.838427553420390E-002
 -8.839940633142376E-002 -8.852980461713465E-002 -8.883044140631287E-002
 -8.928977883390603E-002 -8.993035417724382E-002 -9.077162348112536E-002
 -9.181478687956973E-002 -9.303026641194098E-002 -9.434196034044980E-002
 -9.564603269164089E-002 -9.684026744190154E-002 -9.785360379625992E-002
 -9.865897594716946E-002 -9.926624514299978E-002 -9.970621093711274E-002
 -0.100015671377508      -0.100227586836225      -8.960876141097426E-002
 -8.976355299475657E-002 -9.009087773066779E-002 -9.057562990809667E-002
 -9.124576343757032E-002 -9.212587706641756E-002 -9.321928231359609E-002
 -9.449337424174559E-002 -9.586900412125079E-002 -9.723734760241454E-002
 -9.849035076397217E-002 -9.955278453748249E-002 -0.100395888654048     
 -0.101030471302293      -0.101489151163980      -0.101810885175954     
 -0.102030201334122      -9.084107968120739E-002 -9.101742615332990E-002
 -9.136767398229044E-002 -9.187375896216370E-002 -9.256895421782892E-002
 -9.348165325013780E-002 -9.461709545866262E-002 -9.594003185280124E-002
 -9.736920231800027E-002 -9.879124939287814E-002 -0.100093613292691     
 -0.101197431273662      -0.102072599699354      -0.102730574690210     
 -0.103205513133223      -0.103538041589420      -0.103763888669928     
 -9.209719895470055E-002 -9.228551347866376E-002 -9.264847253969441E-002
 -9.317072808558356E-002 -9.388710277980986E-002 -9.482733349076421E-002
 -9.599656219917375E-002 -9.735885123061373E-002 -9.883055949579089E-002
 -0.100295099037174      -0.101636937830303      -0.102774866156767     
 -0.103677930858719      -0.104357438552380      -0.104848354894151     
 -0.105192436889635      -0.105426296671474      -9.337694309509594E-002
 -9.357297589341962E-002 -9.394505567422538E-002 -9.447936800906806E-002
 -9.521194075811512E-002 -9.617307263609619E-002 -9.736850822208265E-002
 -9.876130623455392E-002 -0.100266087959826      -0.101763861798892     
 -0.103136279743695      -0.104300772793448      -0.105225332097835     
 -0.105921384358662      -0.106424629249621      -0.106777471708133     
 -0.107017482140464      -9.468159415419306E-002 -9.488151454341789E-002
 -9.525925136918678E-002 -9.580146138244826E-002 -9.654482037518672E-002
 -9.752028632731699E-002 -9.873360381791023E-002 -0.100147407889958     
 -0.101675001299406      -0.103195822412345      -0.104589620177272     
 -0.105772495729662      -0.106711953124971      -0.107419453065108     
 -0.107931096232516      -0.108289958163171      -0.108534268528524     
 -9.601370738068948E-002 -9.621757202765652E-002 -9.659836983025437E-002
 -9.714426174455913E-002 -9.789243332352089E-002 -9.887424355580593E-002
 -0.100095339601640      -0.101518580760343      -0.103056474522258     
 -0.104587648073037      -0.105991462856227      -0.107183115989487     
 -0.108130077528167      -0.108843441165528      -0.109359679174131     
 -0.109721871671416      -0.109968672004324      -9.737304104905246E-002
 -9.757944316748034E-002 -9.796036153686263E-002 -9.850559948925287E-002
 -9.925278891982550E-002 -0.100233173313133      -0.101452640000564     
 -0.102873912281022      -0.104409982328044      -0.105939601753732     
 -0.107342331180191      -0.108533560151737      -0.109480484552451     
 -0.110194254742435      -0.110710980567071      -0.111073866810848     
 -0.111321238393631      -9.875991428855965E-002 -9.896703933151491E-002
 -9.934492035320849E-002 -9.988530665157744E-002 -0.100625553780094     
 -0.101596771633928      -0.102804956296681      -0.104213159494332     
 -0.105735426681855      -0.107251524171212      -0.108642188121960     
 -0.109823591770049      -0.110763053255575      -0.111471682186637     
 -0.111984840887516      -0.112345405715630      -0.112591321078394     
 -0.100176883031404      -0.100382560776675      -0.100754160450729     
 -0.101284826804417      -0.102011729716454      -0.102965381065133     
 -0.104151810934160      -0.105534915989457      -0.107030105309238     
 -0.108519600691715      -0.109886118021831      -0.111047441081844     
 -0.111971377276512      -0.112668444948957      -0.113173580577540     
 -0.113528636656882      -0.113771068329732      -0.101624538475132     
 -0.101826845623569      -0.102188702445605      -0.102704941401539     
 -0.103411846678141      -0.104339366136929      -0.105493455109502     
 -0.106838900535194      -0.108293612311942      -0.109743042493506     
 -0.111073143972279      -0.112203804922954      -0.113103804527714     
 -0.113783069864706      -0.114275542968131      -0.114621846298748     
 -0.114858497221990      -0.103098812108721      -0.103295940865293     
 -0.103645127929066      -0.104142818717683      -0.104824228221641     
 -0.105718309858298      -0.106830828703028      -0.108127985233347     
 -0.109530602509034      -0.110928339198288      -0.112211377474679     
 -0.113302428007797      -0.114171155671773      -0.114827177202945     
 -0.115302923678487      -0.115637701439824      -0.115866614314205     
 -0.104621560374846      -0.104810801337738      -0.105142083343942     
 -0.105613648272766      -0.106259211491048      -0.107106249459223     
 -0.108160239577594      -0.109389226289249      -0.110718495354405     
 -0.112043210089771      -0.113259630497131      -0.114294288766600     
 -0.115118521566922      -0.115741234283879      -0.116193122781288     
 -0.116511219007614      -0.116728850824745      -0.106205763479316     
 -0.106383580392038      -0.106690269921613      -0.107126151332180     
 -0.107722785683202      -0.108505506461105      -0.109479578143231     
 -0.110615611822164      -0.111844309650720      -0.113069180414879     
 -0.114194181653883      -0.115151474873403      -0.115914396963875     
 -0.116491221294098      -0.116909990992915      -0.117204929017697     
 -0.117406984666626      -0.107763214558916      -0.107930522532053     
 -0.108215430746525      -0.108620043594770      -0.109173606991284     
 -0.109899898131994      -0.110803732981586      -0.111857904188222     
 -0.112998242622245      -0.114135136915355      -0.115179494623154     
 -0.116068519883360      -0.116777296133134      -0.117313385390719     
 -0.117702803315061      -0.117977154128662      -0.118165284907701     
 -0.109331680652572      -0.109487539497769      -0.109749538122993     
 -0.110121203621798      -0.110629623019838      -0.111296482624401     
 -0.112126385477214      -0.113094369200763      -0.114141570135337     
 -0.115185761937854      -0.116145185103759      -0.116962075069452     
 -0.117613617494098      -0.118106622293373      -0.118464837485169     
 -0.118717409394702      -0.118890577696649      -0.110965494373005     
 -0.111105783320698      -0.111337783928862      -0.111666411992062     
 -0.112115630621584      -0.112704989902608      -0.113438322689028     
 -0.114293686346952      -0.115219049558483      -0.116141895313654     
 -0.116989955936597      -0.117712380709536      -0.118288790522182     
 -0.118725111768699      -0.119042353646523      -0.119266085472379     
 -0.119419606510899     
 -3.706654060201173E-002 -3.703832081610895E-002 -3.693313910975587E-002
 -3.674242212313544E-002 -3.644695332372459E-002 -3.601667027215368E-002
 -3.544383469913608E-002 -3.476518421471776E-002 -3.402259971511762E-002
 -3.327454977036023E-002 -3.258046023684168E-002 -3.198348728228194E-002
 -3.150259027200231E-002 -3.113518561869610E-002 -3.086570819802542E-002
 -3.067385700167281E-002 -3.054027303248899E-002 -3.726787744445579E-002
 -3.722621372628170E-002 -3.709743758349857E-002 -3.687504491497876E-002
 -3.653767411347843E-002 -3.605452401679990E-002 -3.541729009366210E-002
 -3.466184403607397E-002 -3.383412971870162E-002 -3.299929060514611E-002
 -3.222361795820077E-002 -3.155585724918248E-002 -3.101756670592270E-002
 -3.060592001781711E-002 -3.030354107743919E-002 -3.008770469737912E-002
 -2.993616336067066E-002 -3.740660830789552E-002 -3.735111185565714E-002
 -3.720130903434776E-002 -3.695342513154207E-002 -3.658469441068764E-002
 -3.606537464012848E-002 -3.538686107834141E-002 -3.458185307087873E-002
 -3.369847872498499E-002 -3.280618192953839E-002 -3.197624060786079E-002
 -3.126097776312109E-002 -3.068384342163865E-002 -3.024212596959851E-002
 -2.991706627613607E-002 -2.968435256496359E-002 -2.951988467848456E-002
 -3.749075972763941E-002 -3.742176713265281E-002 -3.725383670556940E-002
 -3.698639801632610E-002 -3.659596215784563E-002 -3.605506944423732E-002
 -3.535506542318510E-002 -3.452373415057571E-002 -3.361013546898640E-002
 -3.268579057923610E-002 -3.182490008295335E-002 -3.108231558335325E-002
 -3.048251520979022E-002 -3.002289426908702E-002 -2.968405682882089E-002
 -2.944085602217360E-002 -2.926751651111984E-002 -3.755299105429659E-002
 -3.747061701335110E-002 -3.728562874107037E-002 -3.700072007638204E-002
 -3.659228686122001E-002 -3.603572071713737E-002 -3.532245050690125E-002
 -3.447446574897687E-002 -3.354098569415585E-002 -3.259509480368030E-002
 -3.171278661028035E-002 -3.095075508196580E-002 -3.033474389795614E-002
 -2.986200478626267E-002 -2.951296685394511E-002 -2.926144985468251E-002
 -2.908083558376751E-002 -3.758823203515561E-002 -3.749522676572437E-002
 -3.729778600603370E-002 -3.700106943164519E-002 -3.658127154163703E-002
 -3.601633533186370E-002 -3.529769994092782E-002 -3.444261178136299E-002
 -3.350020678887755E-002 -3.254375243848252E-002 -3.165042977415743E-002
 -3.087808889345550E-002 -3.025297975096215E-002 -2.977265928429869E-002
 -2.941722250889270E-002 -2.916053861211643E-002 -2.897500044408508E-002
 -3.759758103571555E-002 -3.750124817968195E-002 -3.730238440739633E-002
 -3.700462806863845E-002 -3.658393871534051E-002 -3.601775306799101E-002
 -3.529742417332567E-002 -3.444030286483185E-002 -3.349538177650620E-002
 -3.253601475232642E-002 -3.163943004738103E-002 -3.086363189096995E-002
 -3.023509990835700E-002 -2.975161543137417E-002 -2.939345343533448E-002
 -2.913441256804642E-002 -2.894695344240524E-002 -3.758266352561229E-002
 -3.748566470889862E-002 -3.728844390403648E-002 -3.699349916066517E-002
 -3.657660729404778E-002 -3.601552328690203E-002 -3.530150881762911E-002
 -3.445156257609710E-002 -3.351403289569266E-002 -3.256193202970949E-002
 -3.167160398611223E-002 -3.090065391657231E-002 -3.027551978881192E-002
 -2.979426731550227E-002 -2.943746362894711E-002 -2.917921258656495E-002
 -2.899193036692575E-002 -3.754430126565731E-002 -3.744913370660360E-002
 -3.725619916600038E-002 -3.696752079982703E-002 -3.655918063295666E-002
 -3.600933800220310E-002 -3.530925458596755E-002 -3.447528727319202E-002
 -3.355497568907091E-002 -3.261985547254112E-002 -3.174494537217355E-002
 -3.098694268696122E-002 -3.037185492529174E-002 -2.989804523329471E-002
 -2.954652425522773E-002 -2.929189934709155E-002 -2.910699104155225E-002
 -3.748372814690981E-002 -3.739088756794677E-002 -3.720404499822347E-002
 -3.692459206862880E-002 -3.652923955234266E-002 -3.599659029813274E-002
 -3.531781989253328E-002 -3.450894863317023E-002 -3.361592205730821E-002
 -3.270777636295987E-002 -3.185767265869796E-002 -3.112052891923264E-002
 -3.052205521949312E-002 -3.006046862711364E-002 -2.971773207335547E-002
 -2.946925912272769E-002 -2.928851210882247E-002 -3.740429425312766E-002
 -3.731449827121273E-002 -3.713560558946730E-002 -3.686805277499280E-002
 -3.648939069086753E-002 -3.597874401352825E-002 -3.532785709118765E-002
 -3.455156048763800E-002 -3.369391071843966E-002 -3.282120181738347E-002
 -3.200374053171501E-002 -3.129429753883944E-002 -3.071771671854917E-002
 -3.027271086090913E-002 -2.994190302719353E-002 -2.970179737125896E-002
 -2.952681379016892E-002 -3.730868953805579E-002 -3.722291932221483E-002
 -3.705346397283905E-002 -3.680016241332939E-002 -3.644121258415785E-002
 -3.595686890896637E-002 -3.533906097232067E-002 -3.460166177454171E-002
 -3.378645000769261E-002 -3.295633824010027E-002 -3.217812650382174E-002
 -3.150224766613647E-002 -3.095231671514561E-002 -3.052745607147781E-002
 -3.021141076746090E-002 -2.998164252042281E-002 -2.981383927697603E-002
 -3.719792349854269E-002 -3.711711328379230E-002 -3.695859576379720E-002
 -3.672139310051476E-002 -3.638514346769978E-002 -3.593099886583710E-002
 -3.535118631295082E-002 -3.465854293017522E-002 -3.389221994214092E-002
 -3.311132826821183E-002 -3.237853497663355E-002 -3.174150716490921E-002
 -3.122277700794404E-002 -3.082165743918738E-002 -3.052276496257149E-002
 -3.030533034387160E-002 -3.014612434289613E-002 -3.707443558888411E-002
 -3.699938130789707E-002 -3.685293164158761E-002 -3.663355026607019E-002
 -3.632232086485011E-002 -3.590159044871347E-002 -3.536369823278974E-002
 -3.472084203697107E-002 -3.400876801486962E-002 -3.328266796331332E-002
 -3.260058276398959E-002 -3.200713713993765E-002 -3.152340470369302E-002
 -3.114888890152576E-002 -3.086946651076551E-002 -3.066586601741485E-002
 -3.051661417711029E-002 -3.694510371389702E-002 -3.687607947167701E-002
 -3.674214144810670E-002 -3.654130703056312E-002 -3.625603237305428E-002
 -3.586992475976367E-002 -3.537595743059530E-002 -3.478490352446163E-002
 -3.412964678039634E-002 -3.346080751882999E-002 -3.283205343402493E-002
 -3.228435367855280E-002 -3.183733635519861E-002 -3.149085455416779E-002
 -3.123212364190267E-002 -3.104338287725239E-002 -3.090458369683311E-002
 -3.679590740348014E-002 -3.673372746178678E-002 -3.661400264372266E-002
 -3.643437708717494E-002 -3.617874467975052E-002 -3.583234872820407E-002
 -3.538871040534710E-002 -3.485711290601638E-002 -3.426734260752106E-002
 -3.366454550058381E-002 -3.309733235647452E-002 -3.260256269240811E-002
 -3.219840077233234E-002 -3.188460581843405E-002 -3.165006837758444E-002
 -3.147858291580451E-002 -3.135218568070298E-002 -3.662307805876124E-002
 -3.656898463900484E-002 -3.646549562822680E-002 -3.631004104593909E-002
 -3.608835436775967E-002 -3.578761763294040E-002 -3.540178775009500E-002
 -3.493885098248913E-002 -3.442464570287380E-002 -3.389841283582951E-002
 -3.340255287687394E-002 -3.296954160286169E-002 -3.261512187543184E-002
 -3.233965306015572E-002 -3.213333568809484E-002 -3.198220566769345E-002
 -3.187047542588742E-002 -3.648939772766117E-002 -3.644143654504138E-002
 -3.635042862659567E-002 -3.621333159786009E-002 -3.601784377218824E-002
 -3.575208920000014E-002 -3.541069797254170E-002 -3.500082126254808E-002
 -3.454489737111976E-002 -3.407799732375233E-002 -3.363743331126487E-002
 -3.325229409148064E-002 -3.293674649009608E-002 -3.269105600466399E-002
 -3.250684007107398E-002 -3.237174201541902E-002 -3.227150336656839E-002
 -3.636736868061683E-002 -3.632497624992290E-002 -3.624500669084275E-002
 -3.612460536494946E-002 -3.595250396509937E-002 -3.571845478813201E-002
 -3.541752366109555E-002 -3.505581532460318E-002 -3.465314811137470E-002
 -3.424024568761933E-002 -3.385038337094738E-002 -3.350916375566466E-002
 -3.322922456553418E-002 -3.301114706065403E-002 -3.284739682006346E-002
 -3.272709933777965E-002 -3.263770270480677E-002 -3.622674963834450E-002
 -3.619065162978521E-002 -3.612329951989677E-002 -3.602172897283080E-002
 -3.587645655929386E-002 -3.567846624460053E-002 -3.542374753788025E-002
 -3.511724127405130E-002 -3.477571258133450E-002 -3.442518534593370E-002
 -3.409386463274776E-002 -3.380348057045597E-002 -3.356499042592489E-002
 -3.337890769647256E-002 -3.323902099794782E-002 -3.313610767634188E-002
 -3.305947373975683E-002
  2.013740639864148E-002  4.492427537094328E-002  6.855122495056638E-002
  9.091744050537424E-002  0.111737572773350       0.130211728006051     
  0.145681411291340       0.158455132418518       0.168749109308855     
  0.176981346024041       0.183741204756560       0.189562943541119     
  0.194648919916893       0.198764317640664       0.201535235603277     
  0.202897736888403       3.162156997859050E-002  6.606734358739583E-002
  9.930043682619846E-002  0.131981860748335       0.163855415001233     
  0.193501116808930       0.219427667564572       0.241439862997753     
  0.259558135968378       0.274152370097961       0.285641646796372     
  0.294294160951572       0.300383009140748       0.304340716612782     
  0.306638135860679       0.307706168602149       4.248054699886315E-002
  8.436111242160341E-002  0.124456056830897       0.164276056441296     
  0.203766762343825       0.241392389307058       0.275255403989490     
  0.304553180348752       0.328773801185657       0.347884366504909     
  0.362148481256737       0.372070927415165       0.378446171254217     
  0.382238847103963       0.384299910621829       0.385255766207469     
  5.301806860585257E-002  0.101237313959102       0.146785254495836     
  0.192066362993308       0.237271683389473       0.280958953490635     
  0.321073835952690       0.356205126705836       0.385304201878449     
  0.407999947382776       0.424542355519191       0.435724522111950     
  0.442723057015019       0.446798139939734       0.449000834347552     
  0.450059022354832       6.266051052921247E-002  0.116312041637975     
  0.166314772075777       0.215958195350520       0.265685576404611     
  0.314237554926953       0.359511570436866       0.399515095161551     
  0.432742618461604       0.458554347842512       0.477205765086630     
  0.489693907221140       0.497448244716731       0.501940657991261     
  0.504379861824538       0.505593058351558       7.001622406837411E-002
  0.127955328244402       0.181724886335705       0.235178337388210     
  0.288921299843531       0.341758631278992       0.391483467858409     
  0.435688179271179       0.472515588543777       0.501105279171047     
  0.521709545737326       0.535468369309599       0.543995912883199     
  0.548932494948542       0.551615366199177       0.552973565185195     
  7.491985857056947E-002  0.136057786497764       0.193006429727411     
  0.249847742129183       0.307230079162943       0.363897416283089     
  0.417488455064028       0.465357443379187       0.505369757825269     
  0.536494463450859       0.558939113265306       0.573930184458054     
  0.583220127984665       0.588590159379290       0.591503835326652     
  0.592980954485664       7.817909006013189E-002  0.141782589049923     
  0.201242420054113       0.260812046384080       0.321161722211347     
  0.381005230810893       0.437861582165472       0.488876991335732     
  0.531691419935142       0.565117895145183       0.589292928194906     
  0.605492886131732       0.615565586824110       0.621409468737681     
  0.624590698659257       0.626208330050686       8.031218582179410E-002
  0.145609441372142       0.206856648145883       0.268422833672205     
  0.331018341698784       0.393339124669580       0.452806142809472     
  0.506420286664944       0.551644284866719       0.587116150918455     
  0.612901557114363       0.630269551731657       0.641145075554452     
  0.647495635907922       0.650975616182448       0.652748181284204     
  8.169621242138528E-002  0.147860527551555       0.210128336022236     
  0.272933455261089       0.337023704441944       0.401074995208219     
  0.462467299951475       0.518101473015209       0.565301296634537     
  0.602538569241013       0.629792517049029       0.648282106837005     
  0.659965698681884       0.666857662211420       0.670670300211610     
  0.672621604214057       8.218024572320323E-002  0.148446513422132     
  0.211019072863519       0.274354753440374       0.339201552136500     
  0.404241686059861       0.466870538488706       0.523923099510459     
  0.572630800042514       0.611329570808580       0.639875581172779     
  0.659423487312089       0.671896248252961       0.679349001802147     
  0.683523860655317       0.685672733746856       8.170617787173236E-002
  0.147354532354830       0.209537838855439       0.272674251876462     
  0.337510662754759       0.402767430505904       0.465877282562756     
  0.523680566362078       0.573363630291617       0.613160334289562     
  0.642775264494525       0.663264241217560       0.676489964146639     
  0.684499173726324       0.689042218853573       0.691392702145352     
  8.027116744801335E-002  0.144565903352045       0.205640462264594     
  0.267794303939123       0.331791051305070       0.396407374090381     
  0.459134542436082       0.516914501021768       0.566928634351668     
  0.607361963877623       0.637754677936284       0.659019624094926     