 Title = "Wing and Wake"
 VARIABLES = "X" "Y" "Z" "GAM" "skew"
 Zone I=   17 J=   20 K=1  T="Blade 01"
 DATAPACKING=BLOCK
 VARLOCATION=([4]=CELLCENTERED,[5]=CELLCENTERED)
 -0.430513849156731      -0.429910303135935      -0.428359101540892     
 -0.426024476763533      -0.422821316475764      -0.418619247491488     
 -0.413384201101012      -0.407273511463085      -0.400654849541475     
 -0.394046760918681      -0.387962931959866      -0.382762736931117     
 -0.378601189324503      -0.375432782772238      -0.373116208866841     
 -0.371472061902648      -0.370337574347186      -0.438573982141877     
 -0.437970436121082      -0.436419234526038      -0.434084609748682     
 -0.430881449460912      -0.426679380476636      -0.421444334086157     
 -0.415333644448234      -0.408714982526621      -0.402106893903826     
 -0.396023064945014      -0.390822869916266      -0.386661322309651     
 -0.383492915757387      -0.381176341851988      -0.379532194887797     
 -0.378397707332337      -0.449972847415617      -0.449369301394822     
 -0.447818099799779      -0.445483475022420      -0.442280314734651     
 -0.438078245750375      -0.432843199359897      -0.426732509721973     
 -0.420113847800361      -0.413505759177567      -0.407421930218753     
 -0.402221735190005      -0.398060187583390      -0.394891781031126     
 -0.392575207125726      -0.390931060161534      -0.389796572606076     
 -0.465886074784706      -0.465282528763911      -0.463731327168868     
 -0.461396702391508      -0.458193542103741      -0.453991473119466     
 -0.448756426728986      -0.442645737091062      -0.436027075169449     
 -0.429418986546655      -0.423335157587842      -0.418134962559094     
 -0.413973414952476      -0.410805008400215      -0.408488434494816     
 -0.406844287530622      -0.405709799975165      -0.487704880984106     
 -0.487101334963312      -0.485550133368270      -0.483215508590911     
 -0.480012348303139      -0.475810279318864      -0.470575232928387     
 -0.464464543290462      -0.457845881368851      -0.451237792746055     
 -0.445153963787244      -0.439953768758493      -0.435792221151878     
 -0.432623814599614      -0.430307240694217      -0.428663093730024     
 -0.427528606174564      -0.516893284434778      -0.516289738413982     
 -0.514738536818940      -0.512403912041581      -0.509200751753813     
 -0.504998682769535      -0.499763636379056      -0.493652946741133     
 -0.487034284819522      -0.480426196196728      -0.474342367237913     
 -0.469142172209164      -0.464980624602551      -0.461812218050283     
 -0.459495644144884      -0.457851497180696      -0.456717009625236     
 -0.554680271533987      -0.554076725513191      -0.552525523918150     
 -0.550190899140787      -0.546987738853019      -0.542785669868742     
 -0.537550623478265      -0.531439933840343      -0.524821271918729     
 -0.518213183295935      -0.512129354337122      -0.506929159308369     
 -0.502767611701759      -0.499599205149493      -0.497282631244096     
 -0.495638484279904      -0.494503996724445      -0.601574420769447     
 -0.600970874748651      -0.599419673153608      -0.597085048376254     
 -0.593881888088485      -0.589679819104210      -0.584444772713731     
 -0.578334083075805      -0.571715421154191      -0.565107332531398     
 -0.559023503572587      -0.553823308543838      -0.549661760937218     
 -0.546493354384958      -0.544176780479559      -0.542532633515364     
 -0.541398145959909      -0.656811361407037      -0.656207815386245     
 -0.654656613791203      -0.652321989013844      -0.649118828726074     
 -0.644916759741798      -0.639681713351322      -0.633571023713400     
 -0.626952361791786      -0.620344273168990      -0.614260444210173     
 -0.609060249181426      -0.604898701574814      -0.601730295022549     
 -0.599413721117150      -0.597769574152957      -0.596635086597498     
 -0.718012967662674      -0.717409421641877      -0.715858220046835     
 -0.713523595269477      -0.710320434981710      -0.706118365997433     
 -0.700883319606956      -0.694772629969031      -0.688153968047419     
 -0.681545879424625      -0.675462050465813      -0.670261855437066     
 -0.666100307830446      -0.662931901278182      -0.660615327372787     
 -0.658971180408591      -0.657836692853134      -0.781391579173728     
 -0.780788033152939      -0.779236831557893      -0.776902206780533     
 -0.773699046492767      -0.769496977508490      -0.764261931118011     
 -0.758151241480089      -0.751532579558470      -0.744924490935677     
 -0.738840661976865      -0.733640466948117      -0.729478919341499     
 -0.726310512789242      -0.723993938883838      -0.722349791919646     
 -0.721215304364188      -0.842593185429367      -0.841989639408570     
 -0.840438437813527      -0.838103813036170      -0.834900652748399     
 -0.830698583764125      -0.825463537373644      -0.819352847735722     
 -0.812734185814107      -0.806126097191315      -0.800042268232502     
 -0.794842073203748      -0.790680525597136      -0.787512119044874     
 -0.785195545139476      -0.783551398175284      -0.782416910619819     
 -0.897830126066956      -0.897226580046163      -0.895675378451118     
 -0.893340753673759      -0.890137593385990      -0.885935524401714     
 -0.880700478011232      -0.874589788373312      -0.867971126451702     
 -0.861363037828902      -0.855279208870094      -0.850079013841345     
 -0.845917466234723      -0.842749059682465      -0.840432485777067     
 -0.838788338812873      -0.837653851257411      -0.944724275302415     
 -0.944120729281625      -0.942569527686584      -0.940234902909220     
 -0.937031742621451      -0.932829673637177      -0.927594627246699     
 -0.921483937608775      -0.914865275687162      -0.908257187064371     
 -0.902173358105555      -0.896973163076808      -0.892811615470191     
 -0.889643208917927      -0.887326635012530      -0.885682488048336     
 -0.884548000492880      -0.982511262401624      -0.981907716380831     
 -0.980356514785786      -0.978021890008426      -0.974818729720665     
 -0.970616660736386      -0.965381614345903      -0.959270924707985     
 -0.952652262786371      -0.946044174163575      -0.939960345204763     
 -0.934760150176014      -0.930598602569400      -0.927430196017136     
 -0.925113622111734      -0.923469475147547      -0.922334987592085     
  -1.01169966585229       -1.01109611983150       -1.00954491823646     
  -1.00721029345910       -1.00400713317133      -0.999805064187059     
 -0.994570017796573      -0.988459328158658      -0.981840666237035     
 -0.975232577614254      -0.969148748655439      -0.963948553626686     
 -0.959787006020071      -0.956618599467807      -0.954302025562410     
 -0.952657878598217      -0.951523391042759       -1.03351847205170     
  -1.03291492603091       -1.03136372443586       -1.02902909965850     
  -1.02582593937073       -1.02162387038646       -1.01638882399598     
  -1.01027813435806       -1.00365947243644      -0.997051383813652     
 -0.990967554854828      -0.985767359826083      -0.981605812219468     
 -0.978437405667207      -0.976120831761801      -0.974476684797617     
 -0.973342197242153       -1.04943169942079       -1.04882815339999     
  -1.04727695180495       -1.04494232702760       -1.04173916673982     
  -1.03753709775555       -1.03230205136507       -1.02619136172715     
  -1.01957269980553       -1.01296461118274       -1.00688078222392     
  -1.00168058719517      -0.997519039588560      -0.994350633036298     
 -0.992034059130900      -0.990389912166709      -0.989255424611244     
  -1.06083056469453       -1.06022701867373       -1.05867581707868     
  -1.05634119230133       -1.05313803201356       -1.04893596302929     
  -1.04370091663881       -1.03759022700088       -1.03097156507927     
  -1.02436347645647       -1.01827964749766       -1.01307945246891     
  -1.00891790486230       -1.00574949831003       -1.00343292440464     
  -1.00178877744044       -1.00065428988499       -1.06889069767967     
  -1.06828715165889       -1.06673595006384       -1.06440132528648     
  -1.06119816499871       -1.05699609601443       -1.05176104962395     
  -1.04565035998603       -1.03903169806442       -1.03242360944163     
  -1.02633978048281       -1.02113958545406       -1.01697803784745     
  -1.01380963129519       -1.01149305738979       -1.00984891042559     
  -1.00871442287013     
  6.127486936345838E-002  6.292834912121685E-002  6.717803406525796E-002
  7.357399175252972E-002  8.234939663335229E-002  9.386142018552035E-002
  0.108203397332826       0.124944294089876       0.143076835990203     
  0.161180411192104       0.177847720206613       0.192094218270033     
  0.203495229114948       0.212175422369507       0.218521927736050     
  0.223026246595600       0.226134298249906       6.421694420134767E-002
  6.587042395910792E-002  7.012010890314631E-002  7.651606659042018E-002
  8.529147147124314E-002  9.680349502340981E-002  0.111145472170714     
  0.127886368927767       0.146018910828091       0.164122486029994     
  0.180789795044504       0.195036293107922       0.206437303952839     
  0.215117497207397       0.221464002573938       0.225968321433491     
  0.229076373087797       6.837770864086404E-002  7.003118839862341E-002
  7.428087334266055E-002  8.067683102993460E-002  8.945223591075691E-002
  0.100964259462924       0.115306236610228       0.132047133367281     
  0.150179675267607       0.168283250469509       0.184950559484020     
  0.199197057547438       0.210598068392354       0.219278261646911     
  0.225624767013454       0.230129085873002       0.233237137527313     
  7.418628598300987E-002  7.583976574076889E-002  8.008945068480709E-002
  8.648540837208112E-002  9.526081325290414E-002  0.106772836805070     
  0.121114813952376       0.137855710709426       0.155988252609755     
  0.174091827811655       0.190759136826164       0.205005634889583     
  0.216406645734499       0.225086838989059       0.231433344355600     
  0.235937663215152       0.239045714869459       8.215049213572943E-002
  8.380397189348894E-002  8.805365683752740E-002  9.444961452480023E-002
  0.103225019405624       0.114737042957790       0.129079020105095     
  0.145819916862146       0.163952458762473       0.182056033964374     
  0.198723342978886       0.212969841042303       0.224370851887221     
  0.233051045141776       0.239397550508321       0.243901869367871     
  0.247009921022177       9.280471676311876E-002  9.445819652087815E-002
  9.870788146491664E-002  0.105103839152190       0.113879244033012     
  0.125391267585180       0.139733244732485       0.156474141489535     
  0.174606683389862       0.192710258591763       0.209377567606274     
  0.223624065669692       0.235025076514610       0.243705269769166     
  0.250051775135708       0.254556093995260       0.257664145649568     
  0.106597559157792       0.108251038915552       0.112500723859589     
  0.118896681546862       0.127672086427687       0.139184109979850     
  0.153526087127158       0.170266983884208       0.188399525784536     
  0.206503100986436       0.223170410000947       0.237416908064361     
  0.248817918909283       0.257498112163838       0.263844617530383     
  0.268348936389934       0.271456988044242       0.123714658436937     
  0.125368138194697       0.129617823138735       0.136013780826011     
  0.144789185706833       0.156301209259001       0.170643186406304     
  0.187384083163356       0.205516625063681       0.223620200265582     
  0.240287509280095       0.254534007343512       0.265935018188426     
  0.274615211442986       0.280961716809530       0.285466035669077     
  0.288574087323387       0.143877007305290       0.145530487063053     
  0.149780172007092       0.156176129694361       0.164951534575186     
  0.176463558127355       0.190805535274658       0.207546432031711     
  0.225678973932037       0.243782549133936       0.260449858148446     
  0.274696356211862       0.286097367056783       0.294777560311340     
  0.301124065677880       0.305628384537433       0.308736436191740     
  0.166216552587600       0.167870032345360       0.172119717289398     
  0.178515674976670       0.187291079857496       0.198803103409662     
  0.213145080556967       0.229885977314018       0.248018519214346     
  0.266122094416246       0.282789403430757       0.297035901494177     
  0.308436912339091       0.317117105593650       0.323463610960190     
  0.327967929819741       0.331075981474051       0.189350738900736     
  0.191004218658498       0.195253903602537       0.201649861289806     
  0.210425266170631       0.221937289722801       0.236279266870105     
  0.253020163627157       0.271152705527478       0.289256280729382     
  0.305923589743893       0.320170087807309       0.331571098652228     
  0.340251291906784       0.346597797273329       0.351102116132880     
  0.354210167787185       0.211690284183046       0.213343763940808     
  0.217593448884846       0.223989406572116       0.232764811452941     
  0.244276835005108       0.258618812152412       0.275359708909462     
  0.293492250809791       0.311595826011694       0.328263135026202     
  0.342509633089614       0.353910643934538       0.362590837189096     
  0.368937342555637       0.373441661415188       0.376549713069496     
  0.231852633051402       0.233506112809157       0.237755797753198     
  0.244151755440471       0.252927160321297       0.264439183873462     
  0.278781161020766       0.295522057777820       0.313654599678146     
  0.331758174880039       0.348425483894555       0.362671981957974     
  0.374072992802884       0.382753186057447       0.389099691423989     
  0.393604010283543       0.396712061937845       0.248969732330547     
  0.250623212088310       0.254872897032346       0.261268854719619     
  0.270044259600439       0.281556283152608       0.295898260299915     
  0.312639157056959       0.330771698957291       0.348875274159191     
  0.365542583173701       0.379789081237122       0.391190092082038     
  0.399870285336596       0.406216790703137       0.410721109562689     
  0.413829161216997       0.262762574725219       0.264416054482979     
  0.268665739427017       0.275061697114287       0.283837101995113     
  0.295349125547283       0.309691102694581       0.326431999451638     
  0.344564541351967       0.362668116553864       0.379335425568375     
  0.393581923631791       0.404982934476711       0.413663127731268     
  0.420009633097808       0.424513951957359       0.427622003611668     
  0.273416799352606       0.275070279110372       0.279319964054408     
  0.285715921741681       0.294491326622505       0.306003350174670     
  0.320345327321975       0.337086224079028       0.355218765979347     
  0.373322341181255       0.389989650195765       0.404236148259182     
  0.415637159104100       0.424317352358657       0.430663857725200     
  0.435168176584752       0.438276228239060       0.281381005505330     
  0.283034485263090       0.287284170207128       0.293680127894400     
  0.302455532775220       0.313967556327392       0.328309533474695     
  0.345050430231747       0.363182972132073       0.381286547333977     
  0.397953856348479       0.412200354411903       0.423601365256820     
  0.432281558511378       0.438628063877915       0.443132382737470     
  0.446240434391776       0.287189582847476       0.288843062605234     
  0.293092747549275       0.299488705236547       0.308264110117362     
  0.319776133669540       0.334118110816842       0.350859007573893     
  0.368991549474220       0.387095124676120       0.403762433690630     
  0.418008931754050       0.429409942598965       0.438090135853526     
  0.444436641220066       0.448940960079618       0.452049011733921     
  0.291350347286991       0.293003827044748       0.297253511988787     
  0.303649469676062       0.312424874556880       0.323936898109053     
  0.338278875256356       0.355019772013403       0.373152313913736     
  0.391255889115635       0.407923198130144       0.422169696193563     
  0.433570707038478       0.442250900293032       0.448597405659581     
  0.453101724519135       0.456209776173441       0.294292422124879     
  0.295945901882640       0.300195586826678       0.306591544513949     
  0.315366949394776       0.326878972946941       0.341220950094247     
  0.357961846851297       0.376094388751622       0.394197963953525     
  0.410865272968031       0.425111771031446       0.436512781876370     
  0.445192975130926       0.451539480497467       0.456043799357021     
  0.459151851011329     
  0.000000000000000E+000 -2.059343134687265E-004 -5.967154644315922E-004
 -1.288783171780619E-003 -2.918895425121374E-003 -5.573396522451829E-003
 -9.167771110016921E-003 -1.357217217812317E-002 -1.838427778900438E-002
 -2.320014315178548E-002 -2.763890288787426E-002 -3.143970394449276E-002
 -3.447539076661003E-002 -3.679168976136481E-002 -3.848528426515805E-002
 -3.968682183911389E-002 -4.051708164825068E-002  0.000000000000000E+000
 -2.059343134687265E-004 -5.967154644315922E-004 -1.288783171780619E-003
 -2.918895425121374E-003 -5.573396522451829E-003 -9.167771110016921E-003
 -1.357217217812317E-002 -1.838427778900438E-002 -2.320014315178548E-002
 -2.763890288787426E-002 -3.143970394449276E-002 -3.447539076661003E-002
 -3.679168976136481E-002 -3.848528426515805E-002 -3.968682183911389E-002
 -4.051708164825068E-002  0.000000000000000E+000 -2.059343134687265E-004
 -5.967154644315922E-004 -1.288783171780619E-003 -2.918895425121374E-003
 -5.573396522451829E-003 -9.167771110016921E-003 -1.357217217812317E-002
 -1.838427778900438E-002 -2.320014315178548E-002 -2.763890288787426E-002
 -3.143970394449276E-002 -3.447539076661003E-002 -3.679168976136481E-002
 -3.848528426515805E-002 -3.968682183911389E-002 -4.051708164825068E-002
  0.000000000000000E+000 -2.059343134687265E-004 -5.967154644315922E-004
 -1.288783171780619E-003 -2.918895425121374E-003 -5.573396522451829E-003
 -9.167771110016921E-003 -1.357217217812317E-002 -1.838427778900438E-002
 -2.320014315178548E-002 -2.763890288787426E-002 -3.143970394449276E-002
 -3.447539076661003E-002 -3.679168976136481E-002 -3.848528426515805E-002
 -3.968682183911389E-002 -4.051708164825068E-002  0.000000000000000E+000
 -2.059343134687265E-004 -5.967154644315922E-004 -1.288783171780619E-003
 -2.918895425121374E-003 -5.573396522451829E-003 -9.167771110016921E-003
 -1.357217217812317E-002 -1.838427778900438E-002 -2.320014315178548E-002
 -2.763890288787426E-002 -3.143970394449276E-002 -3.447539076661003E-002
 -3.679168976136481E-002 -3.848528426515805E-002 -3.968682183911389E-002
 -4.051708164825068E-002  0.000000000000000E+000 -2.059343134687265E-004
 -5.967154644315922E-004 -1.288783171780619E-003 -2.918895425121374E-003
 -5.573396522451829E-003 -9.167771110016921E-003 -1.357217217812317E-002
 -1.838427778900438E-002 -2.320014315178548E-002 -2.763890288787426E-002
 -3.143970394449276E-002 -3.447539076661003E-002 -3.679168976136481E-002
 -3.848528426515805E-002 -3.968682183911389E-002 -4.051708164825068E-002
  0.000000000000000E+000 -2.059343134687265E-004 -5.967154644315922E-004
 -1.288783171780619E-003 -2.918895425121374E-003 -5.573396522451829E-003
 -9.167771110016921E-003 -1.357217217812317E-002 -1.838427778900438E-002
 -2.320014315178548E-002 -2.763890288787426E-002 -3.143970394449276E-002
 -3.447539076661003E-002 -3.679168976136481E-002 -3.848528426515805E-002
 -3.968682183911389E-002 -4.051708164825068E-002  0.000000000000000E+000
 -2.059343134687265E-004 -5.967154644315922E-004 -1.288783171780619E-003
 -2.918895425121374E-003 -5.573396522451829E-003 -9.167771110016921E-003
 -1.357217217812317E-002 -1.838427778900438E-002 -2.320014315178548E-002
 -2.763890288787426E-002 -3.143970394449276E-002 -3.447539076661003E-002
 -3.679168976136481E-002 -3.848528426515805E-002 -3.968682183911389E-002
 -4.051708164825068E-002  0.000000000000000E+000 -2.059343134687265E-004
 -5.967154644315922E-004 -1.288783171780619E-003 -2.918895425121374E-003
 -5.573396522451829E-003 -9.167771110016921E-003 -1.357217217812317E-002
 -1.838427778900438E-002 -2.320014315178548E-002 -2.763890288787426E-002
 -3.143970394449276E-002 -3.447539076661003E-002 -3.679168976136481E-002
 -3.848528426515805E-002 -3.968682183911389E-002 -4.051708164825068E-002
  0.000000000000000E+000 -2.059343134687265E-004 -5.967154644315922E-004
 -1.288783171780619E-003 -2.918895425121374E-003 -5.573396522451829E-003
 -9.167771110016921E-003 -1.357217217812317E-002 -1.838427778900438E-002
 -2.320014315178548E-002 -2.763890288787426E-002 -3.143970394449276E-002
 -3.447539076661003E-002 -3.679168976136481E-002 -3.848528426515805E-002
 -3.968682183911389E-002 -4.051708164825068E-002  0.000000000000000E+000
 -2.059343134687265E-004 -5.967154644315922E-004 -1.288783171780619E-003
 -2.918895425121374E-003 -5.573396522451829E-003 -9.167771110016921E-003
 -1.357217217812317E-002 -1.838427778900438E-002 -2.320014315178548E-002
 -2.763890288787426E-002 -3.143970394449276E-002 -3.447539076661003E-002
 -3.679168976136481E-002 -3.848528426515805E-002 -3.968682183911389E-002
 -4.051708164825068E-002  0.000000000000000E+000 -2.059343134687265E-004
 -5.967154644315922E-004 -1.288783171780619E-003 -2.918895425121374E-003
 -5.573396522451829E-003 -9.167771110016921E-003 -1.357217217812317E-002
 -1.838427778900438E-002 -2.320014315178548E-002 -2.763890288787426E-002
 -3.143970394449276E-002 -3.447539076661003E-002 -3.679168976136481E-002
 -3.848528426515805E-002 -3.968682183911389E-002 -4.051708164825068E-002
  0.000000000000000E+000 -2.059343134687265E-004 -5.967154644315922E-004
 -1.288783171780619E-003 -2.918895425121374E-003 -5.573396522451829E-003
 -9.167771110016921E-003 -1.357217217812317E-002 -1.838427778900438E-002
 -2.320014315178548E-002 -2.763890288787426E-002 -3.143970394449276E-002
 -3.447539076661003E-002 -3.679168976136481E-002 -3.848528426515805E-002
 -3.968682183911389E-002 -4.051708164825068E-002  0.000000000000000E+000
 -2.059343134687265E-004 -5.967154644315922E-004 -1.288783171780619E-003
 -2.918895425121374E-003 -5.573396522451829E-003 -9.167771110016921E-003
 -1.357217217812317E-002 -1.838427778900438E-002 -2.320014315178548E-002
 -2.763890288787426E-002 -3.143970394449276E-002 -3.447539076661003E-002
 -3.679168976136481E-002 -3.848528426515805E-002 -3.968682183911389E-002
 -4.051708164825068E-002  0.000000000000000E+000 -2.059343134687265E-004
 -5.967154644315922E-004 -1.288783171780619E-003 -2.918895425121374E-003
 -5.573396522451829E-003 -9.167771110016921E-003 -1.357217217812317E-002
 -1.838427778900438E-002 -2.320014315178548E-002 -2.763890288787426E-002
 -3.143970394449276E-002 -3.447539076661003E-002 -3.679168976136481E-002
 -3.848528426515805E-002 -3.968682183911389E-002 -4.051708164825068E-002
  0.000000000000000E+000 -2.059343134687265E-004 -5.967154644315922E-004
 -1.288783171780619E-003 -2.918895425121374E-003 -5.573396522451829E-003
 -9.167771110016921E-003 -1.357217217812317E-002 -1.838427778900438E-002
 -2.320014315178548E-002 -2.763890288787426E-002 -3.143970394449276E-002
 -3.447539076661003E-002 -3.679168976136481E-002 -3.848528426515805E-002
 -3.968682183911389E-002 -4.051708164825068E-002  0.000000000000000E+000
 -2.059343134687265E-004 -5.967154644315922E-004 -1.288783171780619E-003
 -2.918895425121374E-003 -5.573396522451829E-003 -9.167771110016921E-003
 -1.357217217812317E-002 -1.838427778900438E-002 -2.320014315178548E-002
 -2.763890288787426E-002 -3.143970394449276E-002 -3.447539076661003E-002
 -3.679168976136481E-002 -3.848528426515805E-002 -3.968682183911389E-002
 -4.051708164825068E-002  0.000000000000000E+000 -2.059343134687265E-004
 -5.967154644315922E-004 -1.288783171780619E-003 -2.918895425121374E-003
 -5.573396522451829E-003 -9.167771110016921E-003 -1.357217217812317E-002
 -1.838427778900438E-002 -2.320014315178548E-002 -2.763890288787426E-002
 -3.143970394449276E-002 -3.447539076661003E-002 -3.679168976136481E-002
 -3.848528426515805E-002 -3.968682183911389E-002 -4.051708164825068E-002
  0.000000000000000E+000 -2.059343134687265E-004 -5.967154644315922E-004
 -1.288783171780619E-003 -2.918895425121374E-003 -5.573396522451829E-003
 -9.167771110016921E-003 -1.357217217812317E-002 -1.838427778900438E-002
 -2.320014315178548E-002 -2.763890288787426E-002 -3.143970394449276E-002
 -3.447539076661003E-002 -3.679168976136481E-002 -3.848528426515805E-002
 -3.968682183911389E-002 -4.051708164825068E-002  0.000000000000000E+000
 -2.059343134687265E-004 -5.967154644315922E-004 -1.288783171780619E-003
 -2.918895425121374E-003 -5.573396522451829E-003 -9.167771110016921E-003
 -1.357217217812317E-002 -1.838427778900438E-002 -2.320014315178548E-002
 -2.763890288787426E-002 -3.143970394449276E-002 -3.447539076661003E-002
 -3.679168976136481E-002 -3.848528426515805E-002 -3.968682183911389E-002
 -4.051708164825068E-002
 -0.150484226841398      -0.293522350256205      -0.360347342030178     
 -0.335270213935969      -0.294271247233306      -0.262953033584685     
 -0.239938769420203      -0.233837214314629      -0.236959010350548     
 -0.246106608962756      -0.258626505009837      -0.272964914980583     
 -0.285326533060062      -0.295731097830154      -0.303573390903496     
 -0.308524702582288      -0.182573501336698      -0.366173039984687     
 -0.467303141313961      -0.454267956580069      -0.406264299100155     
 -0.361699678823792      -0.326423049030440      -0.314523756706403     
 -0.317325489584249      -0.330321125671293      -0.349534089696151     
 -0.372190692329898      -0.393029338425449      -0.411193618732608     
 -0.424803838755140      -0.432511828553012      -0.190411521738788     
 -0.384716728675300      -0.496323522376800      -0.488229482793100     
 -0.437082905746723      -0.382767848605459      -0.335982541324237     
 -0.315928118444392      -0.315216957644118      -0.328931277115965     
 -0.351922480965090      -0.379819005610765      -0.405459968029989     
 -0.426658791173630      -0.441346897064495      -0.449001506585799     
 -0.180143242700304      -0.364701447845795      -0.466970565661570     
 -0.446741763599301      -0.381561852614277      -0.311272625374170     
 -0.247855037922207      -0.213975169869004      -0.203877562000060     
 -0.212634293749181      -0.233748907184637      -0.260979916318105     
 -0.285675049881612      -0.305513143668580      -0.318865891388478     
 -0.325582865916842      -0.149499304024746      -0.302055169146569     
 -0.373130615860658      -0.318238951638327      -0.218037505572015     
 -0.114221766132564      -1.973830579988365E-002  4.042979448360696E-002
  7.126749352568436E-002  7.793812419736058E-002  6.820676956172042E-002
  4.953002354125060E-002  3.127053008889766E-002  1.587159698027264E-002
  5.336554996501247E-003  1.221218251878331E-004 -9.280296202855565E-002
 -0.185186798211392      -0.197588599043593      -7.893438943941508E-002
  8.586972508658093E-002  0.251453130116792       0.402544722561263     
  0.511164060671986       0.581813584190661       0.619910137707011     
  0.634071543363404       0.632567127553649       0.625973828971717     
  0.617935510669938       0.611729959754390       0.608614003125665     
 -3.244538641152415E-003 -4.321911421812172E-005  8.052040889495733E-002
  0.299145894137565       0.565995639787818       0.830497055126424     
   1.07331640990250        1.26152623731934        1.39813787284012     
   1.48818086976388        1.54099274171746        1.56630844097214     
   1.57732976050528        1.58010960180182        1.58000652722077     
   1.57968108741645       0.123544603276789       0.262375511722381     
  0.474410359408349       0.833307374811136        1.24384185049825     
   1.64880289560680        2.02295729408114        2.32604873999704     
   2.55799968678242        2.72262213357120        2.83022611564717     
   2.89311153953001        2.92854706219061        2.94608147356954     
   2.95406304577684        2.95731250871659       0.284167678217927     
  0.594951566309153       0.973162007722847        1.50831904800662     
   2.09951527591185        2.68168492080842        3.22212243052739     
   3.67124622927664        4.02457413070707        4.28409372730690     
   4.46136024798246        4.57203559914143        4.63845671970736     
   4.67455251067563        4.69255228932527        4.70016212142937     
  0.462865231439432       0.964930367406272        1.52764594154157     
   2.25789242775276        3.04887393472373        3.82704538088066     
   4.55154775069680        5.16269792821123        5.65119745745285     
   6.01698733564714        6.27284059651438        6.43786095559625     
   6.53969823263247        6.59702730637804        6.62645846549885     
   6.63902453772791       0.632531409688392        1.31601737567335     
   2.05367749468888        2.96899558973787        3.94902903942291     
   4.91202249777215        5.80973262226752        6.57351762743256     
   7.19026943856489        7.65823276510919        7.99095053589691     
   8.21009318544576        8.34778680040791        8.42690425099303     
   8.46818168449598        8.48591571881851       0.763951225376388     
   1.58747966229809        2.46033957964302        3.51940400450550     
   4.64510665074997        5.74858174183075        6.77649195834278     
   7.65455328474161        8.36867526845319        8.91668256078178     
   9.31213143925314        9.57730946920573        9.74670111364852     
   9.84574337624194        9.89815508551061        9.92084178620039     
  0.838121635196526        1.73966703814991        2.68788037128160     
   3.82801212908683        5.03307122284125        6.20850287238098     
   7.29906110851056        8.22984015579370        8.99049118556320     
   9.58115147399354        10.0148709669590        10.3117026950357     