 Title = "Wing and Wake"
 VARIABLES = "X" "Y" "Z" "GAM" "skew"
 Zone I=   17 J=   20 K=1  T="Blade 01"
 DATAPACKING=BLOCK
 VARLOCATION=([4]=CELLCENTERED,[5]=CELLCENTERED)
  0.430513849156728       0.429910303135933       0.428359101540890     
  0.426024476763531       0.422821316475762       0.418619247491487     
  0.413384201101008       0.407273511463084       0.400654849541472     
  0.394046760918679       0.387962931959865       0.382762736931116     
  0.378601189324501       0.375432782772237       0.373116208866839     
  0.371472061902647       0.370337574347187       0.438573982141875     
  0.437970436121080       0.436419234526037       0.434084609748679     
  0.430881449460910       0.426679380476635       0.421444334086156     
  0.415333644448232       0.408714982526619       0.402106893903826     
  0.396023064945013       0.390822869916263       0.386661322309649     
  0.383492915757385       0.381176341851987       0.379532194887794     
  0.378397707332335       0.449972847415615       0.449369301394820     
  0.447818099799777       0.445483475022418       0.442280314734649     
  0.438078245750374       0.432843199359895       0.426732509721971     
  0.420113847800359       0.413505759177565       0.407421930218752     
  0.402221735190003       0.398060187583388       0.394891781031125     
  0.392575207125725       0.390931060161533       0.389796572606075     
  0.465886074784703       0.465282528763908       0.463731327168866     
  0.461396702391507       0.458193542103738       0.453991473119462     
  0.448756426728984       0.442645737091060       0.436027075169447     
  0.429418986546653       0.423335157587840       0.418134962559091     
  0.413973414952476       0.410805008400213       0.408488434494814     
  0.406844287530622       0.405709799975163       0.487704880984104     
  0.487101334963309       0.485550133368267       0.483215508590907     
  0.480012348303138       0.475810279318862       0.470575232928385     
  0.464464543290461       0.457845881368848       0.451237792746054     
  0.445153963787241       0.439953768758492       0.435792221151877     
  0.432623814599614       0.430307240694215       0.428663093730022     
  0.427528606174563       0.516893284434775       0.516289738413980     
  0.514738536818937       0.512403912041578       0.509200751753809     
  0.504998682769534       0.499763636379054       0.493652946741132     
  0.487034284819518       0.480426196196725       0.474342367237911     
  0.469142172209163       0.464980624602548       0.461812218050284     
  0.459495644144886       0.457851497180693       0.456717009625234     
  0.554680271533982       0.554076725513188       0.552525523918146     
  0.550190899140786       0.546987738853017       0.542785669868741     
  0.537550623478263       0.531439933840340       0.524821271918727     
  0.518213183295933       0.512129354337121       0.506929159308370     
  0.502767611701756       0.499599205149493       0.497282631244093     
  0.495638484279902       0.494503996724442       0.601574420769445     
  0.600970874748650       0.599419673153607       0.597085048376249     
  0.593881888088481       0.589679819104205       0.584444772713725     
  0.578334083075802       0.571715421154189       0.565107332531395     
  0.559023503572583       0.553823308543833       0.549661760937218     
  0.546493354384955       0.544176780479557       0.542532633515364     
  0.541398145959906       0.656811361407036       0.656207815386243     
  0.654656613791200       0.652321989013840       0.649118828726071     
  0.644916759741795       0.639681713351318       0.633571023713394     
  0.626952361791781       0.620344273168988       0.614260444210174     
  0.609060249181425       0.604898701574810       0.601730295022547     
  0.599413721117147       0.597769574152956       0.596635086597496     
  0.718012967662671       0.717409421641876       0.715858220046833     
  0.713523595269475       0.710320434981706       0.706118365997430     
  0.700883319606952       0.694772629969028       0.688153968047415     
  0.681545879424622       0.675462050465808       0.670261855437059     
  0.666100307830444       0.662931901278181       0.660615327372782     
  0.658971180408589       0.657836692853131       0.781391579173725     
  0.780788033152931       0.779236831557887       0.776902206780530     
  0.773699046492760       0.769496977508485       0.764261931118006     
  0.758151241480082       0.751532579558469       0.744924490935675     
  0.738840661976863       0.733640466948114       0.729478919341499     
  0.726310512789236       0.723993938883837       0.722349791919644     
  0.721215304364184       0.842593185429361       0.841989639408565     
  0.840438437813523       0.838103813036164       0.834900652748395     
  0.830698583764119       0.825463537373640       0.819352847735716     
  0.812734185814104       0.806126097191311       0.800042268232497     
  0.794842073203746       0.790680525597132       0.787512119044869     
  0.785195545139471       0.783551398175279       0.782416910619819     
  0.897830126066953       0.897226580046157       0.895675378451113     
  0.893340753673756       0.890137593385987       0.885935524401710     
  0.880700478011232       0.874589788373309       0.867971126451695     
  0.861363037828901       0.855279208870089       0.850079013841338     
  0.845917466234724       0.842749059682461       0.840432485777063     
  0.838788338812870       0.837653851257410       0.944724275302412     
  0.944120729281619       0.942569527686576       0.940234902909217     
  0.937031742621448       0.932829673637173       0.927594627246694     
  0.921483937608771       0.914865275687158       0.908257187064365     
  0.902173358105551       0.896973163076801       0.892811615470187     
  0.889643208917924       0.887326635012525       0.885682488048333     
  0.884548000492874       0.982511262401622       0.981907716380827     
  0.980356514785784       0.978021890008426       0.974818729720658     
  0.970616660736382       0.965381614345903       0.959270924707979     
  0.952652262786366       0.946044174163573       0.939960345204759     
  0.934760150176010       0.930598602569395       0.927430196017133     
  0.925113622111732       0.923469475147541       0.922334987592082     
   1.01169966585229        1.01109611983150        1.00954491823646     
   1.00721029345910        1.00400713317133       0.999805064187053     
  0.994570017796573       0.988459328158652       0.981840666237034     
  0.975232577614244       0.969148748655430       0.963948553626680     
  0.959787006020064       0.956618599467802       0.954302025562405     
  0.952657878598212       0.951523391042754        1.03351847205170     
   1.03291492603090        1.03136372443586        1.02902909965850     
   1.02582593937073        1.02162387038645        1.01638882399597     
   1.01027813435805        1.00365947243644       0.997051383813644     
  0.990967554854830       0.985767359826081       0.981605812219465     
  0.978437405667202       0.976120831761805       0.974476684797614     
  0.973342197242152        1.04943169942078        1.04882815339999     
   1.04727695180494        1.04494232702759        1.04173916673982     
   1.03753709775554        1.03230205136506        1.02619136172714     
   1.01957269980553        1.01296461118273        1.00688078222392     
   1.00168058719517       0.997519039588554       0.994350633036294     
  0.992034059130894       0.990389912166701       0.989255424611241     
   1.06083056469452        1.06022701867372        1.05867581707868     
   1.05634119230133        1.05313803201356        1.04893596302928     
   1.04370091663880        1.03759022700088        1.03097156507927     
   1.02436347645647        1.01827964749766        1.01307945246891     
   1.00891790486229        1.00574949831003        1.00343292440463     
   1.00178877744044        1.00065428988498        1.06889069767967     
   1.06828715165888        1.06673595006383        1.06440132528647     
   1.06119816499870        1.05699609601443        1.05176104962395     
   1.04565035998602        1.03903169806441        1.03242360944162     
   1.02633978048281        1.02113958545406        1.01697803784744     
   1.01380963129518        1.01149305738978        1.00984891042559     
   1.00871442287013     
 -6.127486936345681E-002 -6.292834912121553E-002 -6.717803406525429E-002
 -7.357399175252712E-002 -8.234939663334997E-002 -9.386142018551769E-002
 -0.108203397332822      -0.124944294089873      -0.143076835990200     
 -0.161180411192101      -0.177847720206611      -0.192094218270030     
 -0.203495229114946      -0.212175422369504      -0.218521927736046     
 -0.223026246595597      -0.226134298249904      -6.421694420134551E-002
 -6.587042395910508E-002 -7.012010890314414E-002 -7.651606659041682E-002
 -8.529147147123982E-002 -9.680349502340717E-002 -0.111145472170711     
 -0.127886368927763      -0.146018910828089      -0.164122486029991     
 -0.180789795044501      -0.195036293107919      -0.206437303952836     
 -0.215117497207394      -0.221464002573936      -0.225968321433487     
 -0.229076373087793      -6.837770864086111E-002 -7.003118839862017E-002
 -7.428087334265887E-002 -8.067683102993183E-002 -8.945223591075395E-002
 -0.100964259462922      -0.115306236610227      -0.132047133367278     
 -0.150179675267605      -0.168283250469505      -0.184950559484016     
 -0.199197057547434      -0.210598068392351      -0.219278261646908     
 -0.225624767013451      -0.230129085873002      -0.233237137527309     
 -7.418628598300742E-002 -7.583976574076656E-002 -8.008945068480471E-002
 -8.648540837207774E-002 -9.526081325290107E-002 -0.106772836805068     
 -0.121114813952373      -0.137855710709424      -0.155988252609751     
 -0.174091827811651      -0.190759136826162      -0.205005634889580     
 -0.216406645734497      -0.225086838989055      -0.231433344355596     
 -0.235937663215148      -0.239045714869455      -8.215049213572653E-002
 -8.380397189348540E-002 -8.805365683752410E-002 -9.444961452479698E-002
 -0.103225019405620      -0.114737042957788      -0.129079020105092     
 -0.145819916862143      -0.163952458762470      -0.182056033964371     
 -0.198723342978881      -0.212969841042300      -0.224370851887216     
 -0.233051045141774      -0.239397550508316      -0.243901869367867     
 -0.247009921022174      -9.280471676311562E-002 -9.445819652087484E-002
 -9.870788146491345E-002 -0.105103839152186      -0.113879244033009     
 -0.125391267585177      -0.139733244732481      -0.156474141489532     
 -0.174606683389859      -0.192710258591760      -0.209377567606270     
 -0.223624065669689      -0.235025076514605      -0.243705269769163     
 -0.250051775135705      -0.254556093995256      -0.257664145649563     
 -0.106597559157788      -0.108251038915547      -0.112500723859586     
 -0.118896681546859      -0.127672086427682      -0.139184109979849     
 -0.153526087127154      -0.170266983884204      -0.188399525784531     
 -0.206503100986433      -0.223170410000943      -0.237416908064360     
 -0.248817918909278      -0.257498112163836      -0.263844617530377     
 -0.268348936389929      -0.271456988044236      -0.123714658436935     
 -0.125368138194694      -0.129617823138733      -0.136013780826006     
 -0.144789185706829      -0.156301209258997      -0.170643186406300     
 -0.187384083163352      -0.205516625063679      -0.223620200265579     
 -0.240287509280090      -0.254534007343509      -0.265935018188425     
 -0.274615211442983      -0.280961716809525      -0.285466035669075     
 -0.288574087323383      -0.143877007305288      -0.145530487063047     
 -0.149780172007086      -0.156176129694358      -0.164951534575182     
 -0.176463558127349      -0.190805535274654      -0.207546432031705     
 -0.225678973932032      -0.243782549133933      -0.260449858148443     
 -0.274696356211861      -0.286097367056777      -0.294777560311335     
 -0.301124065677877      -0.305628384537429      -0.308736436191736     
 -0.166216552587596      -0.167870032345355      -0.172119717289394     
 -0.178515674976667      -0.187291079857490      -0.198803103409658     
 -0.213145080556963      -0.229885977314013      -0.248018519214340     
 -0.266122094416241      -0.282789403430752      -0.297035901494170     
 -0.308436912339086      -0.317117105593645      -0.323463610960186     
 -0.327967929819738      -0.331075981474045      -0.189350738900732     
 -0.191004218658492      -0.195253903602531      -0.201649861289804     
 -0.210425266170626      -0.221937289722794      -0.236279266870098     
 -0.253020163627149      -0.271152705527476      -0.289256280729377     
 -0.305923589743888      -0.320170087807306      -0.331571098652222     
 -0.340251291906781      -0.346597797273323      -0.351102116132873     
 -0.354210167787181      -0.211690284183041      -0.213343763940800     
 -0.217593448884840      -0.223989406572111      -0.232764811452935     
 -0.244276835005103      -0.258618812152407      -0.275359708909458     
 -0.293492250809785      -0.311595826011687      -0.328263135026196     
 -0.342509633089614      -0.353910643934531      -0.362590837189089     
 -0.368937342555631      -0.373441661415182      -0.376549713069489     
 -0.231852633051395      -0.233506112809153      -0.237755797753192     
 -0.244151755440465      -0.252927160321289      -0.264439183873456     
 -0.278781161020761      -0.295522057777811      -0.313654599678139     
 -0.331758174880038      -0.348425483894550      -0.362671981957967     
 -0.374072992802884      -0.382753186057441      -0.389099691423984     
 -0.393604010283535      -0.396712061937842      -0.248969732330541     
 -0.250623212088301      -0.254872897032339      -0.261268854719612     
 -0.270044259600435      -0.281556283152602      -0.295898260299907     
 -0.312639157056958      -0.330771698957285      -0.348875274159186     
 -0.365542583173696      -0.379789081237114      -0.391190092082031     
 -0.399870285336589      -0.406216790703131      -0.410721109562682     
 -0.413829161216990      -0.262762574725213      -0.264416054482973     
 -0.268665739427012      -0.275061697114285      -0.283837101995107     
 -0.295349125547276      -0.309691102694580      -0.326431999451631     
 -0.344564541351959      -0.362668116553859      -0.379335425568369     
 -0.393581923631787      -0.404982934476703      -0.413663127731262     
 -0.420009633097803      -0.424513951957355      -0.427622003611661     
 -0.273416799352602      -0.275070279110362      -0.279319964054402     
 -0.285715921741674      -0.294491326622497      -0.306003350174664     
 -0.320345327321969      -0.337086224079021      -0.355218765979346     
 -0.373322341181247      -0.389989650195758      -0.404236148259176     
 -0.415637159104092      -0.424317352358650      -0.430663857725193     
 -0.435168176584744      -0.438276228239053      -0.281381005505323     
 -0.283034485263082      -0.287284170207121      -0.293680127894393     
 -0.302455532775216      -0.313967556327384      -0.328309533474687     
 -0.345050430231740      -0.363182972132067      -0.381286547333967     
 -0.397953856348477      -0.412200354411896      -0.423601365256812     
 -0.432281558511370      -0.438628063877911      -0.443132382737464     
 -0.446240434391771      -0.287189582847469      -0.288843062605227     
 -0.293092747549266      -0.299488705236541      -0.308264110117361     
 -0.319776133669531      -0.334118110816834      -0.350859007573885     
 -0.368991549474212      -0.387095124676114      -0.403762433690624     
 -0.418008931754042      -0.429409942598958      -0.438090135853517     
 -0.444436641220059      -0.448940960079609      -0.452049011733917     
 -0.291350347286983      -0.293003827044742      -0.297253511988781     
 -0.303649469676055      -0.312424874556878      -0.323936898109045     
 -0.338278875256349      -0.355019772013401      -0.373152313913728     
 -0.391255889115629      -0.407923198130139      -0.422169696193555     
 -0.433570707038473      -0.442250900293031      -0.448597405659573     
 -0.453101724519124      -0.456209776173431      -0.294292422124873     
 -0.295945901882632      -0.300195586826672      -0.306591544513944     
 -0.315366949394767      -0.326878972946935      -0.341220950094239     
 -0.357961846851290      -0.376094388751617      -0.394197963953517     
 -0.410865272968028      -0.425111771031447      -0.436512781876363     
 -0.445192975130920      -0.451539480497462      -0.456043799357015     
 -0.459151851011321     
  0.000000000000000E+000 -2.059343134687265E-004 -5.967154644315922E-004
 -1.288783171780619E-003 -2.918895425121374E-003 -5.573396522451829E-003
 -9.167771110016921E-003 -1.357217217812317E-002 -1.838427778900438E-002
 -2.320014315178548E-002 -2.763890288787426E-002 -3.143970394449276E-002
 -3.447539076661003E-002 -3.679168976136481E-002 -3.848528426515805E-002
 -3.968682183911389E-002 -4.051708164825068E-002  0.000000000000000E+000
 -2.059343134687265E-004 -5.967154644315922E-004 -1.288783171780619E-003
 -2.918895425121374E-003 -5.573396522451829E-003 -9.167771110016921E-003
 -1.357217217812317E-002 -1.838427778900438E-002 -2.320014315178548E-002
 -2.763890288787426E-002 -3.143970394449276E-002 -3.447539076661003E-002
 -3.679168976136481E-002 -3.848528426515805E-002 -3.968682183911389E-002
 -4.051708164825068E-002  0.000000000000000E+000 -2.059343134687265E-004
 -5.967154644315922E-004 -1.288783171780619E-003 -2.918895425121374E-003
 -5.573396522451829E-003 -9.167771110016921E-003 -1.357217217812317E-002
 -1.838427778900438E-002 -2.320014315178548E-002 -2.763890288787426E-002
 -3.143970394449276E-002 -3.447539076661003E-002 -3.679168976136481E-002
 -3.848528426515805E-002 -3.968682183911389E-002 -4.051708164825068E-002
  0.000000000000000E+000 -2.059343134687265E-004 -5.967154644315922E-004
 -1.288783171780619E-003 -2.918895425121374E-003 -5.573396522451829E-003
 -9.167771110016921E-003 -1.357217217812317E-002 -1.838427778900438E-002
 -2.320014315178548E-002 -2.763890288787426E-002 -3.143970394449276E-002
 -3.447539076661003E-002 -3.679168976136481E-002 -3.848528426515805E-002
 -3.968682183911389E-002 -4.051708164825068E-002  0.000000000000000E+000
 -2.059343134687265E-004 -5.967154644315922E-004 -1.288783171780619E-003
 -2.918895425121374E-003 -5.573396522451829E-003 -9.167771110016921E-003
 -1.357217217812317E-002 -1.838427778900438E-002 -2.320014315178548E-002
 -2.763890288787426E-002 -3.143970394449276E-002 -3.447539076661003E-002
 -3.679168976136481E-002 -3.848528426515805E-002 -3.968682183911389E-002
 -4.051708164825068E-002  0.000000000000000E+000 -2.059343134687265E-004
 -5.967154644315922E-004 -1.288783171780619E-003 -2.918895425121374E-003
 -5.573396522451829E-003 -9.167771110016921E-003 -1.357217217812317E-002
 -1.838427778900438E-002 -2.320014315178548E-002 -2.763890288787426E-002
 -3.143970394449276E-002 -3.447539076661003E-002 -3.679168976136481E-002
 -3.848528426515805E-002 -3.968682183911389E-002 -4.051708164825068E-002
  0.000000000000000E+000 -2.059343134687265E-004 -5.967154644315922E-004
 -1.288783171780619E-003 -2.918895425121374E-003 -5.573396522451829E-003
 -9.167771110016921E-003 -1.357217217812317E-002 -1.838427778900438E-002
 -2.320014315178548E-002 -2.763890288787426E-002 -3.143970394449276E-002
 -3.447539076661003E-002 -3.679168976136481E-002 -3.848528426515805E-002
 -3.968682183911389E-002 -4.051708164825068E-002  0.000000000000000E+000
 -2.059343134687265E-004 -5.967154644315922E-004 -1.288783171780619E-003
 -2.918895425121374E-003 -5.573396522451829E-003 -9.167771110016921E-003
 -1.357217217812317E-002 -1.838427778900438E-002 -2.320014315178548E-002
 -2.763890288787426E-002 -3.143970394449276E-002 -3.447539076661003E-002
 -3.679168976136481E-002 -3.848528426515805E-002 -3.968682183911389E-002
 -4.051708164825068E-002  0.000000000000000E+000 -2.059343134687265E-004
 -5.967154644315922E-004 -1.288783171780619E-003 -2.918895425121374E-003
 -5.573396522451829E-003 -9.167771110016921E-003 -1.357217217812317E-002
 -1.838427778900438E-002 -2.320014315178548E-002 -2.763890288787426E-002
 -3.143970394449276E-002 -3.447539076661003E-002 -3.679168976136481E-002
 -3.848528426515805E-002 -3.968682183911389E-002 -4.051708164825068E-002
  0.000000000000000E+000 -2.059343134687265E-004 -5.967154644315922E-004
 -1.288783171780619E-003 -2.918895425121374E-003 -5.573396522451829E-003
 -9.167771110016921E-003 -1.357217217812317E-002 -1.838427778900438E-002
 -2.320014315178548E-002 -2.763890288787426E-002 -3.143970394449276E-002
 -3.447539076661003E-002 -3.679168976136481E-002 -3.848528426515805E-002
 -3.968682183911389E-002 -4.051708164825068E-002  0.000000000000000E+000
 -2.059343134687265E-004 -5.967154644315922E-004 -1.288783171780619E-003
 -2.918895425121374E-003 -5.573396522451829E-003 -9.167771110016921E-003
 -1.357217217812317E-002 -1.838427778900438E-002 -2.320014315178548E-002
 -2.763890288787426E-002 -3.143970394449276E-002 -3.447539076661003E-002
 -3.679168976136481E-002 -3.848528426515805E-002 -3.968682183911389E-002
 -4.051708164825068E-002  0.000000000000000E+000 -2.059343134687265E-004
 -5.967154644315922E-004 -1.288783171780619E-003 -2.918895425121374E-003
 -5.573396522451829E-003 -9.167771110016921E-003 -1.357217217812317E-002
 -1.838427778900438E-002 -2.320014315178548E-002 -2.763890288787426E-002
 -3.143970394449276E-002 -3.447539076661003E-002 -3.679168976136481E-002
 -3.848528426515805E-002 -3.968682183911389E-002 -4.051708164825068E-002
  0.000000000000000E+000 -2.059343134687265E-004 -5.967154644315922E-004
 -1.288783171780619E-003 -2.918895425121374E-003 -5.573396522451829E-003
 -9.167771110016921E-003 -1.357217217812317E-002 -1.838427778900438E-002
 -2.320014315178548E-002 -2.763890288787426E-002 -3.143970394449276E-002
 -3.447539076661003E-002 -3.679168976136481E-002 -3.848528426515805E-002
 -3.968682183911389E-002 -4.051708164825068E-002  0.000000000000000E+000
 -2.059343134687265E-004 -5.967154644315922E-004 -1.288783171780619E-003
 -2.918895425121374E-003 -5.573396522451829E-003 -9.167771110016921E-003
 -1.357217217812317E-002 -1.838427778900438E-002 -2.320014315178548E-002
 -2.763890288787426E-002 -3.143970394449276E-002 -3.447539076661003E-002
 -3.679168976136481E-002 -3.848528426515805E-002 -3.968682183911389E-002
 -4.051708164825068E-002  0.000000000000000E+000 -2.059343134687265E-004
 -5.967154644315922E-004 -1.288783171780619E-003 -2.918895425121374E-003
 -5.573396522451829E-003 -9.167771110016921E-003 -1.357217217812317E-002
 -1.838427778900438E-002 -2.320014315178548E-002 -2.763890288787426E-002
 -3.143970394449276E-002 -3.447539076661003E-002 -3.679168976136481E-002
 -3.848528426515805E-002 -3.968682183911389E-002 -4.051708164825068E-002
  0.000000000000000E+000 -2.059343134687265E-004 -5.967154644315922E-004
 -1.288783171780619E-003 -2.918895425121374E-003 -5.573396522451829E-003
 -9.167771110016921E-003 -1.357217217812317E-002 -1.838427778900438E-002
 -2.320014315178548E-002 -2.763890288787426E-002 -3.143970394449276E-002
 -3.447539076661003E-002 -3.679168976136481E-002 -3.848528426515805E-002
 -3.968682183911389E-002 -4.051708164825068E-002  0.000000000000000E+000
 -2.059343134687265E-004 -5.967154644315922E-004 -1.288783171780619E-003
 -2.918895425121374E-003 -5.573396522451829E-003 -9.167771110016921E-003
 -1.357217217812317E-002 -1.838427778900438E-002 -2.320014315178548E-002
 -2.763890288787426E-002 -3.143970394449276E-002 -3.447539076661003E-002
 -3.679168976136481E-002 -3.848528426515805E-002 -3.968682183911389E-002
 -4.051708164825068E-002  0.000000000000000E+000 -2.059343134687265E-004
 -5.967154644315922E-004 -1.288783171780619E-003 -2.918895425121374E-003
 -5.573396522451829E-003 -9.167771110016921E-003 -1.357217217812317E-002
 -1.838427778900438E-002 -2.320014315178548E-002 -2.763890288787426E-002
 -3.143970394449276E-002 -3.447539076661003E-002 -3.679168976136481E-002
 -3.848528426515805E-002 -3.968682183911389E-002 -4.051708164825068E-002
  0.000000000000000E+000 -2.059343134687265E-004 -5.967154644315922E-004
 -1.288783171780619E-003 -2.918895425121374E-003 -5.573396522451829E-003
 -9.167771110016921E-003 -1.357217217812317E-002 -1.838427778900438E-002
 -2.320014315178548E-002 -2.763890288787426E-002 -3.143970394449276E-002
 -3.447539076661003E-002 -3.679168976136481E-002 -3.848528426515805E-002
 -3.968682183911389E-002 -4.051708164825068E-002  0.000000000000000E+000
 -2.059343134687265E-004 -5.967154644315922E-004 -1.288783171780619E-003
 -2.918895425121374E-003 -5.573396522451829E-003 -9.167771110016921E-003
 -1.357217217812317E-002 -1.838427778900438E-002 -2.320014315178548E-002
 -2.763890288787426E-002 -3.143970394449276E-002 -3.447539076661003E-002
 -3.679168976136481E-002 -3.848528426515805E-002 -3.968682183911389E-002
 -4.051708164825068E-002
 -0.277204016420281      -0.543886112592359      -0.620170075331075     
 -0.437462500883919      -0.221819904101282      -4.874345628553554E-002
  8.824968062791708E-002  0.164479323767264       0.205920452344182     
  0.223557218480258       0.225194059525632       0.214308061715827     
  0.201881348092094       0.188286956142441       0.177269103565642     
  0.171029340863461      -0.324347632359316      -0.650070770672941     
 -0.763084589273566      -0.552774175888973      -0.259014813694398     
  2.541489285153575E-003  0.217363323735516       0.345780190229808     
  0.418903942550504       0.453241852383355       0.461346948962339     
  0.450651012582453       0.436880164142428       0.422294211244175     
  0.411242633584907       0.405221898458074      -0.323565151826894     
 -0.650646826527187      -0.758940116732866      -0.521716074928039     
 -0.175120176877673       0.156072542937269       0.440651448992278     
  0.623909461006365       0.734856904971200       0.792854605852794     
  0.814640040089951       0.811666977330491       0.802982272452507     
  0.791833657385048       0.782721259674163       0.777497403872037     
 -0.290037852225555      -0.582009054978852      -0.651209342808515     
 -0.359880775787492       5.204563545885810E-002  0.456880792980395     
  0.816455542504198        1.06420432366243        1.22466177798348     
   1.31770371377533        1.36327367498431        1.37608303581942     
   1.37778517173053        1.37276057018170        1.36685689481459     
   1.36312824945691      -0.223297590429295      -0.444063707699464     
 -0.438144223572097      -5.480407551027058E-002  0.456125017186422     
  0.960691141698782        1.41630877468419        1.74753341073205     
   1.97538458478688        2.11914193608861        2.20082066655112     
   2.23773160171763        2.25465355441239        2.25837157320767     
   2.25724562274358        2.25583039557423      -0.117450105755400     
 -0.224751309530951      -0.101084815912103       0.421740118730836     
   1.07952287842707        1.72777571750615        2.31752648176399     
   2.76365619434593        3.08456284333244        3.29890992242076     
   3.43067565553828        3.50037795956876        3.53764907580626     
   3.55316855350707        3.55857845416255        3.56024191093825     
  3.535589710503816E-002  9.215726532685814E-002  0.384424275478328     
   1.10354282720109        1.96699239274706        2.81563437832065     
   3.59082202212158        4.19432169276903        4.64125610868352     
   4.94990440551263        5.14740557794151        5.25943386522641     
   5.32279799143523        5.35342402773672        5.36701901162131     
   5.37239254991800       0.242085611640147       0.521010364119768     
   1.03945994342775        2.01824700055851        3.15295830470647     
   4.26577749993553        5.28472805047636        6.09413436662333     
   6.70436485612645        7.13354006568959        7.41380187014262     
   7.57846599530468        7.67393938701714        7.72282901865077     
   7.74601088736348        7.75559722021234       0.506990276409283     
   1.07045335227858        1.87588768653755        3.17946072016742     
   4.65218880476648        6.09397960968286        7.41597597646774     
   8.48093947362854        9.29289380988798        9.86993972617311     
   10.2509274989458        10.4791065126770        10.6128180868065     
   10.6830232304346        10.7171086631609        10.7313744236759     
  0.832787337694617        1.74575000329732        2.89950194979757     
   4.59045500172794        6.46402230162914        8.29531359404041     
   9.97587482853705        11.3441282090800        12.3966845307298     
   13.1515560393770        13.6550079232242        13.9613605230583     
   14.1424710858426        14.2391905850616        14.2868195213343     
   14.3068328475401        1.21910286088511        2.54510510627604     
   4.10372311607430        6.23453711887169        8.55825480668683     
   10.8244180731451        12.9044749464910        14.6132037734923     
   15.9410064775889        16.9062095551846        17.5614665071916     
   17.9704249841025        18.2173064891246        18.3527899680149     
   18.4210281645632        18.4499502820347        1.63150466543649     
   3.39572011160551        5.37571605780177        7.95263732911380     
   10.7241857230029        13.4158343344989        15.8822873853575     
   17.9210844918612        19.5220640055851        20.7062318907329     
   21.5303665703324        22.0624748218823        22.3942441012983     
   22.5831250273449        22.6811990592230        22.7234533486527     
   1.97214010174193        4.09482141686320        6.41378168389807     
   9.34258909770422        12.4566609809939        15.4613733289241     
   18.2023771280340        20.4723003143625        22.2710419559914     
   23.6271768666074        24.5982838771827        25.2484579531381     