 Title = "Wing and Wake"
 VARIABLES = "X" "Y" "Z" "GAM" "skew"
 Zone I=   17 J=   20 K=1  T="Blade 01"
 DATAPACKING=BLOCK
 VARLOCATION=([4]=CELLCENTERED,[5]=CELLCENTERED)
  0.430513849156728       0.429910303135933       0.428359101540891     
  0.426024476763532       0.422821316475762       0.418619247491487     
  0.413384201101009       0.407273511463084       0.400654849541472     
  0.394046760918679       0.387962931959865       0.382762736931116     
  0.378601189324501       0.375432782772237       0.373116208866839     
  0.371472061902647       0.370337574347186       0.438573982141875     
  0.437970436121080       0.436419234526037       0.434084609748679     
  0.430881449460910       0.426679380476635       0.421444334086156     
  0.415333644448232       0.408714982526619       0.402106893903826     
  0.396023064945013       0.390822869916263       0.386661322309649     
  0.383492915757386       0.381176341851987       0.379532194887795     
  0.378397707332335       0.449972847415615       0.449369301394820     
  0.447818099799778       0.445483475022418       0.442280314734649     
  0.438078245750374       0.432843199359895       0.426732509721972     
  0.420113847800359       0.413505759177565       0.407421930218752     
  0.402221735190003       0.398060187583388       0.394891781031125     
  0.392575207125726       0.390931060161534       0.389796572606075     
  0.465886074784704       0.465282528763908       0.463731327168866     
  0.461396702391507       0.458193542103739       0.453991473119463     
  0.448756426728985       0.442645737091061       0.436027075169447     
  0.429418986546653       0.423335157587841       0.418134962559092     
  0.413973414952476       0.410805008400214       0.408488434494814     
  0.406844287530622       0.405709799975163       0.487704880984104     
  0.487101334963309       0.485550133368267       0.483215508590908     
  0.480012348303138       0.475810279318862       0.470575232928385     
  0.464464543290461       0.457845881368848       0.451237792746054     
  0.445153963787241       0.439953768758492       0.435792221151877     
  0.432623814599614       0.430307240694215       0.428663093730023     
  0.427528606174563       0.516893284434775       0.516289738413981     
  0.514738536818937       0.512403912041579       0.509200751753809     
  0.504998682769534       0.499763636379055       0.493652946741132     
  0.487034284819518       0.480426196196725       0.474342367237912     
  0.469142172209163       0.464980624602548       0.461812218050283     
  0.459495644144885       0.457851497180693       0.456717009625234     
  0.554680271533983       0.554076725513189       0.552525523918146     
  0.550190899140786       0.546987738853017       0.542785669868742     
  0.537550623478263       0.531439933840340       0.524821271918727     
  0.518213183295934       0.512129354337121       0.506929159308370     
  0.502767611701756       0.499599205149493       0.497282631244094     
  0.495638484279902       0.494503996724442       0.601574420769445     
  0.600970874748650       0.599419673153608       0.597085048376250     
  0.593881888088481       0.589679819104205       0.584444772713725     
  0.578334083075802       0.571715421154189       0.565107332531395     
  0.559023503572584       0.553823308543834       0.549661760937218     
  0.546493354384955       0.544176780479557       0.542532633515364     
  0.541398145959906       0.656811361407036       0.656207815386243     
  0.654656613791200       0.652321989013841       0.649118828726072     
  0.644916759741796       0.639681713351319       0.633571023713394     
  0.626952361791782       0.620344273168988       0.614260444210173     
  0.609060249181425       0.604898701574810       0.601730295022548     
  0.599413721117148       0.597769574152957       0.596635086597496     
  0.718012967662672       0.717409421641877       0.715858220046833     
  0.713523595269475       0.710320434981706       0.706118365997431     
  0.700883319606952       0.694772629969028       0.688153968047415     
  0.681545879424623       0.675462050465809       0.670261855437059     
  0.666100307830444       0.662931901278181       0.660615327372782     
  0.658971180408589       0.657836692853132       0.781391579173726     
  0.780788033152932       0.779236831557888       0.776902206780531     
  0.773699046492761       0.769496977508485       0.764261931118007     
  0.758151241480083       0.751532579558469       0.744924490935676     
  0.738840661976863       0.733640466948114       0.729478919341499     
  0.726310512789237       0.723993938883837       0.722349791919644     
  0.721215304364185       0.842593185429362       0.841989639408566     
  0.840438437813523       0.838103813036165       0.834900652748396     
  0.830698583764120       0.825463537373641       0.819352847735717     
  0.812734185814105       0.806126097191312       0.800042268232498     
  0.794842073203747       0.790680525597133       0.787512119044870     
  0.785195545139471       0.783551398175280       0.782416910619819     
  0.897830126066953       0.897226580046157       0.895675378451114     
  0.893340753673756       0.890137593385987       0.885935524401710     
  0.880700478011232       0.874589788373309       0.867971126451696     
  0.861363037828901       0.855279208870090       0.850079013841339     
  0.845917466234724       0.842749059682461       0.840432485777063     
  0.838788338812870       0.837653851257410       0.944724275302413     
  0.944120729281619       0.942569527686577       0.940234902909217     
  0.937031742621449       0.932829673637174       0.927594627246695     
  0.921483937608772       0.914865275687159       0.908257187064366     
  0.902173358105552       0.896973163076802       0.892811615470188     
  0.889643208917925       0.887326635012526       0.885682488048333     
  0.884548000492875       0.982511262401622       0.981907716380828     
  0.980356514785785       0.978021890008426       0.974818729720658     
  0.970616660736383       0.965381614345903       0.959270924707980     
  0.952652262786366       0.946044174163574       0.939960345204760     
  0.934760150176011       0.930598602569396       0.927430196017133     
  0.925113622111732       0.923469475147542       0.922334987592082     
   1.01169966585229        1.01109611983150        1.00954491823646     
   1.00721029345910        1.00400713317133       0.999805064187053     
  0.994570017796573       0.988459328158653       0.981840666237034     
  0.975232577614245       0.969148748655430       0.963948553626681     
  0.959787006020065       0.956618599467802       0.954302025562406     
  0.952657878598213       0.951523391042755        1.03351847205170     
   1.03291492603090        1.03136372443586        1.02902909965850     
   1.02582593937073        1.02162387038645        1.01638882399597     
   1.01027813435805        1.00365947243644       0.997051383813645     
  0.990967554854829       0.985767359826082       0.981605812219465     
  0.978437405667204       0.976120831761805       0.974476684797615     
  0.973342197242152        1.04943169942078        1.04882815339999     
   1.04727695180494        1.04494232702759        1.04173916673982     
   1.03753709775554        1.03230205136506        1.02619136172714     
   1.01957269980553        1.01296461118273        1.00688078222392     
   1.00168058719517       0.997519039588554       0.994350633036295     
  0.992034059130895       0.990389912166703       0.989255424611242     
   1.06083056469452        1.06022701867372        1.05867581707868     
   1.05634119230133        1.05313803201356        1.04893596302928     
   1.04370091663880        1.03759022700088        1.03097156507927     
   1.02436347645647        1.01827964749766        1.01307945246891     
   1.00891790486229        1.00574949831003        1.00343292440463     
   1.00178877744044        1.00065428988498        1.06889069767967     
   1.06828715165888        1.06673595006383        1.06440132528648     
   1.06119816499871        1.05699609601443        1.05176104962395     
   1.04565035998602        1.03903169806441        1.03242360944162     
   1.02633978048281        1.02113958545406        1.01697803784744     
   1.01380963129518        1.01149305738978        1.00984891042559     
   1.00871442287013     
 -6.127486936345722E-002 -6.292834912121592E-002 -6.717803406525459E-002
 -7.357399175252739E-002 -8.234939663335022E-002 -9.386142018551807E-002
 -0.108203397332823      -0.124944294089873      -0.143076835990201     
 -0.161180411192101      -0.177847720206611      -0.192094218270030     
 -0.203495229114946      -0.212175422369504      -0.218521927736047     
 -0.223026246595598      -0.226134298249904      -6.421694420134574E-002
 -6.587042395910553E-002 -7.012010890314453E-002 -7.651606659041726E-002
 -8.529147147124019E-002 -9.680349502340714E-002 -0.111145472170712     
 -0.127886368927763      -0.146018910828090      -0.164122486029991     
 -0.180789795044502      -0.195036293107919      -0.206437303952836     
 -0.215117497207394      -0.221464002573936      -0.225968321433488     
 -0.229076373087794      -6.837770864086155E-002 -7.003118839862059E-002
 -7.428087334265909E-002 -8.067683102993224E-002 -8.945223591075403E-002
 -0.100964259462923      -0.115306236610227      -0.132047133367278     
 -0.150179675267605      -0.168283250469506      -0.184950559484016     
 -0.199197057547435      -0.210598068392351      -0.219278261646908     
 -0.225624767013451      -0.230129085873002      -0.233237137527310     
 -7.418628598300774E-002 -7.583976574076687E-002 -8.008945068480515E-002
 -8.648540837207810E-002 -9.526081325290156E-002 -0.106772836805069     
 -0.121114813952373      -0.137855710709424      -0.155988252609751     
 -0.174091827811652      -0.190759136826162      -0.205005634889580     
 -0.216406645734497      -0.225086838989056      -0.231433344355597     
 -0.235937663215149      -0.239045714869455      -8.215049213572713E-002
 -8.380397189348573E-002 -8.805365683752461E-002 -9.444961452479723E-002
 -0.103225019405620      -0.114737042957788      -0.129079020105092     
 -0.145819916862143      -0.163952458762471      -0.182056033964371     
 -0.198723342978882      -0.212969841042300      -0.224370851887216     
 -0.233051045141775      -0.239397550508317      -0.243901869367868     
 -0.247009921022175      -9.280471676311609E-002 -9.445819652087542E-002
 -9.870788146491377E-002 -0.105103839152187      -0.113879244033009     
 -0.125391267585177      -0.139733244732482      -0.156474141489533     
 -0.174606683389859      -0.192710258591760      -0.209377567606271     
 -0.223624065669690      -0.235025076514606      -0.243705269769163     
 -0.250051775135705      -0.254556093995257      -0.257664145649564     
 -0.106597559157789      -0.108251038915548      -0.112500723859586     
 -0.118896681546860      -0.127672086427683      -0.139184109979850     
 -0.153526087127154      -0.170266983884205      -0.188399525784532     
 -0.206503100986433      -0.223170410000944      -0.237416908064361     
 -0.248817918909279      -0.257498112163836      -0.263844617530379     
 -0.268348936389930      -0.271456988044236      -0.123714658436935     
 -0.125368138194695      -0.129617823138733      -0.136013780826006     
 -0.144789185706829      -0.156301209258998      -0.170643186406300     
 -0.187384083163352      -0.205516625063679      -0.223620200265579     
 -0.240287509280091      -0.254534007343509      -0.265935018188425     
 -0.274615211442983      -0.280961716809526      -0.285466035669076     
 -0.288574087323384      -0.143877007305289      -0.145530487063048     
 -0.149780172007087      -0.156176129694359      -0.164951534575182     
 -0.176463558127350      -0.190805535274655      -0.207546432031706     
 -0.225678973932033      -0.243782549133933      -0.260449858148443     
 -0.274696356211861      -0.286097367056778      -0.294777560311336     
 -0.301124065677878      -0.305628384537429      -0.308736436191737     
 -0.166216552587597      -0.167870032345356      -0.172119717289395     
 -0.178515674976668      -0.187291079857491      -0.198803103409659     
 -0.213145080556964      -0.229885977314014      -0.248018519214341     
 -0.266122094416242      -0.282789403430753      -0.297035901494170     
 -0.308436912339087      -0.317117105593646      -0.323463610960187     
 -0.327967929819738      -0.331075981474046      -0.189350738900732     
 -0.191004218658493      -0.195253903602531      -0.201649861289805     
 -0.210425266170626      -0.221937289722795      -0.236279266870099     
 -0.253020163627150      -0.271152705527476      -0.289256280729378     
 -0.305923589743888      -0.320170087807306      -0.331571098652223     
 -0.340251291906781      -0.346597797273323      -0.351102116132874     
 -0.354210167787182      -0.211690284183042      -0.213343763940801     
 -0.217593448884841      -0.223989406572111      -0.232764811452937     
 -0.244276835005104      -0.258618812152408      -0.275359708909458     
 -0.293492250809786      -0.311595826011688      -0.328263135026197     
 -0.342509633089615      -0.353910643934532      -0.362590837189090     
 -0.368937342555632      -0.373441661415183      -0.376549713069491     
 -0.231852633051396      -0.233506112809154      -0.237755797753193     
 -0.244151755440466      -0.252927160321291      -0.264439183873457     
 -0.278781161020761      -0.295522057777813      -0.313654599678140     
 -0.331758174880038      -0.348425483894551      -0.362671981957968     
 -0.374072992802884      -0.382753186057442      -0.389099691423984     
 -0.393604010283535      -0.396712061937843      -0.248969732330542     
 -0.250623212088302      -0.254872897032339      -0.261268854719612     
 -0.270044259600436      -0.281556283152603      -0.295898260299909     
 -0.312639157056958      -0.330771698957286      -0.348875274159186     
 -0.365542583173697      -0.379789081237115      -0.391190092082031     
 -0.399870285336589      -0.406216790703132      -0.410721109562682     
 -0.413829161216991      -0.262762574725214      -0.264416054482974     
 -0.268665739427013      -0.275061697114286      -0.283837101995108     
 -0.295349125547276      -0.309691102694580      -0.326431999451632     
 -0.344564541351960      -0.362668116553860      -0.379335425568370     
 -0.393581923631788      -0.404982934476705      -0.413663127731264     
 -0.420009633097804      -0.424513951957356      -0.427622003611662     
 -0.273416799352603      -0.275070279110363      -0.279319964054402     
 -0.285715921741675      -0.294491326622498      -0.306003350174664     
 -0.320345327321969      -0.337086224079022      -0.355218765979346     
 -0.373322341181248      -0.389989650195759      -0.404236148259177     
 -0.415637159104093      -0.424317352358651      -0.430663857725194     
 -0.435168176584745      -0.438276228239055      -0.281381005505324     
 -0.283034485263083      -0.287284170207122      -0.293680127894394     
 -0.302455532775217      -0.313967556327385      -0.328309533474689     
 -0.345050430231740      -0.363182972132068      -0.381286547333968     
 -0.397953856348477      -0.412200354411897      -0.423601365256813     
 -0.432281558511371      -0.438628063877912      -0.443132382737465     
 -0.446240434391771      -0.287189582847470      -0.288843062605228     
 -0.293092747549267      -0.299488705236542      -0.308264110117362     
 -0.319776133669532      -0.334118110816835      -0.350859007573886     
 -0.368991549474213      -0.387095124676114      -0.403762433690625     
 -0.418008931754043      -0.429409942598958      -0.438090135853518     
 -0.444436641220060      -0.448940960079611      -0.452049011733917     
 -0.291350347286984      -0.293003827044744      -0.297253511988783     
 -0.303649469676056      -0.312424874556878      -0.323936898109046     
 -0.338278875256350      -0.355019772013401      -0.373152313913729     
 -0.391255889115630      -0.407923198130141      -0.422169696193556     
 -0.433570707038473      -0.442250900293032      -0.448597405659573     
 -0.453101724519125      -0.456209776173432      -0.294292422124874     
 -0.295945901882634      -0.300195586826673      -0.306591544513945     
 -0.315366949394769      -0.326878972946936      -0.341220950094240     
 -0.357961846851290      -0.376094388751617      -0.394197963953519     
 -0.410865272968029      -0.425111771031448      -0.436512781876364     
 -0.445192975130922      -0.451539480497463      -0.456043799357016     
 -0.459151851011323     
  0.000000000000000E+000 -2.059343134687265E-004 -5.967154644315922E-004
 -1.288783171780619E-003 -2.918895425121374E-003 -5.573396522451829E-003
 -9.167771110016921E-003 -1.357217217812317E-002 -1.838427778900438E-002
 -2.320014315178548E-002 -2.763890288787426E-002 -3.143970394449276E-002
 -3.447539076661003E-002 -3.679168976136481E-002 -3.848528426515805E-002
 -3.968682183911389E-002 -4.051708164825068E-002  0.000000000000000E+000
 -2.059343134687265E-004 -5.967154644315922E-004 -1.288783171780619E-003
 -2.918895425121374E-003 -5.573396522451829E-003 -9.167771110016921E-003
 -1.357217217812317E-002 -1.838427778900438E-002 -2.320014315178548E-002
 -2.763890288787426E-002 -3.143970394449276E-002 -3.447539076661003E-002
 -3.679168976136481E-002 -3.848528426515805E-002 -3.968682183911389E-002
 -4.051708164825068E-002  0.000000000000000E+000 -2.059343134687265E-004
 -5.967154644315922E-004 -1.288783171780619E-003 -2.918895425121374E-003
 -5.573396522451829E-003 -9.167771110016921E-003 -1.357217217812317E-002
 -1.838427778900438E-002 -2.320014315178548E-002 -2.763890288787426E-002
 -3.143970394449276E-002 -3.447539076661003E-002 -3.679168976136481E-002
 -3.848528426515805E-002 -3.968682183911389E-002 -4.051708164825068E-002
  0.000000000000000E+000 -2.059343134687265E-004 -5.967154644315922E-004
 -1.288783171780619E-003 -2.918895425121374E-003 -5.573396522451829E-003
 -9.167771110016921E-003 -1.357217217812317E-002 -1.838427778900438E-002
 -2.320014315178548E-002 -2.763890288787426E-002 -3.143970394449276E-002
 -3.447539076661003E-002 -3.679168976136481E-002 -3.848528426515805E-002
 -3.968682183911389E-002 -4.051708164825068E-002  0.000000000000000E+000
 -2.059343134687265E-004 -5.967154644315922E-004 -1.288783171780619E-003
 -2.918895425121374E-003 -5.573396522451829E-003 -9.167771110016921E-003
 -1.357217217812317E-002 -1.838427778900438E-002 -2.320014315178548E-002
 -2.763890288787426E-002 -3.143970394449276E-002 -3.447539076661003E-002
 -3.679168976136481E-002 -3.848528426515805E-002 -3.968682183911389E-002
 -4.051708164825068E-002  0.000000000000000E+000 -2.059343134687265E-004
 -5.967154644315922E-004 -1.288783171780619E-003 -2.918895425121374E-003
 -5.573396522451829E-003 -9.167771110016921E-003 -1.357217217812317E-002
 -1.838427778900438E-002 -2.320014315178548E-002 -2.763890288787426E-002
 -3.143970394449276E-002 -3.447539076661003E-002 -3.679168976136481E-002
 -3.848528426515805E-002 -3.968682183911389E-002 -4.051708164825068E-002
  0.000000000000000E+000 -2.059343134687265E-004 -5.967154644315922E-004
 -1.288783171780619E-003 -2.918895425121374E-003 -5.573396522451829E-003
 -9.167771110016921E-003 -1.357217217812317E-002 -1.838427778900438E-002
 -2.320014315178548E-002 -2.763890288787426E-002 -3.143970394449276E-002
 -3.447539076661003E-002 -3.679168976136481E-002 -3.848528426515805E-002
 -3.968682183911389E-002 -4.051708164825068E-002  0.000000000000000E+000
 -2.059343134687265E-004 -5.967154644315922E-004 -1.288783171780619E-003
 -2.918895425121374E-003 -5.573396522451829E-003 -9.167771110016921E-003
 -1.357217217812317E-002 -1.838427778900438E-002 -2.320014315178548E-002
 -2.763890288787426E-002 -3.143970394449276E-002 -3.447539076661003E-002
 -3.679168976136481E-002 -3.848528426515805E-002 -3.968682183911389E-002
 -4.051708164825068E-002  0.000000000000000E+000 -2.059343134687265E-004
 -5.967154644315922E-004 -1.288783171780619E-003 -2.918895425121374E-003
 -5.573396522451829E-003 -9.167771110016921E-003 -1.357217217812317E-002
 -1.838427778900438E-002 -2.320014315178548E-002 -2.763890288787426E-002
 -3.143970394449276E-002 -3.447539076661003E-002 -3.679168976136481E-002
 -3.848528426515805E-002 -3.968682183911389E-002 -4.051708164825068E-002
  0.000000000000000E+000 -2.059343134687265E-004 -5.967154644315922E-004
 -1.288783171780619E-003 -2.918895425121374E-003 -5.573396522451829E-003
 -9.167771110016921E-003 -1.357217217812317E-002 -1.838427778900438E-002
 -2.320014315178548E-002 -2.763890288787426E-002 -3.143970394449276E-002
 -3.447539076661003E-002 -3.679168976136481E-002 -3.848528426515805E-002
 -3.968682183911389E-002 -4.051708164825068E-002  0.000000000000000E+000
 -2.059343134687265E-004 -5.967154644315922E-004 -1.288783171780619E-003
 -2.918895425121374E-003 -5.573396522451829E-003 -9.167771110016921E-003
 -1.357217217812317E-002 -1.838427778900438E-002 -2.320014315178548E-002
 -2.763890288787426E-002 -3.143970394449276E-002 -3.447539076661003E-002
 -3.679168976136481E-002 -3.848528426515805E-002 -3.968682183911389E-002
 -4.051708164825068E-002  0.000000000000000E+000 -2.059343134687265E-004
 -5.967154644315922E-004 -1.288783171780619E-003 -2.918895425121374E-003
 -5.573396522451829E-003 -9.167771110016921E-003 -1.357217217812317E-002
 -1.838427778900438E-002 -2.320014315178548E-002 -2.763890288787426E-002
 -3.143970394449276E-002 -3.447539076661003E-002 -3.679168976136481E-002
 -3.848528426515805E-002 -3.968682183911389E-002 -4.051708164825068E-002
  0.000000000000000E+000 -2.059343134687265E-004 -5.967154644315922E-004
 -1.288783171780619E-003 -2.918895425121374E-003 -5.573396522451829E-003
 -9.167771110016921E-003 -1.357217217812317E-002 -1.838427778900438E-002
 -2.320014315178548E-002 -2.763890288787426E-002 -3.143970394449276E-002
 -3.447539076661003E-002 -3.679168976136481E-002 -3.848528426515805E-002
 -3.968682183911389E-002 -4.051708164825068E-002  0.000000000000000E+000
 -2.059343134687265E-004 -5.967154644315922E-004 -1.288783171780619E-003
 -2.918895425121374E-003 -5.573396522451829E-003 -9.167771110016921E-003
 -1.357217217812317E-002 -1.838427778900438E-002 -2.320014315178548E-002
 -2.763890288787426E-002 -3.143970394449276E-002 -3.447539076661003E-002
 -3.679168976136481E-002 -3.848528426515805E-002 -3.968682183911389E-002
 -4.051708164825068E-002  0.000000000000000E+000 -2.059343134687265E-004
 -5.967154644315922E-004 -1.288783171780619E-003 -2.918895425121374E-003
 -5.573396522451829E-003 -9.167771110016921E-003 -1.357217217812317E-002
 -1.838427778900438E-002 -2.320014315178548E-002 -2.763890288787426E-002
 -3.143970394449276E-002 -3.447539076661003E-002 -3.679168976136481E-002
 -3.848528426515805E-002 -3.968682183911389E-002 -4.051708164825068E-002
  0.000000000000000E+000 -2.059343134687265E-004 -5.967154644315922E-004
 -1.288783171780619E-003 -2.918895425121374E-003 -5.573396522451829E-003
 -9.167771110016921E-003 -1.357217217812317E-002 -1.838427778900438E-002
 -2.320014315178548E-002 -2.763890288787426E-002 -3.143970394449276E-002
 -3.447539076661003E-002 -3.679168976136481E-002 -3.848528426515805E-002
 -3.968682183911389E-002 -4.051708164825068E-002  0.000000000000000E+000
 -2.059343134687265E-004 -5.967154644315922E-004 -1.288783171780619E-003
 -2.918895425121374E-003 -5.573396522451829E-003 -9.167771110016921E-003
 -1.357217217812317E-002 -1.838427778900438E-002 -2.320014315178548E-002
 -2.763890288787426E-002 -3.143970394449276E-002 -3.447539076661003E-002
 -3.679168976136481E-002 -3.848528426515805E-002 -3.968682183911389E-002
 -4.051708164825068E-002  0.000000000000000E+000 -2.059343134687265E-004
 -5.967154644315922E-004 -1.288783171780619E-003 -2.918895425121374E-003
 -5.573396522451829E-003 -9.167771110016921E-003 -1.357217217812317E-002
 -1.838427778900438E-002 -2.320014315178548E-002 -2.763890288787426E-002
 -3.143970394449276E-002 -3.447539076661003E-002 -3.679168976136481E-002
 -3.848528426515805E-002 -3.968682183911389E-002 -4.051708164825068E-002
  0.000000000000000E+000 -2.059343134687265E-004 -5.967154644315922E-004
 -1.288783171780619E-003 -2.918895425121374E-003 -5.573396522451829E-003
 -9.167771110016921E-003 -1.357217217812317E-002 -1.838427778900438E-002
 -2.320014315178548E-002 -2.763890288787426E-002 -3.143970394449276E-002
 -3.447539076661003E-002 -3.679168976136481E-002 -3.848528426515805E-002
 -3.968682183911389E-002 -4.051708164825068E-002  0.000000000000000E+000
 -2.059343134687265E-004 -5.967154644315922E-004 -1.288783171780619E-003
 -2.918895425121374E-003 -5.573396522451829E-003 -9.167771110016921E-003
 -1.357217217812317E-002 -1.838427778900438E-002 -2.320014315178548E-002
 -2.763890288787426E-002 -3.143970394449276E-002 -3.447539076661003E-002
 -3.679168976136481E-002 -3.848528426515805E-002 -3.968682183911389E-002
 -4.051708164825068E-002
 -0.276822819964399      -0.542932912951204      -0.618305056003315     
 -0.434337195203050      -0.217571708827019      -4.387589095946260E-002
  9.291394252206144E-002  0.167830048675709       0.206803383574917     
  0.221045085666820       0.218820909197120       0.204140954222854     
  0.188394736754126       0.172189022936085       0.159371161304026     
  0.152216619878892      -0.322628329230218      -0.646410881931313     
 -0.757293593668277      -0.544526425679272      -0.248506821496018     
  1.455628017550520E-002  0.229584664158967       0.356428818181014     
  0.426098456353162       0.455444465265729       0.457739015872971     
  0.441246092102675       0.422332120549565       0.403654506315391     
  0.389807151252560       0.382462176720888      -0.319560279458368     
 -0.642321657896590      -0.746389934913654      -0.504771313498433     
 -0.154098282276030       0.180179395161741       0.466096809733995     
  0.648273049111729       0.755535891377923       0.807685154919632     
  0.822418371478943       0.812320132845773       0.797339064550958     
  0.781284979419027       0.768937127932979       0.762273833026297     
 -0.282400955179673      -0.566228748568455      -0.627783914137488     
 -0.328849967107081       9.022237405117954E-002  0.500957676078065     
  0.864218967998322        1.11255202173183        1.27020521006991     
   1.35758486600924        1.39585212536912        1.40115256585627     
   1.39624333576203        1.38611661777712        1.37688897794827     
   1.37173915572283      -0.210118519102291      -0.416858780200376     
 -0.397944866293771      -1.866847316072813E-003  0.521256064338458     
   1.03656335089045        1.50024323258092        1.83569335917115     
   2.06349371992573        2.20350984154897        2.27918527170081     
   2.30947536128949        2.32037964575632        2.31936198110002     
   2.31513375793308        2.31243566300660      -9.610774007647011E-002
 -0.180658371575700      -3.594649370683330E-002  0.507502483812493     
   1.18544240319807        1.85235253471965        2.45769810883389     
   2.91480643072075        3.24133362979087        3.45642949166716     
   3.58556663380075        3.65103624811548        3.68386772267972     
   3.69562969745658        3.69850461261760        3.69915323529429     
  6.840129211092173E-002  0.160528291574230       0.485583085599838     
   1.23702645751205        2.13268978116547        3.01227435497092     
   3.81510455954324        4.44075187746554        4.90298695661743     
   5.22019147306235        5.42091252924826        5.53276818303122     
   5.59433499360389        5.62282933147072        5.63480573374539     
   5.63955737463247       0.291786748777173       0.623981111348036     
   1.19208809698701        2.22018393659542        3.40479454342203     
   4.56678522789738        5.63147369550572        6.47996815781472     
   7.12023164104147        7.56975698806204        7.86190930452119     
   8.03227231018674        8.12967304514568        8.17865669456487     
   8.20143073500818        8.21089357241030       0.580582953246091     
   1.22303866636051        2.10232321315688        3.47961166995570     
   5.02767350337347        6.54487503417195        7.93870777876389     
   9.06723840915735        9.93052224330219        10.5449056471307     
   10.9501559686754        11.1922728544468        11.3329989196639     
   11.4062172777442        11.4414177475108        11.4561941101204     
  0.939953200188728        1.96797088205534        3.22936557726843     
   5.02800902758438        7.01219716189979        8.95525778052637     
   10.7439469444074        12.2101437691265        13.3444332066393     
   14.1614047545465        14.7075366591077        15.0402770054077     
   15.2360945406226        15.3401525303088        15.3910915334008     
   15.4125810489719        1.36892621693431        2.85570305209536     
   4.56458231412799        6.84563976134390        9.32398626063454     
   11.7473030911317        13.9812419127912        15.8322774567134     
   17.2825580156143        18.3447561358440        19.0702098052133     
   19.5253344167787        19.7998614162496        19.9503063184892     
   20.0258608899158        20.0580849199774        1.82417218605362     
   3.79499071975497        5.96766732712976        8.73665628802519     
   11.7056555809449        14.5984262147416        17.2633744966055     
   19.4888066880602        21.2547845403159        22.5745975426136     
   23.5016199688087        24.1052550873651        24.4826134394374     
   24.6978727735212        24.8096554743238        24.8581322032784     
   2.19195359495617        4.55010574238683        7.08800335018838     
   10.2339682018656        13.5703197583328        16.8008408178232     
   19.7649258186038        22.2462727454480        24.2350865136028     
   25.7515244285366        26.8481772912992        27.5888326183562     