 Title = "Wing and Wake"
 VARIABLES = "X" "Y" "Z" "GAM" "skew"
 Zone I=   17 J=   20 K=1  T="Blade 01"
 DATAPACKING=BLOCK
 VARLOCATION=([4]=CELLCENTERED,[5]=CELLCENTERED)
  0.430513849156728       0.429910303135933       0.428359101540891     
  0.426024476763531       0.422821316475762       0.418619247491487     
  0.413384201101009       0.407273511463084       0.400654849541472     
  0.394046760918678       0.387962931959865       0.382762736931115     
  0.378601189324501       0.375432782772237       0.373116208866839     
  0.371472061902647       0.370337574347187       0.438573982141875     
  0.437970436121080       0.436419234526037       0.434084609748679     
  0.430881449460910       0.426679380476634       0.421444334086155     
  0.415333644448232       0.408714982526619       0.402106893903825     
  0.396023064945013       0.390822869916263       0.386661322309649     
  0.383492915757385       0.381176341851987       0.379532194887794     
  0.378397707332335       0.449972847415614       0.449369301394820     
  0.447818099799778       0.445483475022418       0.442280314734649     
  0.438078245750374       0.432843199359896       0.426732509721971     
  0.420113847800358       0.413505759177565       0.407421930218752     
  0.402221735190002       0.398060187583388       0.394891781031124     
  0.392575207125726       0.390931060161533       0.389796572606074     
  0.465886074784703       0.465282528763908       0.463731327168866     
  0.461396702391506       0.458193542103738       0.453991473119463     
  0.448756426728984       0.442645737091060       0.436027075169447     
  0.429418986546653       0.423335157587841       0.418134962559091     
  0.413973414952476       0.410805008400213       0.408488434494814     
  0.406844287530622       0.405709799975163       0.487704880984103     
  0.487101334963308       0.485550133368267       0.483215508590908     
  0.480012348303138       0.475810279318862       0.470575232928384     
  0.464464543290461       0.457845881368848       0.451237792746054     
  0.445153963787241       0.439953768758491       0.435792221151876     
  0.432623814599613       0.430307240694214       0.428663093730023     
  0.427528606174563       0.516893284434775       0.516289738413980     
  0.514738536818937       0.512403912041578       0.509200751753809     
  0.504998682769533       0.499763636379055       0.493652946741131     
  0.487034284819518       0.480426196196725       0.474342367237912     
  0.469142172209163       0.464980624602548       0.461812218050284     
  0.459495644144885       0.457851497180693       0.456717009625234     
  0.554680271533983       0.554076725513188       0.552525523918146     
  0.550190899140786       0.546987738853017       0.542785669868742     
  0.537550623478264       0.531439933840340       0.524821271918727     
  0.518213183295933       0.512129354337121       0.506929159308370     
  0.502767611701756       0.499599205149493       0.497282631244094     
  0.495638484279902       0.494503996724442       0.601574420769445     
  0.600970874748650       0.599419673153608       0.597085048376249     
  0.593881888088481       0.589679819104204       0.584444772713725     
  0.578334083075802       0.571715421154189       0.565107332531395     
  0.559023503572583       0.553823308543833       0.549661760937217     
  0.546493354384955       0.544176780479556       0.542532633515364     
  0.541398145959906       0.656811361407036       0.656207815386242     
  0.654656613791200       0.652321989013841       0.649118828726071     
  0.644916759741796       0.639681713351318       0.633571023713394     
  0.626952361791781       0.620344273168988       0.614260444210174     
  0.609060249181425       0.604898701574810       0.601730295022547     
  0.599413721117148       0.597769574152956       0.596635086597496     
  0.718012967662671       0.717409421641875       0.715858220046833     
  0.713523595269475       0.710320434981706       0.706118365997430     
  0.700883319606952       0.694772629969028       0.688153968047415     
  0.681545879424621       0.675462050465809       0.670261855437060     
  0.666100307830445       0.662931901278180       0.660615327372783     
  0.658971180408590       0.657836692853131       0.781391579173725     
  0.780788033152931       0.779236831557888       0.776902206780529     
  0.773699046492760       0.769496977508485       0.764261931118006     
  0.758151241480083       0.751532579558469       0.744924490935674     
  0.738840661976862       0.733640466948114       0.729478919341499     
  0.726310512789236       0.723993938883836       0.722349791919644     
  0.721215304364185       0.842593185429360       0.841989639408565     
  0.840438437813523       0.838103813036164       0.834900652748395     
  0.830698583764120       0.825463537373640       0.819352847735716     
  0.812734185814104       0.806126097191310       0.800042268232496     
  0.794842073203747       0.790680525597132       0.787512119044870     
  0.785195545139471       0.783551398175279       0.782416910619818     
  0.897830126066951       0.897226580046156       0.895675378451114     
  0.893340753673756       0.890137593385987       0.885935524401711     
  0.880700478011231       0.874589788373309       0.867971126451695     
  0.861363037828902       0.855279208870089       0.850079013841339     
  0.845917466234723       0.842749059682461       0.840432485777062     
  0.838788338812869       0.837653851257410       0.944724275302412     
  0.944120729281618       0.942569527686576       0.940234902909217     
  0.937031742621448       0.932829673637173       0.927594627246694     
  0.921483937608771       0.914865275687158       0.908257187064365     
  0.902173358105551       0.896973163076802       0.892811615470188     
  0.889643208917924       0.887326635012526       0.885682488048333     
  0.884548000492874       0.982511262401621       0.981907716380826     
  0.980356514785785       0.978021890008425       0.974818729720657     
  0.970616660736382       0.965381614345902       0.959270924707979     
  0.952652262786366       0.946044174163573       0.939960345204759     
  0.934760150176010       0.930598602569395       0.927430196017132     
  0.925113622111732       0.923469475147541       0.922334987592081     
   1.01169966585229        1.01109611983150        1.00954491823646     
   1.00721029345910        1.00400713317133       0.999805064187052     
  0.994570017796572       0.988459328158650       0.981840666237035     
  0.975232577614244       0.969148748655430       0.963948553626680     
  0.959787006020065       0.956618599467802       0.954302025562404     
  0.952657878598212       0.951523391042753        1.03351847205170     
   1.03291492603090        1.03136372443586        1.02902909965850     
   1.02582593937073        1.02162387038645        1.01638882399597     
   1.01027813435805        1.00365947243644       0.997051383813644     
  0.990967554854829       0.985767359826079       0.981605812219466     
  0.978437405667203       0.976120831761804       0.974476684797613     
  0.973342197242153        1.04943169942078        1.04882815339999     
   1.04727695180494        1.04494232702759        1.04173916673982     
   1.03753709775554        1.03230205136506        1.02619136172714     
   1.01957269980553        1.01296461118273        1.00688078222392     
   1.00168058719517       0.997519039588554       0.994350633036293     
  0.992034059130894       0.990389912166701       0.989255424611241     
   1.06083056469452        1.06022701867373        1.05867581707868     
   1.05634119230132        1.05313803201356        1.04893596302928     
   1.04370091663880        1.03759022700088        1.03097156507927     
   1.02436347645647        1.01827964749766        1.01307945246891     
   1.00891790486229        1.00574949831003        1.00343292440463     
   1.00178877744044        1.00065428988498        1.06889069767967     
   1.06828715165888        1.06673595006383        1.06440132528647     
   1.06119816499870        1.05699609601443        1.05176104962395     
   1.04565035998602        1.03903169806441        1.03242360944162     
   1.02633978048281        1.02113958545406        1.01697803784744     
   1.01380963129518        1.01149305738978        1.00984891042559     
   1.00871442287013     
 -6.127486936345656E-002 -6.292834912121556E-002 -6.717803406525430E-002
 -7.357399175252703E-002 -8.234939663334995E-002 -9.386142018551753E-002
 -0.108203397332822      -0.124944294089873      -0.143076835990200     
 -0.161180411192101      -0.177847720206611      -0.192094218270030     
 -0.203495229114946      -0.212175422369504      -0.218521927736046     
 -0.223026246595597      -0.226134298249904      -6.421694420134551E-002
 -6.587042395910495E-002 -7.012010890314398E-002 -7.651606659041696E-002
 -8.529147147123961E-002 -9.680349502340745E-002 -0.111145472170711     
 -0.127886368927763      -0.146018910828090      -0.164122486029990     
 -0.180789795044501      -0.195036293107919      -0.206437303952836     
 -0.215117497207394      -0.221464002573936      -0.225968321433487     
 -0.229076373087794      -6.837770864086094E-002 -7.003118839862023E-002
 -7.428087334265876E-002 -8.067683102993174E-002 -8.945223591075406E-002
 -0.100964259462922      -0.115306236610227      -0.132047133367278     
 -0.150179675267605      -0.168283250469505      -0.184950559484016     
 -0.199197057547434      -0.210598068392351      -0.219278261646908     
 -0.225624767013451      -0.230129085873002      -0.233237137527309     
 -7.418628598300726E-002 -7.583976574076629E-002 -8.008945068480479E-002
 -8.648540837207762E-002 -9.526081325290096E-002 -0.106772836805068     
 -0.121114813952373      -0.137855710709424      -0.155988252609751     
 -0.174091827811652      -0.190759136826162      -0.205005634889580     
 -0.216406645734497      -0.225086838989055      -0.231433344355596     
 -0.235937663215148      -0.239045714869455      -8.215049213572659E-002
 -8.380397189348565E-002 -8.805365683752393E-002 -9.444961452479735E-002
 -0.103225019405620      -0.114737042957788      -0.129079020105092     
 -0.145819916862143      -0.163952458762470      -0.182056033964370     
 -0.198723342978881      -0.212969841042299      -0.224370851887216     
 -0.233051045141774      -0.239397550508316      -0.243901869367867     
 -0.247009921022174      -9.280471676311593E-002 -9.445819652087484E-002
 -9.870788146491324E-002 -0.105103839152186      -0.113879244033009     
 -0.125391267585177      -0.139733244732481      -0.156474141489532     
 -0.174606683389859      -0.192710258591759      -0.209377567606270     
 -0.223624065669689      -0.235025076514605      -0.243705269769163     
 -0.250051775135705      -0.254556093995256      -0.257664145649563     
 -0.106597559157788      -0.108251038915547      -0.112500723859586     
 -0.118896681546859      -0.127672086427682      -0.139184109979849     
 -0.153526087127154      -0.170266983884205      -0.188399525784531     
 -0.206503100986432      -0.223170410000943      -0.237416908064360     
 -0.248817918909278      -0.257498112163836      -0.263844617530377     
 -0.268348936389929      -0.271456988044236      -0.123714658436935     
 -0.125368138194694      -0.129617823138732      -0.136013780826006     
 -0.144789185706829      -0.156301209258997      -0.170643186406300     
 -0.187384083163351      -0.205516625063679      -0.223620200265579     
 -0.240287509280090      -0.254534007343508      -0.265935018188424     
 -0.274615211442983      -0.280961716809525      -0.285466035669075     
 -0.288574087323383      -0.143877007305288      -0.145530487063047     
 -0.149780172007086      -0.156176129694359      -0.164951534575182     
 -0.176463558127349      -0.190805535274654      -0.207546432031705     
 -0.225678973932032      -0.243782549133933      -0.260449858148443     
 -0.274696356211861      -0.286097367056778      -0.294777560311336     
 -0.301124065677877      -0.305628384537429      -0.308736436191736     
 -0.166216552587597      -0.167870032345355      -0.172119717289394     
 -0.178515674976667      -0.187291079857490      -0.198803103409658     
 -0.213145080556963      -0.229885977314014      -0.248018519214341     
 -0.266122094416241      -0.282789403430752      -0.297035901494170     
 -0.308436912339086      -0.317117105593645      -0.323463610960186     
 -0.327967929819737      -0.331075981474045      -0.189350738900732     
 -0.191004218658493      -0.195253903602531      -0.201649861289804     
 -0.210425266170626      -0.221937289722795      -0.236279266870098     
 -0.253020163627150      -0.271152705527477      -0.289256280729377     
 -0.305923589743888      -0.320170087807306      -0.331571098652222     
 -0.340251291906780      -0.346597797273323      -0.351102116132873     
 -0.354210167787181      -0.211690284183041      -0.213343763940800     
 -0.217593448884840      -0.223989406572113      -0.232764811452936     
 -0.244276835005103      -0.258618812152407      -0.275359708909458     
 -0.293492250809785      -0.311595826011686      -0.328263135026196     
 -0.342509633089613      -0.353910643934531      -0.362590837189089     
 -0.368937342555631      -0.373441661415182      -0.376549713069489     
 -0.231852633051395      -0.233506112809153      -0.237755797753192     
 -0.244151755440465      -0.252927160321289      -0.264439183873456     
 -0.278781161020760      -0.295522057777811      -0.313654599678139     
 -0.331758174880038      -0.348425483894550      -0.362671981957967     
 -0.374072992802884      -0.382753186057442      -0.389099691423984     
 -0.393604010283535      -0.396712061937842      -0.248969732330541     
 -0.250623212088301      -0.254872897032340      -0.261268854719612     
 -0.270044259600435      -0.281556283152602      -0.295898260299907     
 -0.312639157056957      -0.330771698957284      -0.348875274159185     
 -0.365542583173697      -0.379789081237114      -0.391190092082031     
 -0.399870285336589      -0.406216790703130      -0.410721109562682     
 -0.413829161216990      -0.262762574725214      -0.264416054482973     
 -0.268665739427012      -0.275061697114285      -0.283837101995107     
 -0.295349125547276      -0.309691102694580      -0.326431999451631     
 -0.344564541351958      -0.362668116553859      -0.379335425568369     
 -0.393581923631787      -0.404982934476704      -0.413663127731262     
 -0.420009633097803      -0.424513951957355      -0.427622003611661     
 -0.273416799352602      -0.275070279110362      -0.279319964054402     
 -0.285715921741674      -0.294491326622497      -0.306003350174664     
 -0.320345327321969      -0.337086224079020      -0.355218765979346     
 -0.373322341181248      -0.389989650195758      -0.404236148259175     
 -0.415637159104092      -0.424317352358650      -0.430663857725192     
 -0.435168176584743      -0.438276228239051      -0.281381005505323     
 -0.283034485263082      -0.287284170207121      -0.293680127894394     
 -0.302455532775216      -0.313967556327383      -0.328309533474687     
 -0.345050430231739      -0.363182972132067      -0.381286547333967     
 -0.397953856348476      -0.412200354411896      -0.423601365256812     
 -0.432281558511369      -0.438628063877911      -0.443132382737464     
 -0.446240434391770      -0.287189582847469      -0.288843062605227     
 -0.293092747549266      -0.299488705236540      -0.308264110117362     
 -0.319776133669531      -0.334118110816835      -0.350859007573885     
 -0.368991549474212      -0.387095124676113      -0.403762433690624     
 -0.418008931754042      -0.429409942598957      -0.438090135853517     
 -0.444436641220058      -0.448940960079609      -0.452049011733916     
 -0.291350347286983      -0.293003827044742      -0.297253511988782     
 -0.303649469676054      -0.312424874556877      -0.323936898109045     
 -0.338278875256349      -0.355019772013400      -0.373152313913728     
 -0.391255889115629      -0.407923198130139      -0.422169696193555     
 -0.433570707038472      -0.442250900293031      -0.448597405659573     
 -0.453101724519125      -0.456209776173431      -0.294292422124873     
 -0.295945901882632      -0.300195586826672      -0.306591544513944     
 -0.315366949394768      -0.326878972946934      -0.341220950094239     
 -0.357961846851290      -0.376094388751617      -0.394197963953516     
 -0.410865272968027      -0.425111771031446      -0.436512781876363     
 -0.445192975130919      -0.451539480497462      -0.456043799357015     
 -0.459151851011321     
  0.000000000000000E+000 -2.059343134687265E-004 -5.967154644315922E-004
 -1.288783171780619E-003 -2.918895425121374E-003 -5.573396522451829E-003
 -9.167771110016921E-003 -1.357217217812317E-002 -1.838427778900438E-002
 -2.320014315178548E-002 -2.763890288787426E-002 -3.143970394449276E-002
 -3.447539076661003E-002 -3.679168976136481E-002 -3.848528426515805E-002
 -3.968682183911389E-002 -4.051708164825068E-002  0.000000000000000E+000
 -2.059343134687265E-004 -5.967154644315922E-004 -1.288783171780619E-003
 -2.918895425121374E-003 -5.573396522451829E-003 -9.167771110016921E-003
 -1.357217217812317E-002 -1.838427778900438E-002 -2.320014315178548E-002
 -2.763890288787426E-002 -3.143970394449276E-002 -3.447539076661003E-002
 -3.679168976136481E-002 -3.848528426515805E-002 -3.968682183911389E-002
 -4.051708164825068E-002  0.000000000000000E+000 -2.059343134687265E-004
 -5.967154644315922E-004 -1.288783171780619E-003 -2.918895425121374E-003
 -5.573396522451829E-003 -9.167771110016921E-003 -1.357217217812317E-002
 -1.838427778900438E-002 -2.320014315178548E-002 -2.763890288787426E-002
 -3.143970394449276E-002 -3.447539076661003E-002 -3.679168976136481E-002
 -3.848528426515805E-002 -3.968682183911389E-002 -4.051708164825068E-002
  0.000000000000000E+000 -2.059343134687265E-004 -5.967154644315922E-004
 -1.288783171780619E-003 -2.918895425121374E-003 -5.573396522451829E-003
 -9.167771110016921E-003 -1.357217217812317E-002 -1.838427778900438E-002
 -2.320014315178548E-002 -2.763890288787426E-002 -3.143970394449276E-002
 -3.447539076661003E-002 -3.679168976136481E-002 -3.848528426515805E-002
 -3.968682183911389E-002 -4.051708164825068E-002  0.000000000000000E+000
 -2.059343134687265E-004 -5.967154644315922E-004 -1.288783171780619E-003
 -2.918895425121374E-003 -5.573396522451829E-003 -9.167771110016921E-003
 -1.357217217812317E-002 -1.838427778900438E-002 -2.320014315178548E-002
 -2.763890288787426E-002 -3.143970394449276E-002 -3.447539076661003E-002
 -3.679168976136481E-002 -3.848528426515805E-002 -3.968682183911389E-002
 -4.051708164825068E-002  0.000000000000000E+000 -2.059343134687265E-004
 -5.967154644315922E-004 -1.288783171780619E-003 -2.918895425121374E-003
 -5.573396522451829E-003 -9.167771110016921E-003 -1.357217217812317E-002
 -1.838427778900438E-002 -2.320014315178548E-002 -2.763890288787426E-002
 -3.143970394449276E-002 -3.447539076661003E-002 -3.679168976136481E-002
 -3.848528426515805E-002 -3.968682183911389E-002 -4.051708164825068E-002
  0.000000000000000E+000 -2.059343134687265E-004 -5.967154644315922E-004
 -1.288783171780619E-003 -2.918895425121374E-003 -5.573396522451829E-003
 -9.167771110016921E-003 -1.357217217812317E-002 -1.838427778900438E-002
 -2.320014315178548E-002 -2.763890288787426E-002 -3.143970394449276E-002
 -3.447539076661003E-002 -3.679168976136481E-002 -3.848528426515805E-002
 -3.968682183911389E-002 -4.051708164825068E-002  0.000000000000000E+000
 -2.059343134687265E-004 -5.967154644315922E-004 -1.288783171780619E-003
 -2.918895425121374E-003 -5.573396522451829E-003 -9.167771110016921E-003
 -1.357217217812317E-002 -1.838427778900438E-002 -2.320014315178548E-002
 -2.763890288787426E-002 -3.143970394449276E-002 -3.447539076661003E-002
 -3.679168976136481E-002 -3.848528426515805E-002 -3.968682183911389E-002
 -4.051708164825068E-002  0.000000000000000E+000 -2.059343134687265E-004
 -5.967154644315922E-004 -1.288783171780619E-003 -2.918895425121374E-003
 -5.573396522451829E-003 -9.167771110016921E-003 -1.357217217812317E-002
 -1.838427778900438E-002 -2.320014315178548E-002 -2.763890288787426E-002
 -3.143970394449276E-002 -3.447539076661003E-002 -3.679168976136481E-002
 -3.848528426515805E-002 -3.968682183911389E-002 -4.051708164825068E-002
  0.000000000000000E+000 -2.059343134687265E-004 -5.967154644315922E-004
 -1.288783171780619E-003 -2.918895425121374E-003 -5.573396522451829E-003
 -9.167771110016921E-003 -1.357217217812317E-002 -1.838427778900438E-002
 -2.320014315178548E-002 -2.763890288787426E-002 -3.143970394449276E-002
 -3.447539076661003E-002 -3.679168976136481E-002 -3.848528426515805E-002
 -3.968682183911389E-002 -4.051708164825068E-002  0.000000000000000E+000
 -2.059343134687265E-004 -5.967154644315922E-004 -1.288783171780619E-003
 -2.918895425121374E-003 -5.573396522451829E-003 -9.167771110016921E-003
 -1.357217217812317E-002 -1.838427778900438E-002 -2.320014315178548E-002
 -2.763890288787426E-002 -3.143970394449276E-002 -3.447539076661003E-002
 -3.679168976136481E-002 -3.848528426515805E-002 -3.968682183911389E-002
 -4.051708164825068E-002  0.000000000000000E+000 -2.059343134687265E-004
 -5.967154644315922E-004 -1.288783171780619E-003 -2.918895425121374E-003
 -5.573396522451829E-003 -9.167771110016921E-003 -1.357217217812317E-002
 -1.838427778900438E-002 -2.320014315178548E-002 -2.763890288787426E-002
 -3.143970394449276E-002 -3.447539076661003E-002 -3.679168976136481E-002
 -3.848528426515805E-002 -3.968682183911389E-002 -4.051708164825068E-002
  0.000000000000000E+000 -2.059343134687265E-004 -5.967154644315922E-004
 -1.288783171780619E-003 -2.918895425121374E-003 -5.573396522451829E-003
 -9.167771110016921E-003 -1.357217217812317E-002 -1.838427778900438E-002
 -2.320014315178548E-002 -2.763890288787426E-002 -3.143970394449276E-002
 -3.447539076661003E-002 -3.679168976136481E-002 -3.848528426515805E-002
 -3.968682183911389E-002 -4.051708164825068E-002  0.000000000000000E+000
 -2.059343134687265E-004 -5.967154644315922E-004 -1.288783171780619E-003
 -2.918895425121374E-003 -5.573396522451829E-003 -9.167771110016921E-003
 -1.357217217812317E-002 -1.838427778900438E-002 -2.320014315178548E-002
 -2.763890288787426E-002 -3.143970394449276E-002 -3.447539076661003E-002
 -3.679168976136481E-002 -3.848528426515805E-002 -3.968682183911389E-002
 -4.051708164825068E-002  0.000000000000000E+000 -2.059343134687265E-004
 -5.967154644315922E-004 -1.288783171780619E-003 -2.918895425121374E-003
 -5.573396522451829E-003 -9.167771110016921E-003 -1.357217217812317E-002
 -1.838427778900438E-002 -2.320014315178548E-002 -2.763890288787426E-002
 -3.143970394449276E-002 -3.447539076661003E-002 -3.679168976136481E-002
 -3.848528426515805E-002 -3.968682183911389E-002 -4.051708164825068E-002
  0.000000000000000E+000 -2.059343134687265E-004 -5.967154644315922E-004
 -1.288783171780619E-003 -2.918895425121374E-003 -5.573396522451829E-003
 -9.167771110016921E-003 -1.357217217812317E-002 -1.838427778900438E-002
 -2.320014315178548E-002 -2.763890288787426E-002 -3.143970394449276E-002
 -3.447539076661003E-002 -3.679168976136481E-002 -3.848528426515805E-002
 -3.968682183911389E-002 -4.051708164825068E-002  0.000000000000000E+000
 -2.059343134687265E-004 -5.967154644315922E-004 -1.288783171780619E-003
 -2.918895425121374E-003 -5.573396522451829E-003 -9.167771110016921E-003
 -1.357217217812317E-002 -1.838427778900438E-002 -2.320014315178548E-002
 -2.763890288787426E-002 -3.143970394449276E-002 -3.447539076661003E-002
 -3.679168976136481E-002 -3.848528426515805E-002 -3.968682183911389E-002
 -4.051708164825068E-002  0.000000000000000E+000 -2.059343134687265E-004
 -5.967154644315922E-004 -1.288783171780619E-003 -2.918895425121374E-003
 -5.573396522451829E-003 -9.167771110016921E-003 -1.357217217812317E-002
 -1.838427778900438E-002 -2.320014315178548E-002 -2.763890288787426E-002
 -3.143970394449276E-002 -3.447539076661003E-002 -3.679168976136481E-002
 -3.848528426515805E-002 -3.968682183911389E-002 -4.051708164825068E-002
  0.000000000000000E+000 -2.059343134687265E-004 -5.967154644315922E-004
 -1.288783171780619E-003 -2.918895425121374E-003 -5.573396522451829E-003
 -9.167771110016921E-003 -1.357217217812317E-002 -1.838427778900438E-002
 -2.320014315178548E-002 -2.763890288787426E-002 -3.143970394449276E-002
 -3.447539076661003E-002 -3.679168976136481E-002 -3.848528426515805E-002
 -3.968682183911389E-002 -4.051708164825068E-002  0.000000000000000E+000
 -2.059343134687265E-004 -5.967154644315922E-004 -1.288783171780619E-003
 -2.918895425121374E-003 -5.573396522451829E-003 -9.167771110016921E-003
 -1.357217217812317E-002 -1.838427778900438E-002 -2.320014315178548E-002
 -2.763890288787426E-002 -3.143970394449276E-002 -3.447539076661003E-002
 -3.679168976136481E-002 -3.848528426515805E-002 -3.968682183911389E-002
 -4.051708164825068E-002
 -0.146508943244370      -0.286792915927733      -0.353519244173821     
 -0.330865627511471      -0.294034848062344      -0.268053169337812     
 -0.250872513307110      -0.250072618682885      -0.257104583837718     
 -0.268262469625912      -0.280940613835625      -0.294072135869441     
 -0.304545908008642      -0.312971307422945      -0.319175896340449     
 -0.323106904047938      -0.180695117843160      -0.363479159643237     
 -0.466302256547132      -0.458088953851241      -0.417571344230480     
 -0.382415836018897      -0.357355190389736      -0.354821789720659     
 -0.364717299316573      -0.381714500271047      -0.401932452946931     
 -0.423420878808005      -0.442050926490648      -0.457914321670580     
 -0.469708467716183      -0.476326310646926      -0.193740129716803     
 -0.392621165690641      -0.510706829664488      -0.512141669258515     
 -0.473526701557352      -0.434095284644762      -0.403145129245909     
 -0.397685316214061      -0.408376551524321      -0.429196389782835     
 -0.455156850717381      -0.483031072916387      -0.507154304719077     
 -0.526489538797342      -0.539600127972239      -0.546259064046342     
 -0.192762448521834      -0.391694850142087      -0.509303309602404     
 -0.507151892364219      -0.463094566797107      -0.416351469980226     
 -0.377255984137166      -0.365802714146738      -0.373775562266402     
 -0.394860085184016      -0.422766276004453      -0.452645580152780     
 -0.477601273961922      -0.496648038879362      -0.508992257283992     
 -0.514969203690936      -0.177242945878160      -0.360227738707326     
 -0.461302258057911      -0.438696065728017      -0.373800681051822     
 -0.307567739143245      -0.250885589370750      -0.225503319456533     
 -0.223422643105943      -0.237756962917487      -0.260905097184241     
 -0.286956849637388      -0.308588210457831      -0.325071281730703     
 -0.335648746629995      -0.340611283160743      -0.143691096293072     
 -0.291147997312157      -0.356171822183766      -0.291833664162176     
 -0.184389284545457      -7.821303519460175E-002  1.416240116089657E-002
  6.881714622491827E-002  9.402620779839613E-002  9.743401799907499E-002
  8.766252625976850E-002  7.128643067877716E-002  5.635952621528080E-002
  4.415936834258599E-002  3.614318445525168E-002  3.247630011907730E-002
 -8.703572961847934E-002 -0.174001050880828      -0.178371058060538     
 -4.562467479063873E-002  0.132178224171421       0.305832268583942     
  0.459728084026300       0.566194042981699       0.633119481054293     
  0.668523985772478       0.682026221411850       0.681428257156710     
  0.676678597760763       0.670599051961689       0.665998997877688     
  0.663935876463362      -2.079585356078559E-003  1.921045314649997E-003
  8.782778008857986E-002  0.320531528487311       0.601462751021848     
  0.875248472144161        1.12163432483691        1.30714833757708     
   1.43802873457171        1.52207682688416        1.57023501178988     
   1.59256493666178        1.60222766226385        1.60455906968381     
   1.60445539948937        1.60440961978422       0.114205800963956     
  0.242770826320932       0.451069121172698       0.817100809002169     
   1.23538537249581        1.64317863595133        2.01408773311354     
   2.30695323790465        2.52517811496558        2.67584097561541     
   2.77153129383421        2.82540644536002        2.85488867463155     
   2.86871105298365        2.87465740185695        2.87726715117773     
  0.258409911027475       0.541301844020682       0.899822607377983     
   1.42715582369257        2.01088414740603        2.58010630316758     
   3.10132573415359        3.52463549005797        3.84999723198914     
   4.08346886570893        4.23929821300875        4.33394461756899     
   4.38952068092918        4.41869290768552        4.43278268370318     
   4.43894736810463       0.414344913306894       0.863819802817004     
   1.38331427114135        2.08168389783427        2.83978850118723     
   3.57853307910995        4.25744436606784        4.81830890016568     
   5.25808643070205        5.58187787810656        5.80515354706083     
   5.94700057388730        6.03370738362744        6.08169492235988     
   6.10596978683973        6.11660118406711       0.553448221014102     
   1.15105256465129        1.81302969553690        2.66204750689368     
   3.57237030312450        4.45756368165165        5.27176181817965     
   5.95085026404337        6.49072999273311        6.89625640523237     
   7.18326609362184        7.37178577390336        7.49062100973784     
   7.55880152421954        7.59435364907297        7.61000116829498     
  0.648852437477076        1.34718036167093        2.10555833950060     
   3.05640654163761        4.06711911371204        5.04529934103711     
   5.94241646083498        6.69269791581075        7.29477046752073     
   7.75521594648583        8.08943987312538        8.31578777178073     