 Title = "Wing and Wake"
 VARIABLES = "X" "Y" "Z" "GAM" "skew"
 Zone I=   17 J=   20 K=1  T="Blade 01"
 DATAPACKING=BLOCK
 VARLOCATION=([4]=CELLCENTERED,[5]=CELLCENTERED)
  0.430513849156729       0.429910303135934       0.428359101540891     
  0.426024476763532       0.422821316475763       0.418619247491487     
  0.413384201101009       0.407273511463085       0.400654849541473     
  0.394046760918680       0.387962931959865       0.382762736931117     
  0.378601189324502       0.375432782772238       0.373116208866840     
  0.371472061902648       0.370337574347186       0.438573982141875     
  0.437970436121081       0.436419234526038       0.434084609748680     
  0.430881449460911       0.426679380476635       0.421444334086157     
  0.415333644448233       0.408714982526620       0.402106893903827     
  0.396023064945014       0.390822869916264       0.386661322309650     
  0.383492915757386       0.381176341851987       0.379532194887795     
  0.378397707332336       0.449972847415616       0.449369301394820     
  0.447818099799779       0.445483475022419       0.442280314734650     
  0.438078245750374       0.432843199359896       0.426732509721973     
  0.420113847800360       0.413505759177566       0.407421930218753     
  0.402221735190004       0.398060187583388       0.394891781031125     
  0.392575207125726       0.390931060161534       0.389796572606075     
  0.465886074784705       0.465282528763909       0.463731327168867     
  0.461396702391507       0.458193542103739       0.453991473119464     
  0.448756426728985       0.442645737091061       0.436027075169447     
  0.429418986546654       0.423335157587841       0.418134962559092     
  0.413973414952476       0.410805008400215       0.408488434494815     
  0.406844287530622       0.405709799975164       0.487704880984105     
  0.487101334963310       0.485550133368268       0.483215508590908     
  0.480012348303138       0.475810279318863       0.470575232928385     
  0.464464543290462       0.457845881368849       0.451237792746055     
  0.445153963787242       0.439953768758492       0.435792221151877     
  0.432623814599614       0.430307240694216       0.428663093730023     
  0.427528606174564       0.516893284434776       0.516289738413981     
  0.514738536818938       0.512403912041579       0.509200751753810     
  0.504998682769535       0.499763636379055       0.493652946741133     
  0.487034284819519       0.480426196196725       0.474342367237913     
  0.469142172209163       0.464980624602549       0.461812218050283     
  0.459495644144885       0.457851497180694       0.456717009625235     
  0.554680271533984       0.554076725513189       0.552525523918147     
  0.550190899140786       0.546987738853018       0.542785669868742     
  0.537550623478263       0.531439933840340       0.524821271918727     
  0.518213183295935       0.512129354337121       0.506929159308369     
  0.502767611701757       0.499599205149493       0.497282631244095     
  0.495638484279903       0.494503996724444       0.601574420769446     
  0.600970874748650       0.599419673153608       0.597085048376251     
  0.593881888088482       0.589679819104207       0.584444772713725     
  0.578334083075803       0.571715421154189       0.565107332531395     
  0.559023503572585       0.553823308543836       0.549661760937217     
  0.546493354384957       0.544176780479558       0.542532633515364     
  0.541398145959908       0.656811361407038       0.656207815386244     
  0.654656613791202       0.652321989013842       0.649118828726072     
  0.644916759741797       0.639681713351320       0.633571023713396     
  0.626952361791783       0.620344273168989       0.614260444210174     
  0.609060249181425       0.604898701574811       0.601730295022549     
  0.599413721117149       0.597769574152957       0.596635086597496     
  0.718012967662674       0.717409421641877       0.715858220046834     
  0.713523595269476       0.710320434981707       0.706118365997431     
  0.700883319606954       0.694772629969029       0.688153968047416     
  0.681545879424623       0.675462050465810       0.670261855437060     
  0.666100307830445       0.662931901278182       0.660615327372783     
  0.658971180408590       0.657836692853132       0.781391579173726     
  0.780788033152934       0.779236831557889       0.776902206780532     
  0.773699046492762       0.769496977508486       0.764261931118008     
  0.758151241480084       0.751532579558469       0.744924490935676     
  0.738840661976863       0.733640466948116       0.729478919341499     
  0.726310512789239       0.723993938883837       0.722349791919645     
  0.721215304364185       0.842593185429363       0.841989639408567     
  0.840438437813524       0.838103813036166       0.834900652748398     
  0.830698583764122       0.825463537373642       0.819352847735719     
  0.812734185814105       0.806126097191313       0.800042268232499     
  0.794842073203746       0.790680525597134       0.787512119044871     
  0.785195545139473       0.783551398175281       0.782416910619820     
  0.897830126066955       0.897226580046159       0.895675378451115     
  0.893340753673758       0.890137593385988       0.885935524401711     
  0.880700478011232       0.874589788373311       0.867971126451698     
  0.861363037828901       0.855279208870092       0.850079013841340     
  0.845917466234724       0.842749059682463       0.840432485777065     
  0.838788338812871       0.837653851257411       0.944724275302413     
  0.944120729281622       0.942569527686580       0.940234902909218     
  0.937031742621450       0.932829673637175       0.927594627246697     
  0.921483937608773       0.914865275687159       0.908257187064367     
  0.902173358105554       0.896973163076804       0.892811615470189     
  0.889643208917925       0.887326635012527       0.885682488048334     
  0.884548000492877       0.982511262401623       0.981907716380830     
  0.980356514785785       0.978021890008426       0.974818729720662     
  0.970616660736384       0.965381614345903       0.959270924707982     
  0.952652262786369       0.946044174163575       0.939960345204761     
  0.934760150176013       0.930598602569397       0.927430196017134     
  0.925113622111734       0.923469475147542       0.922334987592084     
   1.01169966585229        1.01109611983150        1.00954491823646     
   1.00721029345910        1.00400713317133       0.999805064187054     
  0.994570017796572       0.988459328158655       0.981840666237034     
  0.975232577614247       0.969148748655431       0.963948553626682     
  0.959787006020067       0.956618599467803       0.954302025562408     
  0.952657878598215       0.951523391042756        1.03351847205170     
   1.03291492603090        1.03136372443586        1.02902909965850     
   1.02582593937073        1.02162387038646        1.01638882399597     
   1.01027813435805        1.00365947243644       0.997051383813646     
  0.990967554854829       0.985767359826082       0.981605812219466     
  0.978437405667205       0.976120831761803       0.974476684797616     
  0.973342197242152        1.04943169942078        1.04882815339999     
   1.04727695180494        1.04494232702759        1.04173916673982     
   1.03753709775554        1.03230205136507        1.02619136172714     
   1.01957269980553        1.01296461118274        1.00688078222392     
   1.00168058719517       0.997519039588556       0.994350633036295     
  0.992034059130896       0.990389912166705       0.989255424611243     
   1.06083056469452        1.06022701867373        1.05867581707868     
   1.05634119230133        1.05313803201356        1.04893596302928     
   1.04370091663880        1.03759022700088        1.03097156507927     
   1.02436347645647        1.01827964749766        1.01307945246891     
   1.00891790486229        1.00574949831003        1.00343292440463     
   1.00178877744044        1.00065428988498        1.06889069767967     
   1.06828715165888        1.06673595006383        1.06440132528648     
   1.06119816499871        1.05699609601443        1.05176104962395     
   1.04565035998603        1.03903169806441        1.03242360944162     
   1.02633978048281        1.02113958545406        1.01697803784744     
   1.01380963129518        1.01149305738978        1.00984891042559     
   1.00871442287013     
 -6.127486936345780E-002 -6.292834912121628E-002 -6.717803406525540E-002
 -7.357399175252821E-002 -8.234939663335074E-002 -9.386142018551891E-002
 -0.108203397332824      -0.124944294089874      -0.143076835990202     
 -0.161180411192102      -0.177847720206612      -0.192094218270031     
 -0.203495229114947      -0.212175422369505      -0.218521927736048     
 -0.223026246595598      -0.226134298249904      -6.421694420134627E-002
 -6.587042395910635E-002 -7.012010890314532E-002 -7.651606659041840E-002
 -8.529147147124116E-002 -9.680349502340783E-002 -0.111145472170712     
 -0.127886368927764      -0.146018910828090      -0.164122486029992     
 -0.180789795044503      -0.195036293107920      -0.206437303952837     
 -0.215117497207395      -0.221464002573937      -0.225968321433489     
 -0.229076373087795      -6.837770864086253E-002 -7.003118839862124E-002
 -7.428087334265943E-002 -8.067683102993298E-002 -8.945223591075444E-002
 -0.100964259462924      -0.115306236610228      -0.132047133367279     
 -0.150179675267606      -0.168283250469507      -0.184950559484017     
 -0.199197057547436      -0.210598068392352      -0.219278261646909     
 -0.225624767013453      -0.230129085873002      -0.233237137527311     
 -7.418628598300843E-002 -7.583976574076752E-002 -8.008945068480580E-002
 -8.648540837207876E-002 -9.526081325290228E-002 -0.106772836805070     
 -0.121114813952374      -0.137855710709425      -0.155988252609751     
 -0.174091827811653      -0.190759136826163      -0.205005634889581     
 -0.216406645734498      -0.225086838989057      -0.231433344355598     
 -0.235937663215150      -0.239045714869456      -8.215049213572793E-002
 -8.380397189348658E-002 -8.805365683752545E-002 -9.444961452479785E-002
 -0.103225019405621      -0.114737042957789      -0.129079020105093     
 -0.145819916862144      -0.163952458762472      -0.182056033964372     
 -0.198723342978883      -0.212969841042301      -0.224370851887218     
 -0.233051045141775      -0.239397550508318      -0.243901869367868     
 -0.247009921022176      -9.280471676311697E-002 -9.445819652087625E-002
 -9.870788146491465E-002 -0.105103839152188      -0.113879244033010     
 -0.125391267585179      -0.139733244732483      -0.156474141489534     
 -0.174606683389860      -0.192710258591760      -0.209377567606272     
 -0.223624065669691      -0.235025076514607      -0.243705269769164     
 -0.250051775135706      -0.254556093995258      -0.257664145649565     
 -0.106597559157790      -0.108251038915549      -0.112500723859587     
 -0.118896681546860      -0.127672086427684      -0.139184109979850     
 -0.153526087127155      -0.170266983884205      -0.188399525784533     
 -0.206503100986435      -0.223170410000944      -0.237416908064361     
 -0.248817918909280      -0.257498112163837      -0.263844617530380     
 -0.268348936389932      -0.271456988044238      -0.123714658436936     
 -0.125368138194696      -0.129617823138734      -0.136013780826007     
 -0.144789185706830      -0.156301209258999      -0.170643186406300     
 -0.187384083163354      -0.205516625063680      -0.223620200265579     
 -0.240287509280092      -0.254534007343510      -0.265935018188425     
 -0.274615211442984      -0.280961716809527      -0.285466035669076     
 -0.288574087323385      -0.143877007305290      -0.145530487063049     
 -0.149780172007089      -0.156176129694359      -0.164951534575184     
 -0.176463558127352      -0.190805535274656      -0.207546432031707     
 -0.225678973932035      -0.243782549133934      -0.260449858148444     
 -0.274696356211861      -0.286097367056779      -0.294777560311338     
 -0.301124065677880      -0.305628384537430      -0.308736436191738     
 -0.166216552587598      -0.167870032345358      -0.172119717289396     
 -0.178515674976669      -0.187291079857492      -0.198803103409659     
 -0.213145080556965      -0.229885977314015      -0.248018519214342     
 -0.266122094416243      -0.282789403430754      -0.297035901494172     
 -0.308436912339088      -0.317117105593648      -0.323463610960187     
 -0.327967929819740      -0.331075981474048      -0.189350738900733     
 -0.191004218658495      -0.195253903602533      -0.201649861289806     
 -0.210425266170628      -0.221937289722797      -0.236279266870101     
 -0.253020163627151      -0.271152705527477      -0.289256280729379     
 -0.305923589743890      -0.320170087807308      -0.331571098652224     
 -0.340251291906783      -0.346597797273324      -0.351102116132876     
 -0.354210167787183      -0.211690284183044      -0.213343763940803     
 -0.217593448884843      -0.223989406572113      -0.232764811452938     
 -0.244276835005105      -0.258618812152409      -0.275359708909459     
 -0.293492250809788      -0.311595826011690      -0.328263135026198     
 -0.342509633089616      -0.353910643934534      -0.362590837189092     
 -0.368937342555633      -0.373441661415184      -0.376549713069493     
 -0.231852633051398      -0.233506112809156      -0.237755797753194     
 -0.244151755440468      -0.252927160321293      -0.264439183873459     
 -0.278781161020762      -0.295522057777815      -0.313654599678141     
 -0.331758174880038      -0.348425483894552      -0.362671981957969     
 -0.374072992802885      -0.382753186057444      -0.389099691423987     
 -0.393604010283536      -0.396712061937844      -0.248969732330544     
 -0.250623212088304      -0.254872897032341      -0.261268854719614     
 -0.270044259600437      -0.281556283152605      -0.295898260299911     
 -0.312639157056958      -0.330771698957288      -0.348875274159187     
 -0.365542583173699      -0.379789081237117      -0.391190092082033     
 -0.399870285336591      -0.406216790703134      -0.410721109562683     
 -0.413829161216993      -0.262762574725216      -0.264416054482975     
 -0.268665739427014      -0.275061697114287      -0.283837101995111     
 -0.295349125547279      -0.309691102694582      -0.326431999451634     
 -0.344564541351962      -0.362668116553861      -0.379335425568372     
 -0.393581923631789      -0.404982934476707      -0.413663127731266     
 -0.420009633097806      -0.424513951957357      -0.427622003611665     
 -0.273416799352604      -0.275070279110366      -0.279319964054404     
 -0.285715921741676      -0.294491326622500      -0.306003350174666     
 -0.320345327321970      -0.337086224079024      -0.355218765979346     
 -0.373322341181250      -0.389989650195761      -0.404236148259178     
 -0.415637159104095      -0.424317352358652      -0.430663857725196     
 -0.435168176584747      -0.438276228239057      -0.281381005505326     
 -0.283034485263085      -0.287284170207124      -0.293680127894395     
 -0.302455532775218      -0.313967556327389      -0.328309533474691     
 -0.345050430231742      -0.363182972132070      -0.381286547333970     
 -0.397953856348477      -0.412200354411899      -0.423601365256815     
 -0.432281558511373      -0.438628063877913      -0.443132382737468     
 -0.446240434391773      -0.287189582847473      -0.288843062605231     
 -0.293092747549269      -0.299488705236543      -0.308264110117362     
 -0.319776133669535      -0.334118110816837      -0.350859007573888     
 -0.368991549474216      -0.387095124676116      -0.403762433690627     
 -0.418008931754045      -0.429409942598961      -0.438090135853521     
 -0.444436641220061      -0.448940960079613      -0.452049011733919     
 -0.291350347286986      -0.293003827044746      -0.297253511988784     
 -0.303649469676058      -0.312424874556879      -0.323936898109049     
 -0.338278875256352      -0.355019772013402      -0.373152313913731     
 -0.391255889115631      -0.407923198130142      -0.422169696193558     
 -0.433570707038474      -0.442250900293032      -0.448597405659576     
 -0.453101724519128      -0.456209776173435      -0.294292422124876     
 -0.295945901882636      -0.300195586826674      -0.306591544513947     
 -0.315366949394771      -0.326878972946938      -0.341220950094242     
 -0.357961846851292      -0.376094388751619      -0.394197963953521     
 -0.410865272968031      -0.425111771031450      -0.436512781876364     
 -0.445192975130924      -0.451539480497465      -0.456043799357018     
 -0.459151851011325     
  0.000000000000000E+000 -2.059343134687265E-004 -5.967154644315922E-004
 -1.288783171780619E-003 -2.918895425121374E-003 -5.573396522451829E-003
 -9.167771110016921E-003 -1.357217217812317E-002 -1.838427778900438E-002
 -2.320014315178548E-002 -2.763890288787426E-002 -3.143970394449276E-002
 -3.447539076661003E-002 -3.679168976136481E-002 -3.848528426515805E-002
 -3.968682183911389E-002 -4.051708164825068E-002  0.000000000000000E+000
 -2.059343134687265E-004 -5.967154644315922E-004 -1.288783171780619E-003
 -2.918895425121374E-003 -5.573396522451829E-003 -9.167771110016921E-003
 -1.357217217812317E-002 -1.838427778900438E-002 -2.320014315178548E-002
 -2.763890288787426E-002 -3.143970394449276E-002 -3.447539076661003E-002
 -3.679168976136481E-002 -3.848528426515805E-002 -3.968682183911389E-002
 -4.051708164825068E-002  0.000000000000000E+000 -2.059343134687265E-004
 -5.967154644315922E-004 -1.288783171780619E-003 -2.918895425121374E-003
 -5.573396522451829E-003 -9.167771110016921E-003 -1.357217217812317E-002
 -1.838427778900438E-002 -2.320014315178548E-002 -2.763890288787426E-002
 -3.143970394449276E-002 -3.447539076661003E-002 -3.679168976136481E-002
 -3.848528426515805E-002 -3.968682183911389E-002 -4.051708164825068E-002
  0.000000000000000E+000 -2.059343134687265E-004 -5.967154644315922E-004
 -1.288783171780619E-003 -2.918895425121374E-003 -5.573396522451829E-003
 -9.167771110016921E-003 -1.357217217812317E-002 -1.838427778900438E-002
 -2.320014315178548E-002 -2.763890288787426E-002 -3.143970394449276E-002
 -3.447539076661003E-002 -3.679168976136481E-002 -3.848528426515805E-002
 -3.968682183911389E-002 -4.051708164825068E-002  0.000000000000000E+000
 -2.059343134687265E-004 -5.967154644315922E-004 -1.288783171780619E-003
 -2.918895425121374E-003 -5.573396522451829E-003 -9.167771110016921E-003
 -1.357217217812317E-002 -1.838427778900438E-002 -2.320014315178548E-002
 -2.763890288787426E-002 -3.143970394449276E-002 -3.447539076661003E-002
 -3.679168976136481E-002 -3.848528426515805E-002 -3.968682183911389E-002
 -4.051708164825068E-002  0.000000000000000E+000 -2.059343134687265E-004
 -5.967154644315922E-004 -1.288783171780619E-003 -2.918895425121374E-003
 -5.573396522451829E-003 -9.167771110016921E-003 -1.357217217812317E-002
 -1.838427778900438E-002 -2.320014315178548E-002 -2.763890288787426E-002
 -3.143970394449276E-002 -3.447539076661003E-002 -3.679168976136481E-002
 -3.848528426515805E-002 -3.968682183911389E-002 -4.051708164825068E-002
  0.000000000000000E+000 -2.059343134687265E-004 -5.967154644315922E-004
 -1.288783171780619E-003 -2.918895425121374E-003 -5.573396522451829E-003
 -9.167771110016921E-003 -1.357217217812317E-002 -1.838427778900438E-002
 -2.320014315178548E-002 -2.763890288787426E-002 -3.143970394449276E-002
 -3.447539076661003E-002 -3.679168976136481E-002 -3.848528426515805E-002
 -3.968682183911389E-002 -4.051708164825068E-002  0.000000000000000E+000
 -2.059343134687265E-004 -5.967154644315922E-004 -1.288783171780619E-003
 -2.918895425121374E-003 -5.573396522451829E-003 -9.167771110016921E-003
 -1.357217217812317E-002 -1.838427778900438E-002 -2.320014315178548E-002
 -2.763890288787426E-002 -3.143970394449276E-002 -3.447539076661003E-002
 -3.679168976136481E-002 -3.848528426515805E-002 -3.968682183911389E-002
 -4.051708164825068E-002  0.000000000000000E+000 -2.059343134687265E-004
 -5.967154644315922E-004 -1.288783171780619E-003 -2.918895425121374E-003
 -5.573396522451829E-003 -9.167771110016921E-003 -1.357217217812317E-002
 -1.838427778900438E-002 -2.320014315178548E-002 -2.763890288787426E-002
 -3.143970394449276E-002 -3.447539076661003E-002 -3.679168976136481E-002
 -3.848528426515805E-002 -3.968682183911389E-002 -4.051708164825068E-002
  0.000000000000000E+000 -2.059343134687265E-004 -5.967154644315922E-004
 -1.288783171780619E-003 -2.918895425121374E-003 -5.573396522451829E-003
 -9.167771110016921E-003 -1.357217217812317E-002 -1.838427778900438E-002
 -2.320014315178548E-002 -2.763890288787426E-002 -3.143970394449276E-002
 -3.447539076661003E-002 -3.679168976136481E-002 -3.848528426515805E-002
 -3.968682183911389E-002 -4.051708164825068E-002  0.000000000000000E+000
 -2.059343134687265E-004 -5.967154644315922E-004 -1.288783171780619E-003
 -2.918895425121374E-003 -5.573396522451829E-003 -9.167771110016921E-003
 -1.357217217812317E-002 -1.838427778900438E-002 -2.320014315178548E-002
 -2.763890288787426E-002 -3.143970394449276E-002 -3.447539076661003E-002
 -3.679168976136481E-002 -3.848528426515805E-002 -3.968682183911389E-002
 -4.051708164825068E-002  0.000000000000000E+000 -2.059343134687265E-004
 -5.967154644315922E-004 -1.288783171780619E-003 -2.918895425121374E-003
 -5.573396522451829E-003 -9.167771110016921E-003 -1.357217217812317E-002
 -1.838427778900438E-002 -2.320014315178548E-002 -2.763890288787426E-002
 -3.143970394449276E-002 -3.447539076661003E-002 -3.679168976136481E-002
 -3.848528426515805E-002 -3.968682183911389E-002 -4.051708164825068E-002
  0.000000000000000E+000 -2.059343134687265E-004 -5.967154644315922E-004
 -1.288783171780619E-003 -2.918895425121374E-003 -5.573396522451829E-003
 -9.167771110016921E-003 -1.357217217812317E-002 -1.838427778900438E-002
 -2.320014315178548E-002 -2.763890288787426E-002 -3.143970394449276E-002
 -3.447539076661003E-002 -3.679168976136481E-002 -3.848528426515805E-002
 -3.968682183911389E-002 -4.051708164825068E-002  0.000000000000000E+000
 -2.059343134687265E-004 -5.967154644315922E-004 -1.288783171780619E-003
 -2.918895425121374E-003 -5.573396522451829E-003 -9.167771110016921E-003
 -1.357217217812317E-002 -1.838427778900438E-002 -2.320014315178548E-002
 -2.763890288787426E-002 -3.143970394449276E-002 -3.447539076661003E-002
 -3.679168976136481E-002 -3.848528426515805E-002 -3.968682183911389E-002
 -4.051708164825068E-002  0.000000000000000E+000 -2.059343134687265E-004
 -5.967154644315922E-004 -1.288783171780619E-003 -2.918895425121374E-003
 -5.573396522451829E-003 -9.167771110016921E-003 -1.357217217812317E-002
 -1.838427778900438E-002 -2.320014315178548E-002 -2.763890288787426E-002
 -3.143970394449276E-002 -3.447539076661003E-002 -3.679168976136481E-002
 -3.848528426515805E-002 -3.968682183911389E-002 -4.051708164825068E-002
  0.000000000000000E+000 -2.059343134687265E-004 -5.967154644315922E-004
 -1.288783171780619E-003 -2.918895425121374E-003 -5.573396522451829E-003
 -9.167771110016921E-003 -1.357217217812317E-002 -1.838427778900438E-002
 -2.320014315178548E-002 -2.763890288787426E-002 -3.143970394449276E-002
 -3.447539076661003E-002 -3.679168976136481E-002 -3.848528426515805E-002
 -3.968682183911389E-002 -4.051708164825068E-002  0.000000000000000E+000
 -2.059343134687265E-004 -5.967154644315922E-004 -1.288783171780619E-003
 -2.918895425121374E-003 -5.573396522451829E-003 -9.167771110016921E-003
 -1.357217217812317E-002 -1.838427778900438E-002 -2.320014315178548E-002
 -2.763890288787426E-002 -3.143970394449276E-002 -3.447539076661003E-002
 -3.679168976136481E-002 -3.848528426515805E-002 -3.968682183911389E-002
 -4.051708164825068E-002  0.000000000000000E+000 -2.059343134687265E-004
 -5.967154644315922E-004 -1.288783171780619E-003 -2.918895425121374E-003
 -5.573396522451829E-003 -9.167771110016921E-003 -1.357217217812317E-002
 -1.838427778900438E-002 -2.320014315178548E-002 -2.763890288787426E-002
 -3.143970394449276E-002 -3.447539076661003E-002 -3.679168976136481E-002
 -3.848528426515805E-002 -3.968682183911389E-002 -4.051708164825068E-002
  0.000000000000000E+000 -2.059343134687265E-004 -5.967154644315922E-004
 -1.288783171780619E-003 -2.918895425121374E-003 -5.573396522451829E-003
 -9.167771110016921E-003 -1.357217217812317E-002 -1.838427778900438E-002
 -2.320014315178548E-002 -2.763890288787426E-002 -3.143970394449276E-002
 -3.447539076661003E-002 -3.679168976136481E-002 -3.848528426515805E-002
 -3.968682183911389E-002 -4.051708164825068E-002  0.000000000000000E+000
 -2.059343134687265E-004 -5.967154644315922E-004 -1.288783171780619E-003
 -2.918895425121374E-003 -5.573396522451829E-003 -9.167771110016921E-003
 -1.357217217812317E-002 -1.838427778900438E-002 -2.320014315178548E-002
 -2.763890288787426E-002 -3.143970394449276E-002 -3.447539076661003E-002
 -3.679168976136481E-002 -3.848528426515805E-002 -3.968682183911389E-002
 -4.051708164825068E-002
 -0.356739614143111      -0.699329815315947      -0.833321299283067     
 -0.697781600737103      -0.525040123041766      -0.392688036379708     
 -0.294292620499157      -0.254168060174250      -0.245318399849833     
 -0.255756083664597      -0.276846333974389      -0.304748303888453     
 -0.328844657648031      -0.349882262859267      -0.365725092814963     
 -0.375245194873634      -0.429876846910635      -0.863690368950315     
  -1.06752709290573      -0.935768526803853      -0.713653724737146     
 -0.519166641461631      -0.367223052664597      -0.297258154497991     
 -0.276972664005883      -0.288651242280496      -0.318870992416664     
 -0.360127134516490      -0.397678738675905      -0.430547460226188     
 -0.454746615210086      -0.468131838698998      -0.446970569793565     
 -0.903256265505590       -1.12502264963464      -0.990994207294486     
 -0.741501272294946      -0.502054631951004      -0.303449862864199     
 -0.199937980517042      -0.161270310766443      -0.166856919808398     
 -0.199084347974661      -0.246213524552350      -0.289432258955832     
 -0.325667142342053      -0.350780946571265      -0.363815712171687     
 -0.426401095173947      -0.862617470048899       -1.06135830779629     
 -0.891567644487271      -0.597509715281196      -0.306464513844041     
 -5.474314666463371E-002  9.252212605557322E-002  0.161607676736003     
  0.174045793242146       0.151340951009936       0.109510974569324     
  7.058024697606148E-002  3.808198490176395E-002  1.585744099085367E-002
  4.629730826340462E-003 -0.367276203037940      -0.741215139424550     
 -0.874596004275028      -0.624416792626557      -0.245422179192147     
  0.129110449801458       0.459478350364036       0.672988892320532     
  0.793623780600216       0.843510527486122       0.847341355592162     
  0.824199225890088       0.798451509382253       0.774536932905955     
  0.757561548540483       0.749076554407382      -0.261423698142852     
 -0.522374009604498      -0.539387417799768      -0.152407057327849     
  0.369070833906420       0.881092111849514        1.33794006868755     
   1.65820567768169        1.86453215692204        1.97964785459003     
   2.03081329196313        2.03993734537415        2.03521249235516     
   2.02407858062663        2.01446140103631        2.00952229226093     
 -9.645627498406015E-002 -0.180459447943685      -1.729197830049461E-002
  0.576942144802658        1.31461425510213        2.03688223589821     
   2.68806692816621        3.17357904303984        3.51296480134008     
   3.72873600427876        3.85119487177609        3.90707279085321     
   3.93160097695205        3.93763852333987        3.93743352754760     
   3.93676821408074       0.142894117861508       0.316071550965571     
  0.738245861962806        1.62501903724494        2.66791672444027     
   3.68908877647705        4.61833466213384        5.34192952569930     
   5.87291272997895        6.23223734096635        6.45455293411063     
   6.57454002482109        6.63822642380462        6.66656070499169     
   6.67806422224981        6.68250444859136       0.474435491869804     
   1.00377791783652        1.78005232725775        3.05893466281584     
   4.50959663215499        5.93137032276214        7.23485417306871     
   8.28122585689050        9.07331840300574        9.62894840647549     
   9.98811935404335        10.1961671796439        10.3134333919354     
   10.3719319515498        10.3989651698741        10.4100519448997     
  0.913823620219030        1.91430549069198        3.15197636579137     
   4.93045647697391        6.89692537280036        8.82515371333962     
   10.6029293188170        12.0623412134912        13.1935170438908     
   14.0096160285572        14.5555558582445        14.8878769105981     
   15.0830237488037        15.1864512420434        15.2369629295271     
   15.2581463357784        1.44722270179901        3.01773201882804     
   4.80507647414475        7.16546352348489        9.72586938594598     
   12.2336975651191        14.5533369462000        16.4886494903968     
   18.0182895033083        19.1507589458865        19.9339558989469     
   20.4327388630191        20.7376750235204        20.9074189189462     
   20.9937921882842        21.0306625330076        1.98516380684258     
   4.12788198705787        6.45997759807723        9.38692034939394     
   12.5166154289378        15.5719238004705        18.3981252136072     
   20.7787963623180        22.6883025945399        24.1337556962882     
   25.1636221278163        25.8452360581169        26.2772853848192     
   26.5275610072818        26.6591294877487        26.7161895720984     
   2.38996590979779        4.95965670415286        7.69359093791825     
   11.0332536584156        14.5662838093752        17.9952164133867     
   21.1553387628860        23.8247037458806        25.9870388110208     
   27.6555047941415        28.8768282930918        29.7121092632875     