 Title = "Wing and Wake"
 VARIABLES = "X" "Y" "Z" "GAM" "skew"
 Zone I=   17 J=   20 K=1  T="Blade 01"
 DATAPACKING=BLOCK
 VARLOCATION=([4]=CELLCENTERED,[5]=CELLCENTERED)
  0.430513849156731       0.429910303135934       0.428359101540891     
  0.426024476763533       0.422821316475764       0.418619247491488     
  0.413384201101011       0.407273511463085       0.400654849541475     
  0.394046760918681       0.387962931959866       0.382762736931117     
  0.378601189324503       0.375432782772238       0.373116208866841     
  0.371472061902648       0.370337574347186       0.438573982141876     
  0.437970436121082       0.436419234526038       0.434084609748681     
  0.430881449460912       0.426679380476636       0.421444334086158     
  0.415333644448234       0.408714982526621       0.402106893903827     
  0.396023064945014       0.390822869916266       0.386661322309651     
  0.383492915757387       0.381176341851988       0.379532194887796     
  0.378397707332337       0.449972847415617       0.449369301394822     
  0.447818099799780       0.445483475022419       0.442280314734651     
  0.438078245750374       0.432843199359897       0.426732509721973     
  0.420113847800361       0.413505759177567       0.407421930218753     
  0.402221735190006       0.398060187583390       0.394891781031126     
  0.392575207125726       0.390931060161534       0.389796572606076     
  0.465886074784705       0.465282528763911       0.463731327168868     
  0.461396702391507       0.458193542103740       0.453991473119465     
  0.448756426728987       0.442645737091063       0.436027075169448     
  0.429418986546655       0.423335157587842       0.418134962559093     
  0.413973414952476       0.410805008400216       0.408488434494816     
  0.406844287530623       0.405709799975165       0.487704880984107     
  0.487101334963312       0.485550133368270       0.483215508590910     
  0.480012348303139       0.475810279318864       0.470575232928387     
  0.464464543290462       0.457845881368851       0.451237792746056     
  0.445153963787244       0.439953768758493       0.435792221151878     
  0.432623814599614       0.430307240694218       0.428663093730023     
  0.427528606174564       0.516893284434778       0.516289738413982     
  0.514738536818940       0.512403912041580       0.509200751753812     
  0.504998682769536       0.499763636379056       0.493652946741133     
  0.487034284819521       0.480426196196727       0.474342367237913     
  0.469142172209163       0.464980624602551       0.461812218050282     
  0.459495644144885       0.457851497180695       0.456717009625236     
  0.554680271533987       0.554076725513190       0.552525523918150     
  0.550190899140787       0.546987738853019       0.542785669868742     
  0.537550623478265       0.531439933840342       0.524821271918729     
  0.518213183295936       0.512129354337122       0.506929159308369     
  0.502767611701758       0.499599205149493       0.497282631244096     
  0.495638484279904       0.494503996724445       0.601574420769447     
  0.600970874748651       0.599419673153607       0.597085048376254     
  0.593881888088484       0.589679819104210       0.584444772713725     
  0.578334083075805       0.571715421154191       0.565107332531395     
  0.559023503572586       0.553823308543838       0.549661760937217     
  0.546493354384959       0.544176780479559       0.542532633515364     
  0.541398145959909       0.656811361407037       0.656207815386245     
  0.654656613791203       0.652321989013842       0.649118828726072     
  0.644916759741798       0.639681713351322       0.633571023713399     
  0.626952361791785       0.620344273168990       0.614260444210173     
  0.609060249181425       0.604898701574813       0.601730295022549     
  0.599413721117150       0.597769574152958       0.596635086597496     
  0.718012967662676       0.717409421641878       0.715858220046835     
  0.713523595269477       0.710320434981709       0.706118365997433     
  0.700883319606956       0.694772629969032       0.688153968047418     
  0.681545879424624       0.675462050465813       0.670261855437064     
  0.666100307830445       0.662931901278183       0.660615327372786     
  0.658971180408590       0.657836692853133       0.781391579173727     
  0.780788033152937       0.779236831557892       0.776902206780533     
  0.773699046492764       0.769496977508489       0.764261931118011     
  0.758151241480087       0.751532579558470       0.744924490935677     
  0.738840661976865       0.733640466948117       0.729478919341499     
  0.726310512789242       0.723993938883838       0.722349791919646     
  0.721215304364186       0.842593185429368       0.841989639408571     
  0.840438437813527       0.838103813036169       0.834900652748398     
  0.830698583764125       0.825463537373644       0.819352847735723     
  0.812734185814106       0.806126097191315       0.800042268232501     
  0.794842073203747       0.790680525597136       0.787512119044873     
  0.785195545139476       0.783551398175282       0.782416910619820     
  0.897830126066958       0.897226580046162       0.895675378451118     
  0.893340753673760       0.890137593385990       0.885935524401714     
  0.880700478011232       0.874589788373312       0.867971126451702     
  0.861363037828901       0.855279208870094       0.850079013841342     
  0.845917466234725       0.842749059682465       0.840432485777068     
  0.838788338812873       0.837653851257413       0.944724275302415     
  0.944120729281624       0.942569527686582       0.940234902909219     
  0.937031742621452       0.932829673637177       0.927594627246699     
  0.921483937608775       0.914865275687162       0.908257187064371     
  0.902173358105555       0.896973163076806       0.892811615470191     
  0.889643208917927       0.887326635012530       0.885682488048336     
  0.884548000492880       0.982511262401624       0.981907716380833     
  0.980356514785785       0.978021890008426       0.974818729720664     
  0.970616660736387       0.965381614345904       0.959270924707985     
  0.952652262786371       0.946044174163577       0.939960345204764     
  0.934760150176016       0.930598602569398       0.927430196017137     
  0.925113622111735       0.923469475147546       0.922334987592085     
   1.01169966585229        1.01109611983150        1.00954491823646     
   1.00721029345910        1.00400713317133       0.999805064187058     
  0.994570017796573       0.988459328158658       0.981840666237034     
  0.975232577614253       0.969148748655436       0.963948553626686     
  0.959787006020070       0.956618599467806       0.954302025562411     
  0.952657878598217       0.951523391042759        1.03351847205170     
   1.03291492603091        1.03136372443586        1.02902909965850     
   1.02582593937073        1.02162387038646        1.01638882399598     
   1.01027813435806        1.00365947243644       0.997051383813650     
  0.990967554854829       0.985767359826084       0.981605812219468     
  0.978437405667207       0.976120831761802       0.974476684797617     
  0.973342197242153        1.04943169942079        1.04882815339999     
   1.04727695180495        1.04494232702759        1.04173916673982     
   1.03753709775555        1.03230205136507        1.02619136172714     
   1.01957269980553        1.01296461118274        1.00688078222392     
   1.00168058719517       0.997519039588558       0.994350633036297     
  0.992034059130900       0.990389912166709       0.989255424611244     
   1.06083056469453        1.06022701867373        1.05867581707868     
   1.05634119230133        1.05313803201356        1.04893596302929     
   1.04370091663881        1.03759022700088        1.03097156507927     
   1.02436347645647        1.01827964749766        1.01307945246891     
   1.00891790486230        1.00574949831003        1.00343292440464     
   1.00178877744044        1.00065428988499        1.06889069767967     
   1.06828715165889        1.06673595006384        1.06440132528648     
   1.06119816499871        1.05699609601443        1.05176104962395     
   1.04565035998603        1.03903169806442        1.03242360944163     
   1.02633978048281        1.02113958545406        1.01697803784744     
   1.01380963129519        1.01149305738979        1.00984891042559     
   1.00871442287013     
 -6.127486936345901E-002 -6.292834912121628E-002 -6.717803406525714E-002
 -7.357399175252957E-002 -8.234939663335236E-002 -9.386142018552009E-002
 -0.108203397332826      -0.124944294089875      -0.143076835990203     
 -0.161180411192104      -0.177847720206612      -0.192094218270032     
 -0.203495229114949      -0.212175422369507      -0.218521927736050     
 -0.223026246595599      -0.226134298249905      -6.421694420134740E-002
 -6.587042395910764E-002 -7.012010890314653E-002 -7.651606659041987E-002
 -8.529147147124279E-002 -9.680349502340892E-002 -0.111145472170713     
 -0.127886368927766      -0.146018910828091      -0.164122486029994     
 -0.180789795044504      -0.195036293107921      -0.206437303952840     
 -0.215117497207397      -0.221464002573938      -0.225968321433491     
 -0.229076373087797      -6.837770864086404E-002 -7.003118839862335E-002
 -7.428087334266095E-002 -8.067683102993412E-002 -8.945223591075614E-002
 -0.100964259462925      -0.115306236610228      -0.132047133367280     
 -0.150179675267607      -0.168283250469508      -0.184950559484019     
 -0.199197057547438      -0.210598068392354      -0.219278261646911     
 -0.225624767013454      -0.230129085873004      -0.233237137527313     
 -7.418628598300910E-002 -7.583976574076842E-002 -8.008945068480698E-002
 -8.648540837208100E-002 -9.526081325290363E-002 -0.106772836805071     
 -0.121114813952375      -0.137855710709427      -0.155988252609752     
 -0.174091827811655      -0.190759136826164      -0.205005634889583     
 -0.216406645734499      -0.225086838989058      -0.231433344355600     
 -0.235937663215151      -0.239045714869458      -8.215049213572903E-002
 -8.380397189348814E-002 -8.805365683752708E-002 -9.444961452479927E-002
 -0.103225019405623      -0.114737042957791      -0.129079020105095     
 -0.145819916862146      -0.163952458762473      -0.182056033964374     
 -0.198723342978885      -0.212969841042303      -0.224370851887220     
 -0.233051045141776      -0.239397550508319      -0.243901869367870     
 -0.247009921022177      -9.280471676311861E-002 -9.445819652087785E-002
 -9.870788146491671E-002 -0.105103839152189      -0.113879244033011     
 -0.125391267585180      -0.139733244732485      -0.156474141489535     
 -0.174606683389862      -0.192710258591763      -0.209377567606273     
 -0.223624065669692      -0.235025076514609      -0.243705269769165     
 -0.250051775135708      -0.254556093995260      -0.257664145649568     
 -0.106597559157792      -0.108251038915551      -0.112500723859589     
 -0.118896681546862      -0.127672086427687      -0.139184109979850     
 -0.153526087127157      -0.170266983884208      -0.188399525784535     
 -0.206503100986437      -0.223170410000947      -0.237416908064362     
 -0.248817918909283      -0.257498112163838      -0.263844617530383     
 -0.268348936389934      -0.271456988044242      -0.123714658436937     
 -0.125368138194697      -0.129617823138735      -0.136013780826009     
 -0.144789185706833      -0.156301209259001      -0.170643186406300     
 -0.187384083163357      -0.205516625063683      -0.223620200265579     
 -0.240287509280095      -0.254534007343512      -0.265935018188426     
 -0.274615211442987      -0.280961716809530      -0.285466035669077     
 -0.288574087323388      -0.143877007305290      -0.145530487063053     
 -0.149780172007091      -0.156176129694359      -0.164951534575187     
 -0.176463558127355      -0.190805535274658      -0.207546432031710     
 -0.225678973932038      -0.243782549133936      -0.260449858148446     
 -0.274696356211861      -0.286097367056782      -0.294777560311340     
 -0.301124065677882      -0.305628384537433      -0.308736436191738     
 -0.166216552587600      -0.167870032345360      -0.172119717289398     
 -0.178515674976670      -0.187291079857495      -0.198803103409662     
 -0.213145080556967      -0.229885977314018      -0.248018519214345     
 -0.266122094416244      -0.282789403430756      -0.297035901494176     
 -0.308436912339090      -0.317117105593650      -0.323463610960190     
 -0.327967929819742      -0.331075981474049      -0.189350738900736     
 -0.191004218658497      -0.195253903602536      -0.201649861289806     
 -0.210425266170632      -0.221937289722800      -0.236279266870105     
 -0.253020163627155      -0.271152705527480      -0.289256280729382     
 -0.305923589743893      -0.320170087807309      -0.331571098652225     
 -0.340251291906785      -0.346597797273328      -0.351102116132880     
 -0.354210167787185      -0.211690284183047      -0.213343763940806     
 -0.217593448884846      -0.223989406572114      -0.232764811452941     
 -0.244276835005108      -0.258618812152411      -0.275359708909463     
 -0.293492250809791      -0.311595826011694      -0.328263135026201     
 -0.342509633089619      -0.353910643934537      -0.362590837189095     
 -0.368937342555637      -0.373441661415186      -0.376549713069496     
 -0.231852633051401      -0.233506112809158      -0.237755797753197     
 -0.244151755440471      -0.252927160321297      -0.264439183873463     
 -0.278781161020765      -0.295522057777820      -0.313654599678145     
 -0.331758174880038      -0.348425483894555      -0.362671981957972     
 -0.374072992802887      -0.382753186057447      -0.389099691423990     
 -0.393604010283541      -0.396712061937847      -0.248969732330546     
 -0.250623212088308      -0.254872897032344      -0.261268854719618     
 -0.270044259600439      -0.281556283152608      -0.295898260299915     
 -0.312639157056959      -0.330771698957292      -0.348875274159190     
 -0.365542583173702      -0.379789081237121      -0.391190092082036     
 -0.399870285336595      -0.406216790703138      -0.410721109562687     
 -0.413829161216996      -0.262762574725218      -0.264416054482979     
 -0.268665739427016      -0.275061697114287      -0.283837101995113     
 -0.295349125547283      -0.309691102694584      -0.326431999451638     
 -0.344564541351968      -0.362668116553865      -0.379335425568375     
 -0.393581923631793      -0.404982934476710      -0.413663127731269     
 -0.420009633097809      -0.424513951957360      -0.427622003611668     
 -0.273416799352606      -0.275070279110371      -0.279319964054407     
 -0.285715921741681      -0.294491326622503      -0.306003350174669     
 -0.320345327321973      -0.337086224079029      -0.355218765979346     
 -0.373322341181254      -0.389989650195765      -0.404236148259182     
 -0.415637159104100      -0.424317352358657      -0.430663857725199     
 -0.435168176584752      -0.438276228239062      -0.281381005505330     
 -0.283034485263090      -0.287284170207127      -0.293680127894399     
 -0.302455532775220      -0.313967556327393      -0.328309533474695     
 -0.345050430231746      -0.363182972132073      -0.381286547333975     
 -0.397953856348477      -0.412200354411902      -0.423601365256820     
 -0.432281558511378      -0.438628063877916      -0.443132382737472     
 -0.446240434391776      -0.287189582847477      -0.288843062605234     
 -0.293092747549273      -0.299488705236548      -0.308264110117364     
 -0.319776133669538      -0.334118110816842      -0.350859007573888     
 -0.368991549474219      -0.387095124676120      -0.403762433690630     
 -0.418008931754049      -0.429409942598965      -0.438090135853527     
 -0.444436641220066      -0.448940960079618      -0.452049011733922     
 -0.291350347286990      -0.293003827044749      -0.297253511988787     
 -0.303649469676062      -0.312424874556879      -0.323936898109053     
 -0.338278875256356      -0.355019772013406      -0.373152313913735     
 -0.391255889115634      -0.407923198130145      -0.422169696193562     
 -0.433570707038478      -0.442250900293035      -0.448597405659580     
 -0.453101724519132      -0.456209776173440      -0.294292422124879     
 -0.295945901882640      -0.300195586826677      -0.306591544513947     
 -0.315366949394776      -0.326878972946942      -0.341220950094246     
 -0.357961846851298      -0.376094388751621      -0.394197963953526     
 -0.410865272968034      -0.425111771031454      -0.436512781876364     
 -0.445192975130927      -0.451539480497468      -0.456043799357021     
 -0.459151851011328     
  0.000000000000000E+000 -2.059343134687265E-004 -5.967154644315922E-004
 -1.288783171780619E-003 -2.918895425121374E-003 -5.573396522451829E-003
 -9.167771110016921E-003 -1.357217217812317E-002 -1.838427778900438E-002
 -2.320014315178548E-002 -2.763890288787426E-002 -3.143970394449276E-002
 -3.447539076661003E-002 -3.679168976136481E-002 -3.848528426515805E-002
 -3.968682183911389E-002 -4.051708164825068E-002  0.000000000000000E+000
 -2.059343134687265E-004 -5.967154644315922E-004 -1.288783171780619E-003
 -2.918895425121374E-003 -5.573396522451829E-003 -9.167771110016921E-003
 -1.357217217812317E-002 -1.838427778900438E-002 -2.320014315178548E-002
 -2.763890288787426E-002 -3.143970394449276E-002 -3.447539076661003E-002
 -3.679168976136481E-002 -3.848528426515805E-002 -3.968682183911389E-002
 -4.051708164825068E-002  0.000000000000000E+000 -2.059343134687265E-004
 -5.967154644315922E-004 -1.288783171780619E-003 -2.918895425121374E-003
 -5.573396522451829E-003 -9.167771110016921E-003 -1.357217217812317E-002
 -1.838427778900438E-002 -2.320014315178548E-002 -2.763890288787426E-002
 -3.143970394449276E-002 -3.447539076661003E-002 -3.679168976136481E-002
 -3.848528426515805E-002 -3.968682183911389E-002 -4.051708164825068E-002
  0.000000000000000E+000 -2.059343134687265E-004 -5.967154644315922E-004
 -1.288783171780619E-003 -2.918895425121374E-003 -5.573396522451829E-003
 -9.167771110016921E-003 -1.357217217812317E-002 -1.838427778900438E-002
 -2.320014315178548E-002 -2.763890288787426E-002 -3.143970394449276E-002
 -3.447539076661003E-002 -3.679168976136481E-002 -3.848528426515805E-002
 -3.968682183911389E-002 -4.051708164825068E-002  0.000000000000000E+000
 -2.059343134687265E-004 -5.967154644315922E-004 -1.288783171780619E-003
 -2.918895425121374E-003 -5.573396522451829E-003 -9.167771110016921E-003
 -1.357217217812317E-002 -1.838427778900438E-002 -2.320014315178548E-002
 -2.763890288787426E-002 -3.143970394449276E-002 -3.447539076661003E-002
 -3.679168976136481E-002 -3.848528426515805E-002 -3.968682183911389E-002
 -4.051708164825068E-002  0.000000000000000E+000 -2.059343134687265E-004
 -5.967154644315922E-004 -1.288783171780619E-003 -2.918895425121374E-003
 -5.573396522451829E-003 -9.167771110016921E-003 -1.357217217812317E-002
 -1.838427778900438E-002 -2.320014315178548E-002 -2.763890288787426E-002
 -3.143970394449276E-002 -3.447539076661003E-002 -3.679168976136481E-002
 -3.848528426515805E-002 -3.968682183911389E-002 -4.051708164825068E-002
  0.000000000000000E+000 -2.059343134687265E-004 -5.967154644315922E-004
 -1.288783171780619E-003 -2.918895425121374E-003 -5.573396522451829E-003
 -9.167771110016921E-003 -1.357217217812317E-002 -1.838427778900438E-002
 -2.320014315178548E-002 -2.763890288787426E-002 -3.143970394449276E-002
 -3.447539076661003E-002 -3.679168976136481E-002 -3.848528426515805E-002
 -3.968682183911389E-002 -4.051708164825068E-002  0.000000000000000E+000
 -2.059343134687265E-004 -5.967154644315922E-004 -1.288783171780619E-003
 -2.918895425121374E-003 -5.573396522451829E-003 -9.167771110016921E-003
 -1.357217217812317E-002 -1.838427778900438E-002 -2.320014315178548E-002
 -2.763890288787426E-002 -3.143970394449276E-002 -3.447539076661003E-002
 -3.679168976136481E-002 -3.848528426515805E-002 -3.968682183911389E-002
 -4.051708164825068E-002  0.000000000000000E+000 -2.059343134687265E-004
 -5.967154644315922E-004 -1.288783171780619E-003 -2.918895425121374E-003
 -5.573396522451829E-003 -9.167771110016921E-003 -1.357217217812317E-002
 -1.838427778900438E-002 -2.320014315178548E-002 -2.763890288787426E-002
 -3.143970394449276E-002 -3.447539076661003E-002 -3.679168976136481E-002
 -3.848528426515805E-002 -3.968682183911389E-002 -4.051708164825068E-002
  0.000000000000000E+000 -2.059343134687265E-004 -5.967154644315922E-004
 -1.288783171780619E-003 -2.918895425121374E-003 -5.573396522451829E-003
 -9.167771110016921E-003 -1.357217217812317E-002 -1.838427778900438E-002
 -2.320014315178548E-002 -2.763890288787426E-002 -3.143970394449276E-002
 -3.447539076661003E-002 -3.679168976136481E-002 -3.848528426515805E-002
 -3.968682183911389E-002 -4.051708164825068E-002  0.000000000000000E+000
 -2.059343134687265E-004 -5.967154644315922E-004 -1.288783171780619E-003
 -2.918895425121374E-003 -5.573396522451829E-003 -9.167771110016921E-003
 -1.357217217812317E-002 -1.838427778900438E-002 -2.320014315178548E-002
 -2.763890288787426E-002 -3.143970394449276E-002 -3.447539076661003E-002
 -3.679168976136481E-002 -3.848528426515805E-002 -3.968682183911389E-002
 -4.051708164825068E-002  0.000000000000000E+000 -2.059343134687265E-004
 -5.967154644315922E-004 -1.288783171780619E-003 -2.918895425121374E-003
 -5.573396522451829E-003 -9.167771110016921E-003 -1.357217217812317E-002
 -1.838427778900438E-002 -2.320014315178548E-002 -2.763890288787426E-002
 -3.143970394449276E-002 -3.447539076661003E-002 -3.679168976136481E-002
 -3.848528426515805E-002 -3.968682183911389E-002 -4.051708164825068E-002
  0.000000000000000E+000 -2.059343134687265E-004 -5.967154644315922E-004
 -1.288783171780619E-003 -2.918895425121374E-003 -5.573396522451829E-003
 -9.167771110016921E-003 -1.357217217812317E-002 -1.838427778900438E-002
 -2.320014315178548E-002 -2.763890288787426E-002 -3.143970394449276E-002
 -3.447539076661003E-002 -3.679168976136481E-002 -3.848528426515805E-002
 -3.968682183911389E-002 -4.051708164825068E-002  0.000000000000000E+000
 -2.059343134687265E-004 -5.967154644315922E-004 -1.288783171780619E-003
 -2.918895425121374E-003 -5.573396522451829E-003 -9.167771110016921E-003
 -1.357217217812317E-002 -1.838427778900438E-002 -2.320014315178548E-002
 -2.763890288787426E-002 -3.143970394449276E-002 -3.447539076661003E-002
 -3.679168976136481E-002 -3.848528426515805E-002 -3.968682183911389E-002
 -4.051708164825068E-002  0.000000000000000E+000 -2.059343134687265E-004
 -5.967154644315922E-004 -1.288783171780619E-003 -2.918895425121374E-003
 -5.573396522451829E-003 -9.167771110016921E-003 -1.357217217812317E-002
 -1.838427778900438E-002 -2.320014315178548E-002 -2.763890288787426E-002
 -3.143970394449276E-002 -3.447539076661003E-002 -3.679168976136481E-002
 -3.848528426515805E-002 -3.968682183911389E-002 -4.051708164825068E-002
  0.000000000000000E+000 -2.059343134687265E-004 -5.967154644315922E-004
 -1.288783171780619E-003 -2.918895425121374E-003 -5.573396522451829E-003
 -9.167771110016921E-003 -1.357217217812317E-002 -1.838427778900438E-002
 -2.320014315178548E-002 -2.763890288787426E-002 -3.143970394449276E-002
 -3.447539076661003E-002 -3.679168976136481E-002 -3.848528426515805E-002
 -3.968682183911389E-002 -4.051708164825068E-002  0.000000000000000E+000
 -2.059343134687265E-004 -5.967154644315922E-004 -1.288783171780619E-003
 -2.918895425121374E-003 -5.573396522451829E-003 -9.167771110016921E-003
 -1.357217217812317E-002 -1.838427778900438E-002 -2.320014315178548E-002
 -2.763890288787426E-002 -3.143970394449276E-002 -3.447539076661003E-002
 -3.679168976136481E-002 -3.848528426515805E-002 -3.968682183911389E-002
 -4.051708164825068E-002  0.000000000000000E+000 -2.059343134687265E-004
 -5.967154644315922E-004 -1.288783171780619E-003 -2.918895425121374E-003
 -5.573396522451829E-003 -9.167771110016921E-003 -1.357217217812317E-002
 -1.838427778900438E-002 -2.320014315178548E-002 -2.763890288787426E-002
 -3.143970394449276E-002 -3.447539076661003E-002 -3.679168976136481E-002
 -3.848528426515805E-002 -3.968682183911389E-002 -4.051708164825068E-002
  0.000000000000000E+000 -2.059343134687265E-004 -5.967154644315922E-004
 -1.288783171780619E-003 -2.918895425121374E-003 -5.573396522451829E-003
 -9.167771110016921E-003 -1.357217217812317E-002 -1.838427778900438E-002
 -2.320014315178548E-002 -2.763890288787426E-002 -3.143970394449276E-002
 -3.447539076661003E-002 -3.679168976136481E-002 -3.848528426515805E-002
 -3.968682183911389E-002 -4.051708164825068E-002  0.000000000000000E+000
 -2.059343134687265E-004 -5.967154644315922E-004 -1.288783171780619E-003
 -2.918895425121374E-003 -5.573396522451829E-003 -9.167771110016921E-003
 -1.357217217812317E-002 -1.838427778900438E-002 -2.320014315178548E-002
 -2.763890288787426E-002 -3.143970394449276E-002 -3.447539076661003E-002
 -3.679168976136481E-002 -3.848528426515805E-002 -3.968682183911389E-002
 -4.051708164825068E-002
 -0.432772467147565      -0.847604777048605       -1.03604424873195     
 -0.944402168300129      -0.810646173343092      -0.714264233334058     
 -0.649026300838747      -0.639256923688190      -0.657482029593526     
 -0.691191437383937      -0.731216086565789      -0.773426684393698     
 -0.807443826068626      -0.834893955522230      -0.854967974066809     
 -0.867416874064093      -0.530474587975989       -1.06690925958537     
  -1.35629897407526       -1.29758816358115       -1.14064162860817     
  -1.00548896489221      -0.907631861992942      -0.886855367909319     
 -0.910521970714331      -0.960463319443867       -1.02282536230665     
  -1.09008997206405       -1.14823760559334       -1.19721475526966     
  -1.23315177084113       -1.25317050308691      -0.564053836740996     
  -1.14241991210807       -1.47054784190630       -1.43202350413507     
  -1.27055698367435       -1.11210806031171      -0.987338156435194     
 -0.950832130302449      -0.972237803097977       -1.03075250586884     
  -1.10846604516990       -1.19343461693742       -1.26679272549257     
  -1.32527242498623       -1.36475497368681       -1.38487250388743     
 -0.554559868563626       -1.12575538868007       -1.44467667042724     
  -1.38614418791401       -1.19782855283514       -1.00631507729339     
 -0.846456614191518      -0.782989990997571      -0.789360086076063     
 -0.843715577586877      -0.923787186933538       -1.01240997357868     
  -1.08682004741600       -1.14373971917316       -1.18070129246357     
  -1.19878286725646      -0.499854536374485       -1.01418926588497     
  -1.27405100661014       -1.14302912362888      -0.879696016037018     
 -0.616365066567697      -0.390398775138143      -0.273076666971667     
 -0.239320045918200      -0.265898197781499      -0.326496447731025     
 -0.400418634063302      -0.463085010645858      -0.511458364131093     
 -0.542751013522290      -0.557711350214728      -0.388051249254853     
 -0.783493419857792      -0.922377679620552      -0.651187190816347     
 -0.243438384216569       0.157712720655902       0.509092224041243     
  0.731350786591479       0.849108795717829       0.887013007432391     
  0.874323256230464       0.834228627631044       0.794393874679085     
  0.760320456179412       0.737445367980887       0.726599796592303     
 -0.200435339419618      -0.394992209371933      -0.332034241942144     
  0.167075085375953       0.811103321308771        1.44169882188555     
   2.00529124322853        2.40912826188679        2.67472406709687     
   2.82641287673612        2.89610492236610        2.91133642400847     
   2.90676941969231        2.89373754425662        2.88252797628766     
   2.87699237918300       8.632155744596826E-002  0.199457926885315     
  0.567883144971022        1.40491760900891        2.39976431325839     
   3.37465186314741        4.26035761578066        4.94365352259285     
   5.43819478319665        5.76543448463334        5.96057904017676     
   6.05878475872002        6.10622794463342        6.12356570362519     
   6.12860408082879        6.13017497632271       0.494119077699895     
   1.04471201257876        1.84201833120977        3.14418378649484     
   4.62021951844725        6.06896436799324        7.40023327539186     
   8.47351995677183        9.28996344771284        9.86573155307944     
   10.2398618571216        10.4577289906824        10.5807313703511     
   10.6422145304640        10.6706509160366        10.6823182361747     
   1.02372172947420        2.14150675407500        3.48824216306442     
   5.37540605393618        7.45249985647381        9.49209747284090     
   11.3792386859157        12.9420855445021        14.1667792490750     
   15.0627989057484        15.6726636117019        16.0523754631544     
   16.2800071831701        16.4037287349605        16.4654773014146     
   16.4915619971000        1.61868964671088        3.37215043550488     
   5.32879749045891        7.85626888599443        10.5855990231427     
   13.2624934879568        15.7471526264068        17.8378784127668     
   19.5076739338631        20.7599995631225        21.6395501966982     
   22.2104908008730        22.5655608219137        22.7670863887385     
   22.8712635627158        22.9159074187424        2.15891427224505     
   4.48749924020512        6.99236586461162        10.0907287546480     
   13.3949898353672        16.6264268492791        19.6257936612037     
   22.1703965923266        24.2279813620626        25.7997086653851     
   26.9303261514714        27.6865753630187        28.1699254711386     
   28.4524962294137        28.6020926256537        28.6669675051413     
   2.52674592978088        5.24350868842215        8.11566286078789     
   11.5945477769660        15.2717051343313        18.8484849083836     
   22.1561069277638        24.9665593849731        27.2569750298988     
   29.0345014325960        30.3420558280229        31.2401150212970     