 Title = "Wing and Wake"
 VARIABLES = "X" "Y" "Z" "GAM" "skew"
 Zone I=   17 J=   20 K=1  T="Blade 01"
 DATAPACKING=BLOCK
 VARLOCATION=([4]=CELLCENTERED,[5]=CELLCENTERED)
  0.430513849156730       0.429910303135934       0.428359101540892     
  0.426024476763532       0.422821316475764       0.418619247491488     
  0.413384201101011       0.407273511463085       0.400654849541475     
  0.394046760918680       0.387962931959866       0.382762736931117     
  0.378601189324503       0.375432782772238       0.373116208866841     
  0.371472061902648       0.370337574347186       0.438573982141876     
  0.437970436121081       0.436419234526038       0.434084609748682     
  0.430881449460912       0.426679380476635       0.421444334086156     
  0.415333644448234       0.408714982526620       0.402106893903826     
  0.396023064945014       0.390822869916266       0.386661322309651     
  0.383492915757387       0.381176341851988       0.379532194887796     
  0.378397707332337       0.449972847415617       0.449369301394821     
  0.447818099799779       0.445483475022420       0.442280314734651     
  0.438078245750374       0.432843199359897       0.426732509721973     
  0.420113847800360       0.413505759177566       0.407421930218752     
  0.402221735190005       0.398060187583389       0.394891781031126     
  0.392575207125726       0.390931060161534       0.389796572606076     
  0.465886074784705       0.465282528763910       0.463731327168867     
  0.461396702391507       0.458193542103740       0.453991473119465     
  0.448756426728986       0.442645737091062       0.436027075169448     
  0.429418986546655       0.423335157587842       0.418134962559093     
  0.413973414952476       0.410805008400215       0.408488434494816     
  0.406844287530622       0.405709799975165       0.487704880984106     
  0.487101334963311       0.485550133368269       0.483215508590910     
  0.480012348303139       0.475810279318863       0.470575232928386     
  0.464464543290462       0.457845881368850       0.451237792746055     
  0.445153963787244       0.439953768758492       0.435792221151878     
  0.432623814599614       0.430307240694216       0.428663093730024     
  0.427528606174564       0.516893284434778       0.516289738413982     
  0.514738536818939       0.512403912041580       0.509200751753812     
  0.504998682769535       0.499763636379056       0.493652946741133     
  0.487034284819520       0.480426196196727       0.474342367237913     
  0.469142172209163       0.464980624602550       0.461812218050283     
  0.459495644144884       0.457851497180695       0.456717009625236     
  0.554680271533986       0.554076725513190       0.552525523918149     
  0.550190899140787       0.546987738853018       0.542785669868742     
  0.537550623478265       0.531439933840342       0.524821271918729     
  0.518213183295935       0.512129354337122       0.506929159308369     
  0.502767611701758       0.499599205149493       0.497282631244096     
  0.495638484279904       0.494503996724445       0.601574420769447     
  0.600970874748651       0.599419673153608       0.597085048376254     
  0.593881888088484       0.589679819104209       0.584444772713730     
  0.578334083075804       0.571715421154190       0.565107332531397     
  0.559023503572586       0.553823308543836       0.549661760937218     
  0.546493354384957       0.544176780479558       0.542532633515364     
  0.541398145959908       0.656811361407037       0.656207815386244     
  0.654656613791203       0.652321989013844       0.649118828726074     
  0.644916759741797       0.639681713351321       0.633571023713399     
  0.626952361791785       0.620344273168990       0.614260444210173     
  0.609060249181424       0.604898701574813       0.601730295022549     
  0.599413721117150       0.597769574152957       0.596635086597498     
  0.718012967662674       0.717409421641877       0.715858220046834     
  0.713523595269477       0.710320434981710       0.706118365997432     
  0.700883319606956       0.694772629969030       0.688153968047418     
  0.681545879424624       0.675462050465812       0.670261855437064     
  0.666100307830445       0.662931901278182       0.660615327372786     
  0.658971180408590       0.657836692853133       0.781391579173727     
  0.780788033152937       0.779236831557891       0.776902206780533     
  0.773699046492765       0.769496977508489       0.764261931118010     
  0.758151241480088       0.751532579558470       0.744924490935676     
  0.738840661976864       0.733640466948116       0.729478919341499     
  0.726310512789241       0.723993938883838       0.722349791919646     
  0.721215304364187       0.842593185429366       0.841989639408569     
  0.840438437813527       0.838103813036169       0.834900652748399     
  0.830698583764124       0.825463537373644       0.819352847735721     
  0.812734185814106       0.806126097191314       0.800042268232501     
  0.794842073203748       0.790680525597136       0.787512119044873     
  0.785195545139475       0.783551398175283       0.782416910619819     
  0.897830126066955       0.897226580046162       0.895675378451118     
  0.893340753673759       0.890137593385989       0.885935524401714     
  0.880700478011232       0.874589788373312       0.867971126451701     
  0.861363037828902       0.855279208870093       0.850079013841344     
  0.845917466234723       0.842749059682465       0.840432485777066     
  0.838788338812872       0.837653851257411       0.944724275302414     
  0.944120729281624       0.942569527686582       0.940234902909219     
  0.937031742621451       0.932829673637176       0.927594627246698     
  0.921483937608774       0.914865275687161       0.908257187064369     
  0.902173358105554       0.896973163076807       0.892811615470191     
  0.889643208917926       0.887326635012529       0.885682488048336     
  0.884548000492879       0.982511262401624       0.981907716380830     
  0.980356514785786       0.978021890008426       0.974818729720664     
  0.970616660736385       0.965381614345903       0.959270924707984     
  0.952652262786370       0.946044174163574       0.939960345204763     
  0.934760150176015       0.930598602569399       0.927430196017135     
  0.925113622111734       0.923469475147546       0.922334987592085     
   1.01169966585229        1.01109611983150        1.00954491823646     
   1.00721029345910        1.00400713317133       0.999805064187057     
  0.994570017796573       0.988459328158656       0.981840666237035     
  0.975232577614252       0.969148748655437       0.963948553626685     
  0.959787006020071       0.956618599467806       0.954302025562409     
  0.952657878598217       0.951523391042758        1.03351847205170     
   1.03291492603090        1.03136372443586        1.02902909965850     
   1.02582593937073        1.02162387038646        1.01638882399597     
   1.01027813435805        1.00365947243644       0.997051383813649     
  0.990967554854828       0.985767359826083       0.981605812219467     
  0.978437405667207       0.976120831761802       0.974476684797617     
  0.973342197242152        1.04943169942079        1.04882815339999     
   1.04727695180495        1.04494232702759        1.04173916673982     
   1.03753709775554        1.03230205136507        1.02619136172715     
   1.01957269980553        1.01296461118274        1.00688078222392     
   1.00168058719517       0.997519039588559       0.994350633036296     
  0.992034059130899       0.990389912166708       0.989255424611243     
   1.06083056469453        1.06022701867373        1.05867581707868     
   1.05634119230133        1.05313803201356        1.04893596302928     
   1.04370091663881        1.03759022700088        1.03097156507927     
   1.02436347645647        1.01827964749766        1.01307945246891     
   1.00891790486230        1.00574949831003        1.00343292440464     
   1.00178877744044        1.00065428988499        1.06889069767967     
   1.06828715165889        1.06673595006384        1.06440132528648     
   1.06119816499871        1.05699609601443        1.05176104962395     
   1.04565035998603        1.03903169806442        1.03242360944162     
   1.02633978048281        1.02113958545406        1.01697803784745     
   1.01380963129518        1.01149305738978        1.00984891042559     
   1.00871442287013     
 -6.127486936345804E-002 -6.292834912121659E-002 -6.717803406525721E-002
 -7.357399175252925E-002 -8.234939663335171E-002 -9.386142018551971E-002
 -0.108203397332825      -0.124944294089875      -0.143076835990202     
 -0.161180411192103      -0.177847720206613      -0.192094218270033     
 -0.203495229114948      -0.212175422369506      -0.218521927736049     
 -0.223026246595599      -0.226134298249905      -6.421694420134691E-002
 -6.587042395910749E-002 -7.012010890314577E-002 -7.651606659041962E-002
 -8.529147147124247E-002 -9.680349502340914E-002 -0.111145472170713     
 -0.127886368927766      -0.146018910828091      -0.164122486029993     
 -0.180789795044504      -0.195036293107921      -0.206437303952839     
 -0.215117497207396      -0.221464002573938      -0.225968321433491     
 -0.229076373087796      -6.837770864086354E-002 -7.003118839862277E-002
 -7.428087334266015E-002 -8.067683102993403E-002 -8.945223591075618E-002
 -0.100964259462924      -0.115306236610228      -0.132047133367280     
 -0.150179675267607      -0.168283250469508      -0.184950559484019     
 -0.199197057547437      -0.210598068392353      -0.219278261646910     
 -0.225624767013454      -0.230129085873002      -0.233237137527312     
 -7.418628598300910E-002 -7.583976574076826E-002 -8.008945068480680E-002
 -8.648540837208046E-002 -9.526081325290363E-002 -0.106772836805070     
 -0.121114813952375      -0.137855710709426      -0.155988252609754     
 -0.174091827811654      -0.190759136826164      -0.205005634889583     
 -0.216406645734499      -0.225086838989058      -0.231433344355599     
 -0.235937663215151      -0.239045714869458      -8.215049213572874E-002
 -8.380397189348841E-002 -8.805365683752661E-002 -9.444961452479939E-002
 -0.103225019405623      -0.114737042957790      -0.129079020105094     
 -0.145819916862146      -0.163952458762472      -0.182056033964373     
 -0.198723342978885      -0.212969841042303      -0.224370851887220     
 -0.233051045141776      -0.239397550508319      -0.243901869367870     
 -0.247009921022176      -9.280471676311849E-002 -9.445819652087745E-002
 -9.870788146491584E-002 -0.105103839152189      -0.113879244033012     
 -0.125391267585180      -0.139733244732484      -0.156474141489534     
 -0.174606683389861      -0.192710258591763      -0.209377567606273     
 -0.223624065669691      -0.235025076514609      -0.243705269769165     
 -0.250051775135707      -0.254556093995259      -0.257664145649567     
 -0.106597559157791      -0.108251038915551      -0.112500723859588     
 -0.118896681546862      -0.127672086427686      -0.139184109979850     
 -0.153526087127157      -0.170266983884207      -0.188399525784535     
 -0.206503100986435      -0.223170410000946      -0.237416908064361     
 -0.248817918909282      -0.257498112163838      -0.263844617530382     
 -0.268348936389933      -0.271456988044240      -0.123714658436937     
 -0.125368138194697      -0.129617823138734      -0.136013780826010     
 -0.144789185706832      -0.156301209259000      -0.170643186406304     
 -0.187384083163355      -0.205516625063681      -0.223620200265581     
 -0.240287509280095      -0.254534007343511      -0.265935018188425     
 -0.274615211442985      -0.280961716809529      -0.285466035669077     
 -0.288574087323386      -0.143877007305290      -0.145530487063052     
 -0.149780172007091      -0.156176129694360      -0.164951534575185     
 -0.176463558127354      -0.190805535274657      -0.207546432031710     
 -0.225678973932036      -0.243782549133935      -0.260449858148445     
 -0.274696356211862      -0.286097367056782      -0.294777560311339     
 -0.301124065677880      -0.305628384537433      -0.308736436191740     
 -0.166216552587600      -0.167870032345359      -0.172119717289397     
 -0.178515674976670      -0.187291079857495      -0.198803103409661     
 -0.213145080556966      -0.229885977314018      -0.248018519214345     
 -0.266122094416245      -0.282789403430756      -0.297035901494175     
 -0.308436912339090      -0.317117105593649      -0.323463610960190     
 -0.327967929819740      -0.331075981474050      -0.189350738900735     
 -0.191004218658497      -0.195253903602536      -0.201649861289806     
 -0.210425266170630      -0.221937289722800      -0.236279266870104     
 -0.253020163627155      -0.271152705527478      -0.289256280729381     
 -0.305923589743892      -0.320170087807309      -0.331571098652226     
 -0.340251291906783      -0.346597797273328      -0.351102116132879     
 -0.354210167787184      -0.211690284183045      -0.213343763940807     
 -0.217593448884845      -0.223989406572115      -0.232764811452940     
 -0.244276835005107      -0.258618812152411      -0.275359708909461     
 -0.293492250809790      -0.311595826011692      -0.328263135026200     
 -0.342509633089614      -0.353910643934537      -0.362590837189095     
 -0.368937342555636      -0.373441661415187      -0.376549713069494     
 -0.231852633051401      -0.233506112809156      -0.237755797753197     
 -0.244151755440470      -0.252927160321295      -0.264439183873461     
 -0.278781161020764      -0.295522057777818      -0.313654599678144     
 -0.331758174880039      -0.348425483894554      -0.362671981957973     
 -0.374072992802884      -0.382753186057446      -0.389099691423987     
 -0.393604010283541      -0.396712061937845      -0.248969732330546     
 -0.250623212088308      -0.254872897032345      -0.261268854719617     
 -0.270044259600439      -0.281556283152607      -0.295898260299914     
 -0.312639157056959      -0.330771698957289      -0.348875274159190     
 -0.365542583173700      -0.379789081237120      -0.391190092082037     
 -0.399870285336594      -0.406216790703135      -0.410721109562687     
 -0.413829161216995      -0.262762574725218      -0.264416054482978     
 -0.268665739427016      -0.275061697114287      -0.283837101995112     
 -0.295349125547281      -0.309691102694581      -0.326431999451637     
 -0.344564541351965      -0.362668116553863      -0.379335425568374     
 -0.393581923631791      -0.404982934476709      -0.413663127731267     
 -0.420009633097807      -0.424513951957358      -0.427622003611667     
 -0.273416799352606      -0.275070279110370      -0.279319964054406     
 -0.285715921741680      -0.294491326622502      -0.306003350174669     
 -0.320345327321973      -0.337086224079026      -0.355218765979347     
 -0.373322341181254      -0.389989650195764      -0.404236148259180     
 -0.415637159104099      -0.424317352358656      -0.430663857725198     
 -0.435168176584750      -0.438276228239058      -0.281381005505329     
 -0.283034485263089      -0.287284170207126      -0.293680127894398     
 -0.302455532775220      -0.313967556327390      -0.328309533474694     
 -0.345050430231745      -0.363182972132072      -0.381286547333975     
 -0.397953856348478      -0.412200354411902      -0.423601365256818     
 -0.432281558511376      -0.438628063877914      -0.443132382737470     
 -0.446240434391775      -0.287189582847475      -0.288843062605233     
 -0.293092747549273      -0.299488705236546      -0.308264110117362     
 -0.319776133669538      -0.334118110816840      -0.350859007573892     
 -0.368991549474219      -0.387095124676118      -0.403762433690629     
 -0.418008931754048      -0.429409942598964      -0.438090135853524     
 -0.444436641220064      -0.448940960079617      -0.452049011733920     
 -0.291350347286989      -0.293003827044747      -0.297253511988786     
 -0.303649469676060      -0.312424874556879      -0.323936898109052     
 -0.338278875256354      -0.355019772013403      -0.373152313913734     
 -0.391255889115634      -0.407923198130143      -0.422169696193561     
 -0.433570707038476      -0.442250900293032      -0.448597405659580     
 -0.453101724519132      -0.456209776173438      -0.294292422124878     
 -0.295945901882639      -0.300195586826676      -0.306591544513948     
 -0.315366949394774      -0.326878972946939      -0.341220950094246     
 -0.357961846851296      -0.376094388751621      -0.394197963953523     
 -0.410865272968031      -0.425111771031446      -0.436512781876368     
 -0.445192975130925      -0.451539480497466      -0.456043799357020     
 -0.459151851011328     
  0.000000000000000E+000 -2.059343134687265E-004 -5.967154644315922E-004
 -1.288783171780619E-003 -2.918895425121374E-003 -5.573396522451829E-003
 -9.167771110016921E-003 -1.357217217812317E-002 -1.838427778900438E-002
 -2.320014315178548E-002 -2.763890288787426E-002 -3.143970394449276E-002
 -3.447539076661003E-002 -3.679168976136481E-002 -3.848528426515805E-002
 -3.968682183911389E-002 -4.051708164825068E-002  0.000000000000000E+000
 -2.059343134687265E-004 -5.967154644315922E-004 -1.288783171780619E-003
 -2.918895425121374E-003 -5.573396522451829E-003 -9.167771110016921E-003
 -1.357217217812317E-002 -1.838427778900438E-002 -2.320014315178548E-002
 -2.763890288787426E-002 -3.143970394449276E-002 -3.447539076661003E-002
 -3.679168976136481E-002 -3.848528426515805E-002 -3.968682183911389E-002
 -4.051708164825068E-002  0.000000000000000E+000 -2.059343134687265E-004
 -5.967154644315922E-004 -1.288783171780619E-003 -2.918895425121374E-003
 -5.573396522451829E-003 -9.167771110016921E-003 -1.357217217812317E-002
 -1.838427778900438E-002 -2.320014315178548E-002 -2.763890288787426E-002
 -3.143970394449276E-002 -3.447539076661003E-002 -3.679168976136481E-002
 -3.848528426515805E-002 -3.968682183911389E-002 -4.051708164825068E-002
  0.000000000000000E+000 -2.059343134687265E-004 -5.967154644315922E-004
 -1.288783171780619E-003 -2.918895425121374E-003 -5.573396522451829E-003
 -9.167771110016921E-003 -1.357217217812317E-002 -1.838427778900438E-002
 -2.320014315178548E-002 -2.763890288787426E-002 -3.143970394449276E-002
 -3.447539076661003E-002 -3.679168976136481E-002 -3.848528426515805E-002
 -3.968682183911389E-002 -4.051708164825068E-002  0.000000000000000E+000
 -2.059343134687265E-004 -5.967154644315922E-004 -1.288783171780619E-003
 -2.918895425121374E-003 -5.573396522451829E-003 -9.167771110016921E-003
 -1.357217217812317E-002 -1.838427778900438E-002 -2.320014315178548E-002
 -2.763890288787426E-002 -3.143970394449276E-002 -3.447539076661003E-002
 -3.679168976136481E-002 -3.848528426515805E-002 -3.968682183911389E-002
 -4.051708164825068E-002  0.000000000000000E+000 -2.059343134687265E-004
 -5.967154644315922E-004 -1.288783171780619E-003 -2.918895425121374E-003
 -5.573396522451829E-003 -9.167771110016921E-003 -1.357217217812317E-002
 -1.838427778900438E-002 -2.320014315178548E-002 -2.763890288787426E-002
 -3.143970394449276E-002 -3.447539076661003E-002 -3.679168976136481E-002
 -3.848528426515805E-002 -3.968682183911389E-002 -4.051708164825068E-002
  0.000000000000000E+000 -2.059343134687265E-004 -5.967154644315922E-004
 -1.288783171780619E-003 -2.918895425121374E-003 -5.573396522451829E-003
 -9.167771110016921E-003 -1.357217217812317E-002 -1.838427778900438E-002
 -2.320014315178548E-002 -2.763890288787426E-002 -3.143970394449276E-002
 -3.447539076661003E-002 -3.679168976136481E-002 -3.848528426515805E-002
 -3.968682183911389E-002 -4.051708164825068E-002  0.000000000000000E+000
 -2.059343134687265E-004 -5.967154644315922E-004 -1.288783171780619E-003
 -2.918895425121374E-003 -5.573396522451829E-003 -9.167771110016921E-003
 -1.357217217812317E-002 -1.838427778900438E-002 -2.320014315178548E-002
 -2.763890288787426E-002 -3.143970394449276E-002 -3.447539076661003E-002
 -3.679168976136481E-002 -3.848528426515805E-002 -3.968682183911389E-002
 -4.051708164825068E-002  0.000000000000000E+000 -2.059343134687265E-004
 -5.967154644315922E-004 -1.288783171780619E-003 -2.918895425121374E-003
 -5.573396522451829E-003 -9.167771110016921E-003 -1.357217217812317E-002
 -1.838427778900438E-002 -2.320014315178548E-002 -2.763890288787426E-002
 -3.143970394449276E-002 -3.447539076661003E-002 -3.679168976136481E-002
 -3.848528426515805E-002 -3.968682183911389E-002 -4.051708164825068E-002
  0.000000000000000E+000 -2.059343134687265E-004 -5.967154644315922E-004
 -1.288783171780619E-003 -2.918895425121374E-003 -5.573396522451829E-003
 -9.167771110016921E-003 -1.357217217812317E-002 -1.838427778900438E-002
 -2.320014315178548E-002 -2.763890288787426E-002 -3.143970394449276E-002
 -3.447539076661003E-002 -3.679168976136481E-002 -3.848528426515805E-002
 -3.968682183911389E-002 -4.051708164825068E-002  0.000000000000000E+000
 -2.059343134687265E-004 -5.967154644315922E-004 -1.288783171780619E-003
 -2.918895425121374E-003 -5.573396522451829E-003 -9.167771110016921E-003
 -1.357217217812317E-002 -1.838427778900438E-002 -2.320014315178548E-002
 -2.763890288787426E-002 -3.143970394449276E-002 -3.447539076661003E-002
 -3.679168976136481E-002 -3.848528426515805E-002 -3.968682183911389E-002
 -4.051708164825068E-002  0.000000000000000E+000 -2.059343134687265E-004
 -5.967154644315922E-004 -1.288783171780619E-003 -2.918895425121374E-003
 -5.573396522451829E-003 -9.167771110016921E-003 -1.357217217812317E-002
 -1.838427778900438E-002 -2.320014315178548E-002 -2.763890288787426E-002
 -3.143970394449276E-002 -3.447539076661003E-002 -3.679168976136481E-002
 -3.848528426515805E-002 -3.968682183911389E-002 -4.051708164825068E-002
  0.000000000000000E+000 -2.059343134687265E-004 -5.967154644315922E-004
 -1.288783171780619E-003 -2.918895425121374E-003 -5.573396522451829E-003
 -9.167771110016921E-003 -1.357217217812317E-002 -1.838427778900438E-002
 -2.320014315178548E-002 -2.763890288787426E-002 -3.143970394449276E-002
 -3.447539076661003E-002 -3.679168976136481E-002 -3.848528426515805E-002
 -3.968682183911389E-002 -4.051708164825068E-002  0.000000000000000E+000
 -2.059343134687265E-004 -5.967154644315922E-004 -1.288783171780619E-003
 -2.918895425121374E-003 -5.573396522451829E-003 -9.167771110016921E-003
 -1.357217217812317E-002 -1.838427778900438E-002 -2.320014315178548E-002
 -2.763890288787426E-002 -3.143970394449276E-002 -3.447539076661003E-002
 -3.679168976136481E-002 -3.848528426515805E-002 -3.968682183911389E-002
 -4.051708164825068E-002  0.000000000000000E+000 -2.059343134687265E-004
 -5.967154644315922E-004 -1.288783171780619E-003 -2.918895425121374E-003
 -5.573396522451829E-003 -9.167771110016921E-003 -1.357217217812317E-002
 -1.838427778900438E-002 -2.320014315178548E-002 -2.763890288787426E-002
 -3.143970394449276E-002 -3.447539076661003E-002 -3.679168976136481E-002
 -3.848528426515805E-002 -3.968682183911389E-002 -4.051708164825068E-002
  0.000000000000000E+000 -2.059343134687265E-004 -5.967154644315922E-004
 -1.288783171780619E-003 -2.918895425121374E-003 -5.573396522451829E-003
 -9.167771110016921E-003 -1.357217217812317E-002 -1.838427778900438E-002
 -2.320014315178548E-002 -2.763890288787426E-002 -3.143970394449276E-002
 -3.447539076661003E-002 -3.679168976136481E-002 -3.848528426515805E-002
 -3.968682183911389E-002 -4.051708164825068E-002  0.000000000000000E+000
 -2.059343134687265E-004 -5.967154644315922E-004 -1.288783171780619E-003
 -2.918895425121374E-003 -5.573396522451829E-003 -9.167771110016921E-003
 -1.357217217812317E-002 -1.838427778900438E-002 -2.320014315178548E-002
 -2.763890288787426E-002 -3.143970394449276E-002 -3.447539076661003E-002
 -3.679168976136481E-002 -3.848528426515805E-002 -3.968682183911389E-002
 -4.051708164825068E-002  0.000000000000000E+000 -2.059343134687265E-004
 -5.967154644315922E-004 -1.288783171780619E-003 -2.918895425121374E-003
 -5.573396522451829E-003 -9.167771110016921E-003 -1.357217217812317E-002
 -1.838427778900438E-002 -2.320014315178548E-002 -2.763890288787426E-002
 -3.143970394449276E-002 -3.447539076661003E-002 -3.679168976136481E-002
 -3.848528426515805E-002 -3.968682183911389E-002 -4.051708164825068E-002
  0.000000000000000E+000 -2.059343134687265E-004 -5.967154644315922E-004
 -1.288783171780619E-003 -2.918895425121374E-003 -5.573396522451829E-003
 -9.167771110016921E-003 -1.357217217812317E-002 -1.838427778900438E-002
 -2.320014315178548E-002 -2.763890288787426E-002 -3.143970394449276E-002
 -3.447539076661003E-002 -3.679168976136481E-002 -3.848528426515805E-002
 -3.968682183911389E-002 -4.051708164825068E-002  0.000000000000000E+000
 -2.059343134687265E-004 -5.967154644315922E-004 -1.288783171780619E-003
 -2.918895425121374E-003 -5.573396522451829E-003 -9.167771110016921E-003
 -1.357217217812317E-002 -1.838427778900438E-002 -2.320014315178548E-002
 -2.763890288787426E-002 -3.143970394449276E-002 -3.447539076661003E-002
 -3.679168976136481E-002 -3.848528426515805E-002 -3.968682183911389E-002
 -4.051708164825068E-002
 -0.159752286238972      -0.311792087283531      -0.385792693665279     
 -0.366996662209193      -0.331937960621968      -0.306332577762522     
 -0.288684138232951      -0.287390902016589      -0.294544503176664     
 -0.306811255836938      -0.321521042906859      -0.337216223202115     
 -0.350287276527020      -0.360987476880323      -0.368966593815324     
 -0.374063412317818      -0.195505872808096      -0.392505288090177     
 -0.505270514656459      -0.502829253732344      -0.464848085166978     
 -0.429819924372730      -0.403425644057238      -0.399460363747518     
 -0.408944838981685      -0.427204258491150      -0.450294190199242     
 -0.475659763889300      -0.498385370983894      -0.517927274125368     
 -0.532537985063129      -0.540829212817190      -0.206546083753701     
 -0.417878291934148      -0.544799579390966      -0.551169936863814     
 -0.514014623086858      -0.473097210667387      -0.438785262009342     
 -0.429873747362397      -0.438607512366218      -0.459897729646832     
 -0.488684006809274      -0.520873077554130      -0.549633242476986     
 -0.572991427128954      -0.589010727422919      -0.597306893596051     
 -0.199546466530729      -0.404735081485015      -0.525853753501007     
 -0.523807125214618      -0.476579520660888      -0.423733818594512     
 -0.376685457498139      -0.357499692211577      -0.359941133378552     
 -0.378866641075975      -0.407846836570520      -0.440870353404648     
 -0.469588175104178      -0.491987164150601      -0.506779298239115     
 -0.514140492528843      -0.172390553200792      -0.349370998505128     
 -0.442933278855476      -0.409975767558009      -0.331717162488880     
 -0.249500348323749      -0.175498008553945      -0.133844242293467     
 -0.118871457921289      -0.125061693215869      -0.144631151967988     
 -0.170347920052127      -0.193283926681012      -0.211521544823695     
 -0.223592234021659      -0.229475627967536      -0.119316242263157     
 -0.240037231253044      -0.278625421360018      -0.185656992027275     
 -4.672883466763698E-002  9.318207467539279E-002  0.219749239609208     
  0.306093014722480       0.357651692676078       0.380377410017114     
  0.382960376257246       0.373352688828821       0.361499179007814     
  0.350323243984179       0.342438205441025       0.338598094490166     
 -3.307466179120958E-002 -6.178137515636061E-002 -1.075592278555406E-002
  0.178822390694185       0.416319593039245       0.651596714450182     
  0.866409332590045        1.02914618161089        1.14397305032490     
   1.21658903504445        1.25640035080065        1.27270630437411     
   1.27791650998601        1.27723695221061        1.27528214985656     
   1.27416287178523       9.160375457739621E-002  0.196252297381033     
  0.376612529206523       0.704321968082252        1.08329796241441     
   1.45679682601518        1.80077426828585        2.07642955850783     
   2.28497022132653        2.43093943357079        2.52468597362821     
   2.57798986533283        2.60724199528892        2.62108608858844     
   2.62708817098539        2.62949348487270       0.252483311254877     
  0.529339883188606       0.876077366055717        1.38020232786345     
   1.93994996911080        2.49072412081975        3.00102490700384     
   3.42275800393041        3.75275508706139        3.99373682102385     
   4.15726956962901        4.25846366455298        4.31876637753896     
   4.35120706909804        4.36724492740608        4.37402317872552     
  0.434482572315902       0.906125829796873        1.44056565480680     
   2.14286012016203        2.90542779865246        3.65514637661570     
   4.35227195954716        4.93851968193150        5.40583631313184     
   5.75485489198849        5.99834723651255        6.15488325595645     
   6.25127396129127        6.30536127517640        6.33305685302297     
   6.34489315473151       0.609904792694499        1.26909658413880     
   1.98409837578209        2.87691019353892        3.83393321504908     
   4.77374610693442        5.64903933884783        6.39237996580316     
   6.99175811711971        7.44603883669159        7.76876826419159     
   7.98114273609167        8.11455078355701        8.19114706984876     
   8.23108629394264        8.24826475637521       0.747900540002882     
   1.55414374230942        2.41078513865280        3.45360456768006     
   4.56253248749717        5.64893605752188        6.66019477936567     
   7.52299715829454        8.22416107163509        8.76203884124454     
   9.15020180675982        9.41055052727485        9.57696534128274     
   9.67430260340468        9.72582934831546        9.74815807092334     
  0.827911030657192        1.71840074663946        2.65612801868358     
   3.78560103046573        4.97946867105133        6.14332491271967     
   7.22244556264505        8.14267455178442        8.89438230147493     
   9.47813198472949        9.90699074538747        10.2007111503825     