 Title = "Wing and Wake"
 VARIABLES = "X" "Y" "Z" "GAM" "skew"
 Zone I=   17 J=   20 K=1  T="Blade 01"
 DATAPACKING=BLOCK
 VARLOCATION=([4]=CELLCENTERED,[5]=CELLCENTERED)
  0.430513849156730       0.429910303135934       0.428359101540891     
  0.426024476763532       0.422821316475763       0.418619247491488     
  0.413384201101010       0.407273511463085       0.400654849541473     
  0.394046760918680       0.387962931959866       0.382762736931117     
  0.378601189324502       0.375432782772238       0.373116208866840     
  0.371472061902648       0.370337574347186       0.438573982141876     
  0.437970436121081       0.436419234526038       0.434084609748680     
  0.430881449460911       0.426679380476636       0.421444334086157     
  0.415333644448233       0.408714982526620       0.402106893903827     
  0.396023064945014       0.390822869916265       0.386661322309650     
  0.383492915757386       0.381176341851987       0.379532194887795     
  0.378397707332336       0.449972847415617       0.449369301394821     
  0.447818099799779       0.445483475022419       0.442280314734650     
  0.438078245750374       0.432843199359896       0.426732509721973     
  0.420113847800360       0.413505759177566       0.407421930218753     
  0.402221735190004       0.398060187583388       0.394891781031125     
  0.392575207125726       0.390931060161534       0.389796572606075     
  0.465886074784705       0.465282528763909       0.463731327168867     
  0.461396702391507       0.458193542103740       0.453991473119464     
  0.448756426728986       0.442645737091062       0.436027075169448     
  0.429418986546654       0.423335157587841       0.418134962559092     
  0.413973414952477       0.410805008400215       0.408488434494815     
  0.406844287530622       0.405709799975164       0.487704880984106     
  0.487101334963310       0.485550133368268       0.483215508590909     
  0.480012348303138       0.475810279318863       0.470575232928386     
  0.464464543290462       0.457845881368850       0.451237792746055     
  0.445153963787243       0.439953768758493       0.435792221151878     
  0.432623814599614       0.430307240694217       0.428663093730023     
  0.427528606174564       0.516893284434776       0.516289738413981     
  0.514738536818939       0.512403912041579       0.509200751753811     
  0.504998682769535       0.499763636379055       0.493652946741133     
  0.487034284819519       0.480426196196726       0.474342367237913     
  0.469142172209163       0.464980624602549       0.461812218050283     
  0.459495644144885       0.457851497180694       0.456717009625235     
  0.554680271533985       0.554076725513189       0.552525523918147     
  0.550190899140786       0.546987738853018       0.542785669868742     
  0.537550623478264       0.531439933840341       0.524821271918728     
  0.518213183295935       0.512129354337122       0.506929159308369     
  0.502767611701757       0.499599205149493       0.497282631244095     
  0.495638484279903       0.494503996724444       0.601574420769447     
  0.600970874748650       0.599419673153608       0.597085048376252     
  0.593881888088483       0.589679819104208       0.584444772713725     
  0.578334083075804       0.571715421154189       0.565107332531395     
  0.559023503572585       0.553823308543836       0.549661760937217     
  0.546493354384957       0.544176780479558       0.542532633515364     
  0.541398145959908       0.656811361407038       0.656207815386244     
  0.654656613791202       0.652321989013842       0.649118828726071     
  0.644916759741797       0.639681713351320       0.633571023713396     
  0.626952361791784       0.620344273168990       0.614260444210173     
  0.609060249181425       0.604898701574812       0.601730295022549     
  0.599413721117150       0.597769574152957       0.596635086597496     
  0.718012967662674       0.717409421641877       0.715858220046834     
  0.713523595269477       0.710320434981708       0.706118365997431     
  0.700883319606955       0.694772629969030       0.688153968047417     
  0.681545879424623       0.675462050465811       0.670261855437061     
  0.666100307830445       0.662931901278182       0.660615327372784     
  0.658971180408590       0.657836692853132       0.781391579173726     
  0.780788033152935       0.779236831557890       0.776902206780533     
  0.773699046492763       0.769496977508487       0.764261931118009     
  0.758151241480085       0.751532579558470       0.744924490935676     
  0.738840661976863       0.733640466948116       0.729478919341499     
  0.726310512789240       0.723993938883838       0.722349791919645     
  0.721215304364186       0.842593185429365       0.841989639408568     
  0.840438437813525       0.838103813036167       0.834900652748398     
  0.830698583764123       0.825463537373642       0.819352847735720     
  0.812734185814105       0.806126097191314       0.800042268232500     
  0.794842073203746       0.790680525597134       0.787512119044872     
  0.785195545139474       0.783551398175281       0.782416910619820     
  0.897830126066956       0.897226580046160       0.895675378451116     
  0.893340753673758       0.890137593385989       0.885935524401712     
  0.880700478011232       0.874589788373311       0.867971126451699     
  0.861363037828901       0.855279208870092       0.850079013841340     
  0.845917466234723       0.842749059682463       0.840432485777066     
  0.838788338812871       0.837653851257412       0.944724275302414     
  0.944120729281623       0.942569527686581       0.940234902909218     
  0.937031742621450       0.932829673637175       0.927594627246698     
  0.921483937608774       0.914865275687160       0.908257187064368     
  0.902173358105554       0.896973163076805       0.892811615470190     
  0.889643208917926       0.887326635012527       0.885682488048335     
  0.884548000492878       0.982511262401623       0.981907716380830     
  0.980356514785785       0.978021890008426       0.974818729720662     
  0.970616660736385       0.965381614345904       0.959270924707983     
  0.952652262786369       0.946044174163575       0.939960345204761     
  0.934760150176014       0.930598602569398       0.927430196017135     
  0.925113622111734       0.923469475147543       0.922334987592084     
   1.01169966585229        1.01109611983150        1.00954491823646     
   1.00721029345910        1.00400713317133       0.999805064187056     
  0.994570017796572       0.988459328158655       0.981840666237034     
  0.975232577614249       0.969148748655432       0.963948553626684     
  0.959787006020068       0.956618599467804       0.954302025562409     
  0.952657878598216       0.951523391042756        1.03351847205170     
   1.03291492603090        1.03136372443586        1.02902909965850     
   1.02582593937073        1.02162387038646        1.01638882399597     
   1.01027813435805        1.00365947243644       0.997051383813647     
  0.990967554854829       0.985767359826083       0.981605812219467     
  0.978437405667205       0.976120831761803       0.974476684797617     
  0.973342197242153        1.04943169942079        1.04882815339999     
   1.04727695180494        1.04494232702759        1.04173916673982     
   1.03753709775555        1.03230205136507        1.02619136172714     
   1.01957269980553        1.01296461118274        1.00688078222392     
   1.00168058719517       0.997519039588557       0.994350633036295     
  0.992034059130897       0.990389912166706       0.989255424611244     
   1.06083056469452        1.06022701867373        1.05867581707868     
   1.05634119230133        1.05313803201356        1.04893596302928     
   1.04370091663881        1.03759022700088        1.03097156507927     
   1.02436347645647        1.01827964749766        1.01307945246891     
   1.00891790486230        1.00574949831003        1.00343292440464     
   1.00178877744044        1.00065428988499        1.06889069767967     
   1.06828715165888        1.06673595006383        1.06440132528648     
   1.06119816499871        1.05699609601443        1.05176104962395     
   1.04565035998603        1.03903169806441        1.03242360944162     
   1.02633978048281        1.02113958545406        1.01697803784744     
   1.01380963129518        1.01149305738978        1.00984891042559     
   1.00871442287013     
 -6.127486936345818E-002 -6.292834912121628E-002 -6.717803406525590E-002
 -7.357399175252866E-002 -8.234939663335109E-002 -9.386142018551914E-002
 -0.108203397332824      -0.124944294089874      -0.143076835990202     
 -0.161180411192103      -0.177847720206612      -0.192094218270031     
 -0.203495229114947      -0.212175422369506      -0.218521927736048     
 -0.223026246595599      -0.226134298249905      -6.421694420134635E-002
 -6.587042395910671E-002 -7.012010890314563E-002 -7.651606659041869E-002
 -8.529147147124148E-002 -9.680349502340810E-002 -0.111145472170713     
 -0.127886368927765      -0.146018910828091      -0.164122486029992     
 -0.180789795044503      -0.195036293107921      -0.206437303952838     
 -0.215117497207396      -0.221464002573938      -0.225968321433489     
 -0.229076373087795      -6.837770864086304E-002 -7.003118839862178E-002
 -7.428087334265968E-002 -8.067683102993316E-002 -8.945223591075481E-002
 -0.100964259462924      -0.115306236610228      -0.132047133367280     
 -0.150179675267606      -0.168283250469507      -0.184950559484018     
 -0.199197057547436      -0.210598068392352      -0.219278261646910     
 -0.225624767013453      -0.230129085873002      -0.233237137527311     
 -7.418628598300871E-002 -7.583976574076770E-002 -8.008945068480620E-002
 -8.648540837207923E-002 -9.526081325290259E-002 -0.106772836805070     
 -0.121114813952374      -0.137855710709425      -0.155988252609751     
 -0.174091827811653      -0.190759136826163      -0.205005634889582     
 -0.216406645734498      -0.225086838989057      -0.231433344355598     
 -0.235937663215150      -0.239045714869457      -8.215049213572821E-002
 -8.380397189348694E-002 -8.805365683752581E-002 -9.444961452479816E-002
 -0.103225019405622      -0.114737042957789      -0.129079020105093     
 -0.145819916862145      -0.163952458762472      -0.182056033964373     
 -0.198723342978883      -0.212969841042302      -0.224370851887218     
 -0.233051045141775      -0.239397550508318      -0.243901869367869     
 -0.247009921022176      -9.280471676311744E-002 -9.445819652087668E-002
 -9.870788146491520E-002 -0.105103839152188      -0.113879244033010     
 -0.125391267585179      -0.139733244732483      -0.156474141489534     
 -0.174606683389860      -0.192710258591761      -0.209377567606272     
 -0.223624065669691      -0.235025076514608      -0.243705269769164     
 -0.250051775135707      -0.254556093995258      -0.257664145649566     
 -0.106597559157791      -0.108251038915550      -0.112500723859587     
 -0.118896681546861      -0.127672086427685      -0.139184109979850     
 -0.153526087127156      -0.170266983884206      -0.188399525784533     
 -0.206503100986435      -0.223170410000945      -0.237416908064361     
 -0.248817918909281      -0.257498112163837      -0.263844617530381     
 -0.268348936389932      -0.271456988044239      -0.123714658436936     
 -0.125368138194696      -0.129617823138734      -0.136013780826008     
 -0.144789185706831      -0.156301209259000      -0.170643186406300     
 -0.187384083163354      -0.205516625063681      -0.223620200265579     
 -0.240287509280093      -0.254534007343511      -0.265935018188425     
 -0.274615211442985      -0.280961716809528      -0.285466035669077     
 -0.288574087323386      -0.143877007305290      -0.145530487063050     
 -0.149780172007090      -0.156176129694359      -0.164951534575184     
 -0.176463558127352      -0.190805535274656      -0.207546432031708     
 -0.225678973932035      -0.243782549133935      -0.260449858148444     
 -0.274696356211861      -0.286097367056779      -0.294777560311338     
 -0.301124065677881      -0.305628384537430      -0.308736436191738     
 -0.166216552587599      -0.167870032345358      -0.172119717289397     
 -0.178515674976670      -0.187291079857493      -0.198803103409660     
 -0.213145080556965      -0.229885977314016      -0.248018519214343     
 -0.266122094416243      -0.282789403430755      -0.297035901494173     
 -0.308436912339088      -0.317117105593648      -0.323463610960188     
 -0.327967929819740      -0.331075981474048      -0.189350738900734     
 -0.191004218658495      -0.195253903602534      -0.201649861289806     
 -0.210425266170629      -0.221937289722798      -0.236279266870102     
 -0.253020163627153      -0.271152705527477      -0.289256280729380     
 -0.305923589743891      -0.320170087807309      -0.331571098652224     
 -0.340251291906784      -0.346597797273325      -0.351102116132877     
 -0.354210167787184      -0.211690284183045      -0.213343763940804     
 -0.217593448884843      -0.223989406572113      -0.232764811452939     
 -0.244276835005106      -0.258618812152409      -0.275359708909460     
 -0.293492250809788      -0.311595826011691      -0.328263135026199     
 -0.342509633089617      -0.353910643934535      -0.362590837189093     
 -0.368937342555634      -0.373441661415185      -0.376549713069494     
 -0.231852633051399      -0.233506112809156      -0.237755797753195     
 -0.244151755440469      -0.252927160321294      -0.264439183873460     
 -0.278781161020763      -0.295522057777816      -0.313654599678142     
 -0.331758174880038      -0.348425483894553      -0.362671981957970     
 -0.374072992802885      -0.382753186057445      -0.389099691423988     
 -0.393604010283537      -0.396712061937845      -0.248969732330545     
 -0.250623212088305      -0.254872897032342      -0.261268854719615     
 -0.270044259600438      -0.281556283152606      -0.295898260299912     
 -0.312639157056959      -0.330771698957289      -0.348875274159187     
 -0.365542583173700      -0.379789081237118      -0.391190092082034     
 -0.399870285336592      -0.406216790703135      -0.410721109562684     
 -0.413829161216994      -0.262762574725216      -0.264416054482976     
 -0.268665739427014      -0.275061697114287      -0.283837101995112     
 -0.295349125547280      -0.309691102694582      -0.326431999451635     
 -0.344564541351964      -0.362668116553862      -0.379335425568372     
 -0.393581923631790      -0.404982934476708      -0.413663127731267     
 -0.420009633097807      -0.424513951957358      -0.427622003611665     
 -0.273416799352605      -0.275070279110367      -0.279319964054405     
 -0.285715921741677      -0.294491326622501      -0.306003350174666     
 -0.320345327321971      -0.337086224079025      -0.355218765979346     
 -0.373322341181252      -0.389989650195762      -0.404236148259179     
 -0.415637159104097      -0.424317352358654      -0.430663857725197     
 -0.435168176584748      -0.438276228239058      -0.281381005505328     
 -0.283034485263087      -0.287284170207125      -0.293680127894396     
 -0.302455532775219      -0.313967556327390      -0.328309533474692     
 -0.345050430231743      -0.363182972132070      -0.381286547333971     
 -0.397953856348477      -0.412200354411899      -0.423601365256816     
 -0.432281558511374      -0.438628063877913      -0.443132382737469     
 -0.446240434391774      -0.287189582847474      -0.288843062605232     
 -0.293092747549270      -0.299488705236545      -0.308264110117363     
 -0.319776133669536      -0.334118110816838      -0.350859007573888     
 -0.368991549474217      -0.387095124676117      -0.403762433690628     
 -0.418008931754046      -0.429409942598962      -0.438090135853522     
 -0.444436641220062      -0.448940960079614      -0.452049011733919     
 -0.291350347286987      -0.293003827044746      -0.297253511988785     
 -0.303649469676059      -0.312424874556879      -0.323936898109049     
 -0.338278875256353      -0.355019772013403      -0.373152313913732     
 -0.391255889115632      -0.407923198130143      -0.422169696193559     
 -0.433570707038476      -0.442250900293033      -0.448597405659577     
 -0.453101724519129      -0.456209776173436      -0.294292422124877     
 -0.295945901882637      -0.300195586826675      -0.306591544513947     
 -0.315366949394772      -0.326878972946939      -0.341220950094243     
 -0.357961846851293      -0.376094388751619      -0.394197963953522     
 -0.410865272968032      -0.425111771031451      -0.436512781876364     
 -0.445192975130925      -0.451539480497466      -0.456043799357019     
 -0.459151851011326     
  0.000000000000000E+000 -2.059343134687265E-004 -5.967154644315922E-004
 -1.288783171780619E-003 -2.918895425121374E-003 -5.573396522451829E-003
 -9.167771110016921E-003 -1.357217217812317E-002 -1.838427778900438E-002
 -2.320014315178548E-002 -2.763890288787426E-002 -3.143970394449276E-002
 -3.447539076661003E-002 -3.679168976136481E-002 -3.848528426515805E-002
 -3.968682183911389E-002 -4.051708164825068E-002  0.000000000000000E+000
 -2.059343134687265E-004 -5.967154644315922E-004 -1.288783171780619E-003
 -2.918895425121374E-003 -5.573396522451829E-003 -9.167771110016921E-003
 -1.357217217812317E-002 -1.838427778900438E-002 -2.320014315178548E-002
 -2.763890288787426E-002 -3.143970394449276E-002 -3.447539076661003E-002
 -3.679168976136481E-002 -3.848528426515805E-002 -3.968682183911389E-002
 -4.051708164825068E-002  0.000000000000000E+000 -2.059343134687265E-004
 -5.967154644315922E-004 -1.288783171780619E-003 -2.918895425121374E-003
 -5.573396522451829E-003 -9.167771110016921E-003 -1.357217217812317E-002
 -1.838427778900438E-002 -2.320014315178548E-002 -2.763890288787426E-002
 -3.143970394449276E-002 -3.447539076661003E-002 -3.679168976136481E-002
 -3.848528426515805E-002 -3.968682183911389E-002 -4.051708164825068E-002
  0.000000000000000E+000 -2.059343134687265E-004 -5.967154644315922E-004
 -1.288783171780619E-003 -2.918895425121374E-003 -5.573396522451829E-003
 -9.167771110016921E-003 -1.357217217812317E-002 -1.838427778900438E-002
 -2.320014315178548E-002 -2.763890288787426E-002 -3.143970394449276E-002
 -3.447539076661003E-002 -3.679168976136481E-002 -3.848528426515805E-002
 -3.968682183911389E-002 -4.051708164825068E-002  0.000000000000000E+000
 -2.059343134687265E-004 -5.967154644315922E-004 -1.288783171780619E-003
 -2.918895425121374E-003 -5.573396522451829E-003 -9.167771110016921E-003
 -1.357217217812317E-002 -1.838427778900438E-002 -2.320014315178548E-002
 -2.763890288787426E-002 -3.143970394449276E-002 -3.447539076661003E-002
 -3.679168976136481E-002 -3.848528426515805E-002 -3.968682183911389E-002
 -4.051708164825068E-002  0.000000000000000E+000 -2.059343134687265E-004
 -5.967154644315922E-004 -1.288783171780619E-003 -2.918895425121374E-003
 -5.573396522451829E-003 -9.167771110016921E-003 -1.357217217812317E-002
 -1.838427778900438E-002 -2.320014315178548E-002 -2.763890288787426E-002
 -3.143970394449276E-002 -3.447539076661003E-002 -3.679168976136481E-002
 -3.848528426515805E-002 -3.968682183911389E-002 -4.051708164825068E-002
  0.000000000000000E+000 -2.059343134687265E-004 -5.967154644315922E-004
 -1.288783171780619E-003 -2.918895425121374E-003 -5.573396522451829E-003
 -9.167771110016921E-003 -1.357217217812317E-002 -1.838427778900438E-002
 -2.320014315178548E-002 -2.763890288787426E-002 -3.143970394449276E-002
 -3.447539076661003E-002 -3.679168976136481E-002 -3.848528426515805E-002
 -3.968682183911389E-002 -4.051708164825068E-002  0.000000000000000E+000
 -2.059343134687265E-004 -5.967154644315922E-004 -1.288783171780619E-003
 -2.918895425121374E-003 -5.573396522451829E-003 -9.167771110016921E-003
 -1.357217217812317E-002 -1.838427778900438E-002 -2.320014315178548E-002
 -2.763890288787426E-002 -3.143970394449276E-002 -3.447539076661003E-002
 -3.679168976136481E-002 -3.848528426515805E-002 -3.968682183911389E-002
 -4.051708164825068E-002  0.000000000000000E+000 -2.059343134687265E-004
 -5.967154644315922E-004 -1.288783171780619E-003 -2.918895425121374E-003
 -5.573396522451829E-003 -9.167771110016921E-003 -1.357217217812317E-002
 -1.838427778900438E-002 -2.320014315178548E-002 -2.763890288787426E-002
 -3.143970394449276E-002 -3.447539076661003E-002 -3.679168976136481E-002
 -3.848528426515805E-002 -3.968682183911389E-002 -4.051708164825068E-002
  0.000000000000000E+000 -2.059343134687265E-004 -5.967154644315922E-004
 -1.288783171780619E-003 -2.918895425121374E-003 -5.573396522451829E-003
 -9.167771110016921E-003 -1.357217217812317E-002 -1.838427778900438E-002
 -2.320014315178548E-002 -2.763890288787426E-002 -3.143970394449276E-002
 -3.447539076661003E-002 -3.679168976136481E-002 -3.848528426515805E-002
 -3.968682183911389E-002 -4.051708164825068E-002  0.000000000000000E+000
 -2.059343134687265E-004 -5.967154644315922E-004 -1.288783171780619E-003
 -2.918895425121374E-003 -5.573396522451829E-003 -9.167771110016921E-003
 -1.357217217812317E-002 -1.838427778900438E-002 -2.320014315178548E-002
 -2.763890288787426E-002 -3.143970394449276E-002 -3.447539076661003E-002
 -3.679168976136481E-002 -3.848528426515805E-002 -3.968682183911389E-002
 -4.051708164825068E-002  0.000000000000000E+000 -2.059343134687265E-004
 -5.967154644315922E-004 -1.288783171780619E-003 -2.918895425121374E-003
 -5.573396522451829E-003 -9.167771110016921E-003 -1.357217217812317E-002
 -1.838427778900438E-002 -2.320014315178548E-002 -2.763890288787426E-002
 -3.143970394449276E-002 -3.447539076661003E-002 -3.679168976136481E-002
 -3.848528426515805E-002 -3.968682183911389E-002 -4.051708164825068E-002
  0.000000000000000E+000 -2.059343134687265E-004 -5.967154644315922E-004
 -1.288783171780619E-003 -2.918895425121374E-003 -5.573396522451829E-003
 -9.167771110016921E-003 -1.357217217812317E-002 -1.838427778900438E-002
 -2.320014315178548E-002 -2.763890288787426E-002 -3.143970394449276E-002
 -3.447539076661003E-002 -3.679168976136481E-002 -3.848528426515805E-002
 -3.968682183911389E-002 -4.051708164825068E-002  0.000000000000000E+000
 -2.059343134687265E-004 -5.967154644315922E-004 -1.288783171780619E-003
 -2.918895425121374E-003 -5.573396522451829E-003 -9.167771110016921E-003
 -1.357217217812317E-002 -1.838427778900438E-002 -2.320014315178548E-002
 -2.763890288787426E-002 -3.143970394449276E-002 -3.447539076661003E-002
 -3.679168976136481E-002 -3.848528426515805E-002 -3.968682183911389E-002
 -4.051708164825068E-002  0.000000000000000E+000 -2.059343134687265E-004
 -5.967154644315922E-004 -1.288783171780619E-003 -2.918895425121374E-003
 -5.573396522451829E-003 -9.167771110016921E-003 -1.357217217812317E-002
 -1.838427778900438E-002 -2.320014315178548E-002 -2.763890288787426E-002
 -3.143970394449276E-002 -3.447539076661003E-002 -3.679168976136481E-002
 -3.848528426515805E-002 -3.968682183911389E-002 -4.051708164825068E-002
  0.000000000000000E+000 -2.059343134687265E-004 -5.967154644315922E-004
 -1.288783171780619E-003 -2.918895425121374E-003 -5.573396522451829E-003
 -9.167771110016921E-003 -1.357217217812317E-002 -1.838427778900438E-002
 -2.320014315178548E-002 -2.763890288787426E-002 -3.143970394449276E-002
 -3.447539076661003E-002 -3.679168976136481E-002 -3.848528426515805E-002
 -3.968682183911389E-002 -4.051708164825068E-002  0.000000000000000E+000
 -2.059343134687265E-004 -5.967154644315922E-004 -1.288783171780619E-003
 -2.918895425121374E-003 -5.573396522451829E-003 -9.167771110016921E-003
 -1.357217217812317E-002 -1.838427778900438E-002 -2.320014315178548E-002
 -2.763890288787426E-002 -3.143970394449276E-002 -3.447539076661003E-002
 -3.679168976136481E-002 -3.848528426515805E-002 -3.968682183911389E-002
 -4.051708164825068E-002  0.000000000000000E+000 -2.059343134687265E-004
 -5.967154644315922E-004 -1.288783171780619E-003 -2.918895425121374E-003
 -5.573396522451829E-003 -9.167771110016921E-003 -1.357217217812317E-002
 -1.838427778900438E-002 -2.320014315178548E-002 -2.763890288787426E-002
 -3.143970394449276E-002 -3.447539076661003E-002 -3.679168976136481E-002
 -3.848528426515805E-002 -3.968682183911389E-002 -4.051708164825068E-002
  0.000000000000000E+000 -2.059343134687265E-004 -5.967154644315922E-004
 -1.288783171780619E-003 -2.918895425121374E-003 -5.573396522451829E-003
 -9.167771110016921E-003 -1.357217217812317E-002 -1.838427778900438E-002
 -2.320014315178548E-002 -2.763890288787426E-002 -3.143970394449276E-002
 -3.447539076661003E-002 -3.679168976136481E-002 -3.848528426515805E-002
 -3.968682183911389E-002 -4.051708164825068E-002  0.000000000000000E+000
 -2.059343134687265E-004 -5.967154644315922E-004 -1.288783171780619E-003
 -2.918895425121374E-003 -5.573396522451829E-003 -9.167771110016921E-003
 -1.357217217812317E-002 -1.838427778900438E-002 -2.320014315178548E-002
 -2.763890288787426E-002 -3.143970394449276E-002 -3.447539076661003E-002
 -3.679168976136481E-002 -3.848528426515805E-002 -3.968682183911389E-002
 -4.051708164825068E-002
 -0.387671580637791      -0.759775090712461      -0.916227465591124     
 -0.799051471138418      -0.642836253701750      -0.525876037704929     
 -0.441701228207416      -0.414470974222086      -0.416865971465814     
 -0.436645616543361      -0.465022686738431      -0.498168705772136     
 -0.525696572681430      -0.548813029079115      -0.565992635054975     
 -0.576514298585979      -0.471152155477253      -0.947210052734133     
  -1.18653435241930       -1.08543330793626      -0.891016776117927     
 -0.722004034667173      -0.593358135209341      -0.544399542096445     
 -0.542479796048002      -0.569629582368894      -0.612351373389267     
 -0.663342966857289      -0.708374186225576      -0.747010920419513     
 -0.775427750908517      -0.791253643245457      -0.495611125730867     
  -1.00276051091020       -1.26913816239314       -1.17557778620438     
 -0.963806592878398      -0.759408494694843      -0.592873600370309     
 -0.518240783548289      -0.504926224759631      -0.532151517495034     
 -0.582313913037448      -0.643872492404817      -0.698290460022468     
 -0.742640455753131      -0.772938549300422      -0.788558796039766     
 -0.480699917779022      -0.974258410510913       -1.22437530063834     
  -1.10260128501137      -0.854645600961962      -0.607378861443005     
 -0.396206089574752      -0.285656905672401      -0.248961015457337     
 -0.264314803408098      -0.310058974950233      -0.370058986611097     
 -0.422360087653422      -0.463811909287118      -0.491322069532615     
 -0.505028137472836      -0.425351866807295      -0.860949532982527     
  -1.05022564812826      -0.853210386878132      -0.526320265523228     
 -0.202285110669263       8.053808939303397E-002  0.250583848005441     
  0.332763199056250       0.349850013859194       0.327032687034398     
  0.283648092589535       0.243708005112613       0.210725969413787     
  0.188599101436791       0.177764803042512      -0.320403931606882     
 -0.644158713931111      -0.718466513266018      -0.386499355893310     
  8.040610739971869E-002  0.538815733527259       0.944551234629359     
   1.21773553769748        1.38243122337144        1.46243402554481     
   1.48568282410181        1.47417579736727        1.45536169903015     
   1.43541979335362        1.42088974109397        1.41373939300246     
 -0.151530343092347      -0.294252325380479      -0.184763235355046     
  0.357790550407014        1.04396868042339        1.71537583842276     
   2.31783601781310        2.75837447173950        3.05811851542015     
   3.24074260187341        3.33714796968049        3.37396264925001     
   3.38555801723401        3.38355610966402        3.37889832762180     
   3.37623588530035       9.959793869003175E-002  0.226629247431053     
  0.606737837399014        1.45324535973260        2.45619620570373     
   3.43808396826855        4.32990837336240        5.01918455044877     
   5.52014512247618        5.85451838013644        6.05724562519849     
   6.16282113568890        6.21664647055984        6.23881450938746     
   6.24689737304720        6.24979255672854       0.454185370024767     
  0.962004999418627        1.71898148513600        2.98000373168180     
   4.41345561718846        5.81884944713514        7.10739672215672     
   8.14072483668884        8.92199434466952        9.46899998847562     
   9.82151349444967        10.0246046284921        10.1384009440891     
   10.1946933971602        10.2204926133870        10.2309918056887     
  0.927120958892910        1.94183352639987        3.19306122180545     
   4.98569785169430        6.96708802559117        8.91093093794598     
   10.7048576310449        12.1804660664251        13.3272217767682     
   14.1573825571561        14.7150429567457        15.0562974491731     
   15.2576979153788        15.3651107464211        15.4178641439752     
   15.4399947822751        1.49226062414977        3.11079346062387     
   4.94263931970345        7.34713068591376        9.95225779966623     
   12.5050667098538        14.8690480045314        16.8467515930974     
   18.4153670465114        19.5818556327995        20.3929205423847     
   20.9129090414081        21.2327778914855        21.4120972416256     
   21.5038793140326        21.5430994963897        2.04463401145473     
   4.25086043296828        6.64183001103383        9.62700533766173     
   12.8157502155210        15.9304253173616        18.8149558744092     
   21.2510548090972        23.2110649507124        24.7001177077208     
   25.7652614035034        26.4733822726515        26.9238945105904     
   27.1859255961217        27.3241107720699        27.3840467555032     
   2.44784048754640        5.07950233930524        7.87117321032866     
   11.2682887529316        14.8599782350255        18.3482552419692     
   21.5669212547022        24.2919935418089        26.5050299411490     
   28.2171035519265        29.4734429503115        30.3347063385194     