 Title = "Wing and Wake"
 VARIABLES = "X" "Y" "Z" "GAM" "skew"
 Zone I=   17 J=   20 K=1  T="Blade 01"
 DATAPACKING=BLOCK
 VARLOCATION=([4]=CELLCENTERED,[5]=CELLCENTERED)
  0.430513849156731       0.429910303135934       0.428359101540891     
  0.426024476763532       0.422821316475764       0.418619247491488     
  0.413384201101010       0.407273511463085       0.400654849541474     
  0.394046760918681       0.387962931959866       0.382762736931117     
  0.378601189324503       0.375432782772238       0.373116208866841     
  0.371472061902648       0.370337574347186       0.438573982141876     
  0.437970436121081       0.436419234526038       0.434084609748681     
  0.430881449460912       0.426679380476636       0.421444334086157     
  0.415333644448234       0.408714982526621       0.402106893903827     
  0.396023064945014       0.390822869916266       0.386661322309651     
  0.383492915757387       0.381176341851987       0.379532194887796     
  0.378397707332337       0.449972847415617       0.449369301394822     
  0.447818099799780       0.445483475022419       0.442280314734650     
  0.438078245750374       0.432843199359897       0.426732509721973     
  0.420113847800361       0.413505759177566       0.407421930218753     
  0.402221735190005       0.398060187583389       0.394891781031126     
  0.392575207125726       0.390931060161534       0.389796572606076     
  0.465886074784705       0.465282528763910       0.463731327168868     
  0.461396702391507       0.458193542103740       0.453991473119465     
  0.448756426728986       0.442645737091062       0.436027075169448     
  0.429418986546655       0.423335157587842       0.418134962559093     
  0.413973414952476       0.410805008400216       0.408488434494816     
  0.406844287530622       0.405709799975165       0.487704880984107     
  0.487101334963311       0.485550133368269       0.483215508590910     
  0.480012348303139       0.475810279318864       0.470575232928387     
  0.464464543290462       0.457845881368851       0.451237792746055     
  0.445153963787244       0.439953768758493       0.435792221151878     
  0.432623814599614       0.430307240694218       0.428663093730023     
  0.427528606174564       0.516893284434778       0.516289738413982     
  0.514738536818940       0.512403912041580       0.509200751753811     
  0.504998682769536       0.499763636379056       0.493652946741133     
  0.487034284819520       0.480426196196727       0.474342367237913     
  0.469142172209163       0.464980624602550       0.461812218050282     
  0.459495644144885       0.457851497180695       0.456717009625236     
  0.554680271533986       0.554076725513190       0.552525523918149     
  0.550190899140787       0.546987738853019       0.542785669868742     
  0.537550623478265       0.531439933840342       0.524821271918729     
  0.518213183295936       0.512129354337122       0.506929159308369     
  0.502767611701758       0.499599205149493       0.497282631244095     
  0.495638484279904       0.494503996724445       0.601574420769446     
  0.600970874748651       0.599419673153608       0.597085048376253     
  0.593881888088484       0.589679819104209       0.584444772713725     
  0.578334083075805       0.571715421154190       0.565107332531395     
  0.559023503572586       0.553823308543837       0.549661760937217     
  0.546493354384959       0.544176780479559       0.542532633515364     
  0.541398145959909       0.656811361407037       0.656207815386244     
  0.654656613791203       0.652321989013842       0.649118828726072     
  0.644916759741798       0.639681713351321       0.633571023713398     
  0.626952361791785       0.620344273168990       0.614260444210173     
  0.609060249181425       0.604898701574813       0.601730295022549     
  0.599413721117150       0.597769574152957       0.596635086597496     
  0.718012967662675       0.717409421641878       0.715858220046834     
  0.713523595269477       0.710320434981708       0.706118365997433     
  0.700883319606955       0.694772629969031       0.688153968047417     
  0.681545879424623       0.675462050465812       0.670261855437063     
  0.666100307830444       0.662931901278183       0.660615327372786     
  0.658971180408590       0.657836692853133       0.781391579173727     
  0.780788033152936       0.779236831557891       0.776902206780533     
  0.773699046492764       0.769496977508489       0.764261931118010     
  0.758151241480086       0.751532579558470       0.744924490935676     
  0.738840661976864       0.733640466948117       0.729478919341499     
  0.726310512789241       0.723993938883838       0.722349791919646     
  0.721215304364186       0.842593185429368       0.841989639408570     
  0.840438437813526       0.838103813036168       0.834900652748398     
  0.830698583764124       0.825463537373643       0.819352847735722     
  0.812734185814105       0.806126097191315       0.800042268232501     
  0.794842073203746       0.790680525597135       0.787512119044873     
  0.785195545139475       0.783551398175282       0.782416910619820     
  0.897830126066958       0.897226580046162       0.895675378451117     
  0.893340753673760       0.890137593385990       0.885935524401713     
  0.880700478011232       0.874589788373311       0.867971126451701     
  0.861363037828901       0.855279208870093       0.850079013841341     
  0.845917466234724       0.842749059682464       0.840432485777067     
  0.838788338812872       0.837653851257413       0.944724275302414     
  0.944120729281623       0.942569527686582       0.940234902909219     
  0.937031742621451       0.932829673637176       0.927594627246699     
  0.921483937608775       0.914865275687161       0.908257187064370     
  0.902173358105555       0.896973163076806       0.892811615470191     
  0.889643208917927       0.887326635012529       0.885682488048336     
  0.884548000492879       0.982511262401624       0.981907716380832     
  0.980356514785786       0.978021890008426       0.974818729720663     
  0.970616660736387       0.965381614345904       0.959270924707985     
  0.952652262786370       0.946044174163576       0.939960345204763     
  0.934760150176015       0.930598602569398       0.927430196017136     
  0.925113622111734       0.923469475147545       0.922334987592085     
   1.01169966585229        1.01109611983150        1.00954491823646     
   1.00721029345910        1.00400713317133       0.999805064187057     
  0.994570017796573       0.988459328158658       0.981840666237034     
  0.975232577614252       0.969148748655435       0.963948553626686     
  0.959787006020069       0.956618599467806       0.954302025562410     
  0.952657878598217       0.951523391042759        1.03351847205170     
   1.03291492603090        1.03136372443586        1.02902909965850     
   1.02582593937073        1.02162387038646        1.01638882399598     
   1.01027813435805        1.00365947243644       0.997051383813649     
  0.990967554854829       0.985767359826083       0.981605812219468     
  0.978437405667207       0.976120831761803       0.974476684797617     
  0.973342197242153        1.04943169942079        1.04882815339999     
   1.04727695180495        1.04494232702759        1.04173916673982     
   1.03753709775555        1.03230205136507        1.02619136172714     
   1.01957269980553        1.01296461118274        1.00688078222392     
   1.00168058719517       0.997519039588558       0.994350633036296     
  0.992034059130900       0.990389912166708       0.989255424611243     
   1.06083056469453        1.06022701867373        1.05867581707868     
   1.05634119230133        1.05313803201356        1.04893596302928     
   1.04370091663881        1.03759022700088        1.03097156507927     
   1.02436347645647        1.01827964749766        1.01307945246891     
   1.00891790486230        1.00574949831003        1.00343292440464     
   1.00178877744044        1.00065428988499        1.06889069767967     
   1.06828715165889        1.06673595006384        1.06440132528648     
   1.06119816499871        1.05699609601443        1.05176104962395     
   1.04565035998603        1.03903169806441        1.03242360944163     
   1.02633978048281        1.02113958545406        1.01697803784744     
   1.01380963129519        1.01149305738979        1.00984891042559     
   1.00871442287013     
 -6.127486936345875E-002 -6.292834912121628E-002 -6.717803406525669E-002
 -7.357399175252925E-002 -8.234939663335190E-002 -9.386142018551974E-002
 -0.108203397332825      -0.124944294089875      -0.143076835990202     
 -0.161180411192104      -0.177847720206612      -0.192094218270032     
 -0.203495229114948      -0.212175422369506      -0.218521927736049     
 -0.223026246595599      -0.226134298249905      -6.421694420134691E-002
 -6.587042395910742E-002 -7.012010890314616E-002 -7.651606659041947E-002
 -8.529147147124236E-002 -9.680349502340864E-002 -0.111145472170713     
 -0.127886368927766      -0.146018910828091      -0.164122486029993     
 -0.180789795044504      -0.195036293107921      -0.206437303952839     
 -0.215117497207397      -0.221464002573938      -0.225968321433490     
 -0.229076373087796      -6.837770864086364E-002 -7.003118839862289E-002
 -7.428087334266048E-002 -8.067683102993374E-002 -8.945223591075568E-002
 -0.100964259462925      -0.115306236610228      -0.132047133367280     
 -0.150179675267607      -0.168283250469507      -0.184950559484019     
 -0.199197057547437      -0.210598068392353      -0.219278261646911     
 -0.225624767013454      -0.230129085873003      -0.233237137527312     
 -7.418628598300886E-002 -7.583976574076817E-002 -8.008945068480677E-002
 -8.648540837208046E-002 -9.526081325290330E-002 -0.106772836805071     
 -0.121114813952375      -0.137855710709427      -0.155988252609752     
 -0.174091827811654      -0.190759136826164      -0.205005634889582     
 -0.216406645734499      -0.225086838989058      -0.231433344355599     
 -0.235937663215151      -0.239045714869458      -8.215049213572878E-002
 -8.380397189348794E-002 -8.805365683752671E-002 -9.444961452479900E-002
 -0.103225019405623      -0.114737042957790      -0.129079020105095     
 -0.145819916862146      -0.163952458762472      -0.182056033964374     
 -0.198723342978884      -0.212969841042303      -0.224370851887219     
 -0.233051045141776      -0.239397550508319      -0.243901869367869     
 -0.247009921022177      -9.280471676311834E-002 -9.445819652087745E-002
 -9.870788146491624E-002 -0.105103839152189      -0.113879244033011     
 -0.125391267585180      -0.139733244732484      -0.156474141489535     
 -0.174606683389861      -0.192710258591762      -0.209377567606273     
 -0.223624065669691      -0.235025076514609      -0.243705269769164     
 -0.250051775135707      -0.254556093995260      -0.257664145649567     
 -0.106597559157792      -0.108251038915551      -0.112500723859588     
 -0.118896681546862      -0.127672086427686      -0.139184109979850     
 -0.153526087127157      -0.170266983884207      -0.188399525784535     
 -0.206503100986436      -0.223170410000946      -0.237416908064362     
 -0.248817918909282      -0.257498112163838      -0.263844617530383     
 -0.268348936389934      -0.271456988044241      -0.123714658436937     
 -0.125368138194697      -0.129617823138735      -0.136013780826009     
 -0.144789185706832      -0.156301209259001      -0.170643186406300     
 -0.187384083163356      -0.205516625063682      -0.223620200265579     
 -0.240287509280094      -0.254534007343511      -0.265935018188426     
 -0.274615211442986      -0.280961716809529      -0.285466035669077     
 -0.288574087323387      -0.143877007305290      -0.145530487063052     
 -0.149780172007091      -0.156176129694359      -0.164951534575186     
 -0.176463558127354      -0.190805535274657      -0.207546432031709     
 -0.225678973932037      -0.243782549133936      -0.260449858148445     
 -0.274696356211861      -0.286097367056781      -0.294777560311339     
 -0.301124065677882      -0.305628384537432      -0.308736436191738     
 -0.166216552587599      -0.167870032345360      -0.172119717289398     
 -0.178515674976670      -0.187291079857495      -0.198803103409661     
 -0.213145080556966      -0.229885977314017      -0.248018519214344     
 -0.266122094416243      -0.282789403430755      -0.297035901494175     
 -0.308436912339089      -0.317117105593649      -0.323463610960189     
 -0.327967929819742      -0.331075981474049      -0.189350738900735     
 -0.191004218658496      -0.195253903602536      -0.201649861289806     
 -0.210425266170631      -0.221937289722799      -0.236279266870104     
 -0.253020163627155      -0.271152705527479      -0.289256280729381     
 -0.305923589743892      -0.320170087807309      -0.331571098652225     
 -0.340251291906785      -0.346597797273327      -0.351102116132879     
 -0.354210167787185      -0.211690284183046      -0.213343763940805     
 -0.217593448884845      -0.223989406572114      -0.232764811452940     
 -0.244276835005107      -0.258618812152410      -0.275359708909462     
 -0.293492250809790      -0.311595826011692      -0.328263135026200     
 -0.342509633089618      -0.353910643934537      -0.362590837189095     
 -0.368937342555636      -0.373441661415186      -0.376549713069496     
 -0.231852633051400      -0.233506112809157      -0.237755797753197     
 -0.244151755440470      -0.252927160321296      -0.264439183873462     
 -0.278781161020764      -0.295522057777818      -0.313654599678144     
 -0.331758174880038      -0.348425483894554      -0.362671981957971     
 -0.374072992802886      -0.382753186057446      -0.389099691423990     
 -0.393604010283539      -0.396712061937846      -0.248969732330546     
 -0.250623212088307      -0.254872897032343      -0.261268854719617     
 -0.270044259600438      -0.281556283152607      -0.295898260299914     
 -0.312639157056959      -0.330771698957291      -0.348875274159189     
 -0.365542583173701      -0.379789081237120      -0.391190092082036     
 -0.399870285336594      -0.406216790703137      -0.410721109562686     
 -0.413829161216995      -0.262762574725218      -0.264416054482978     
 -0.268665739427016      -0.275061697114287      -0.283837101995113     
 -0.295349125547282      -0.309691102694583      -0.326431999451637     
 -0.344564541351966      -0.362668116553864      -0.379335425568375     
 -0.393581923631792      -0.404982934476710      -0.413663127731268     
 -0.420009633097808      -0.424513951957359      -0.427622003611668     
 -0.273416799352606      -0.275070279110370      -0.279319964054406     
 -0.285715921741680      -0.294491326622502      -0.306003350174668     
 -0.320345327321972      -0.337086224079028      -0.355218765979346     
 -0.373322341181253      -0.389989650195764      -0.404236148259181     
 -0.415637159104099      -0.424317352358656      -0.430663857725198     
 -0.435168176584751      -0.438276228239061      -0.281381005505330     
 -0.283034485263089      -0.287284170207126      -0.293680127894398     
 -0.302455532775220      -0.313967556327392      -0.328309533474694     
 -0.345050430231744      -0.363182972132072      -0.381286547333974     
 -0.397953856348477      -0.412200354411901      -0.423601365256819     
 -0.432281558511377      -0.438628063877915      -0.443132382737471     
 -0.446240434391775      -0.287189582847477      -0.288843062605233     
 -0.293092747549272      -0.299488705236548      -0.308264110117364     
 -0.319776133669537      -0.334118110816841      -0.350859007573888     
 -0.368991549474218      -0.387095124676119      -0.403762433690629     
 -0.418008931754048      -0.429409942598964      -0.438090135853525     
 -0.444436641220065      -0.448940960079617      -0.452049011733920     
 -0.291350347286989      -0.293003827044748      -0.297253511988786     
 -0.303649469676061      -0.312424874556879      -0.323936898109052     
 -0.338278875256355      -0.355019772013404      -0.373152313913734     
 -0.391255889115634      -0.407923198130145      -0.422169696193561     
 -0.433570707038478      -0.442250900293034      -0.448597405659580     
 -0.453101724519130      -0.456209776173438      -0.294292422124878     
 -0.295945901882639      -0.300195586826677      -0.306591544513947     
 -0.315366949394775      -0.326878972946941      -0.341220950094246     
 -0.357961846851296      -0.376094388751620      -0.394197963953525     
 -0.410865272968033      -0.425111771031454      -0.436512781876364     
 -0.445192975130926      -0.451539480497467      -0.456043799357021     
 -0.459151851011328     
  0.000000000000000E+000 -2.059343134687265E-004 -5.967154644315922E-004
 -1.288783171780619E-003 -2.918895425121374E-003 -5.573396522451829E-003
 -9.167771110016921E-003 -1.357217217812317E-002 -1.838427778900438E-002
 -2.320014315178548E-002 -2.763890288787426E-002 -3.143970394449276E-002
 -3.447539076661003E-002 -3.679168976136481E-002 -3.848528426515805E-002
 -3.968682183911389E-002 -4.051708164825068E-002  0.000000000000000E+000
 -2.059343134687265E-004 -5.967154644315922E-004 -1.288783171780619E-003
 -2.918895425121374E-003 -5.573396522451829E-003 -9.167771110016921E-003
 -1.357217217812317E-002 -1.838427778900438E-002 -2.320014315178548E-002
 -2.763890288787426E-002 -3.143970394449276E-002 -3.447539076661003E-002
 -3.679168976136481E-002 -3.848528426515805E-002 -3.968682183911389E-002
 -4.051708164825068E-002  0.000000000000000E+000 -2.059343134687265E-004
 -5.967154644315922E-004 -1.288783171780619E-003 -2.918895425121374E-003
 -5.573396522451829E-003 -9.167771110016921E-003 -1.357217217812317E-002
 -1.838427778900438E-002 -2.320014315178548E-002 -2.763890288787426E-002
 -3.143970394449276E-002 -3.447539076661003E-002 -3.679168976136481E-002
 -3.848528426515805E-002 -3.968682183911389E-002 -4.051708164825068E-002
  0.000000000000000E+000 -2.059343134687265E-004 -5.967154644315922E-004
 -1.288783171780619E-003 -2.918895425121374E-003 -5.573396522451829E-003
 -9.167771110016921E-003 -1.357217217812317E-002 -1.838427778900438E-002
 -2.320014315178548E-002 -2.763890288787426E-002 -3.143970394449276E-002
 -3.447539076661003E-002 -3.679168976136481E-002 -3.848528426515805E-002
 -3.968682183911389E-002 -4.051708164825068E-002  0.000000000000000E+000
 -2.059343134687265E-004 -5.967154644315922E-004 -1.288783171780619E-003
 -2.918895425121374E-003 -5.573396522451829E-003 -9.167771110016921E-003
 -1.357217217812317E-002 -1.838427778900438E-002 -2.320014315178548E-002
 -2.763890288787426E-002 -3.143970394449276E-002 -3.447539076661003E-002
 -3.679168976136481E-002 -3.848528426515805E-002 -3.968682183911389E-002
 -4.051708164825068E-002  0.000000000000000E+000 -2.059343134687265E-004
 -5.967154644315922E-004 -1.288783171780619E-003 -2.918895425121374E-003
 -5.573396522451829E-003 -9.167771110016921E-003 -1.357217217812317E-002
 -1.838427778900438E-002 -2.320014315178548E-002 -2.763890288787426E-002
 -3.143970394449276E-002 -3.447539076661003E-002 -3.679168976136481E-002
 -3.848528426515805E-002 -3.968682183911389E-002 -4.051708164825068E-002
  0.000000000000000E+000 -2.059343134687265E-004 -5.967154644315922E-004
 -1.288783171780619E-003 -2.918895425121374E-003 -5.573396522451829E-003
 -9.167771110016921E-003 -1.357217217812317E-002 -1.838427778900438E-002
 -2.320014315178548E-002 -2.763890288787426E-002 -3.143970394449276E-002
 -3.447539076661003E-002 -3.679168976136481E-002 -3.848528426515805E-002
 -3.968682183911389E-002 -4.051708164825068E-002  0.000000000000000E+000
 -2.059343134687265E-004 -5.967154644315922E-004 -1.288783171780619E-003
 -2.918895425121374E-003 -5.573396522451829E-003 -9.167771110016921E-003
 -1.357217217812317E-002 -1.838427778900438E-002 -2.320014315178548E-002
 -2.763890288787426E-002 -3.143970394449276E-002 -3.447539076661003E-002
 -3.679168976136481E-002 -3.848528426515805E-002 -3.968682183911389E-002
 -4.051708164825068E-002  0.000000000000000E+000 -2.059343134687265E-004
 -5.967154644315922E-004 -1.288783171780619E-003 -2.918895425121374E-003
 -5.573396522451829E-003 -9.167771110016921E-003 -1.357217217812317E-002
 -1.838427778900438E-002 -2.320014315178548E-002 -2.763890288787426E-002
 -3.143970394449276E-002 -3.447539076661003E-002 -3.679168976136481E-002
 -3.848528426515805E-002 -3.968682183911389E-002 -4.051708164825068E-002
  0.000000000000000E+000 -2.059343134687265E-004 -5.967154644315922E-004
 -1.288783171780619E-003 -2.918895425121374E-003 -5.573396522451829E-003
 -9.167771110016921E-003 -1.357217217812317E-002 -1.838427778900438E-002
 -2.320014315178548E-002 -2.763890288787426E-002 -3.143970394449276E-002
 -3.447539076661003E-002 -3.679168976136481E-002 -3.848528426515805E-002
 -3.968682183911389E-002 -4.051708164825068E-002  0.000000000000000E+000
 -2.059343134687265E-004 -5.967154644315922E-004 -1.288783171780619E-003
 -2.918895425121374E-003 -5.573396522451829E-003 -9.167771110016921E-003
 -1.357217217812317E-002 -1.838427778900438E-002 -2.320014315178548E-002
 -2.763890288787426E-002 -3.143970394449276E-002 -3.447539076661003E-002
 -3.679168976136481E-002 -3.848528426515805E-002 -3.968682183911389E-002
 -4.051708164825068E-002  0.000000000000000E+000 -2.059343134687265E-004
 -5.967154644315922E-004 -1.288783171780619E-003 -2.918895425121374E-003
 -5.573396522451829E-003 -9.167771110016921E-003 -1.357217217812317E-002
 -1.838427778900438E-002 -2.320014315178548E-002 -2.763890288787426E-002
 -3.143970394449276E-002 -3.447539076661003E-002 -3.679168976136481E-002
 -3.848528426515805E-002 -3.968682183911389E-002 -4.051708164825068E-002
  0.000000000000000E+000 -2.059343134687265E-004 -5.967154644315922E-004
 -1.288783171780619E-003 -2.918895425121374E-003 -5.573396522451829E-003
 -9.167771110016921E-003 -1.357217217812317E-002 -1.838427778900438E-002
 -2.320014315178548E-002 -2.763890288787426E-002 -3.143970394449276E-002
 -3.447539076661003E-002 -3.679168976136481E-002 -3.848528426515805E-002
 -3.968682183911389E-002 -4.051708164825068E-002  0.000000000000000E+000
 -2.059343134687265E-004 -5.967154644315922E-004 -1.288783171780619E-003
 -2.918895425121374E-003 -5.573396522451829E-003 -9.167771110016921E-003
 -1.357217217812317E-002 -1.838427778900438E-002 -2.320014315178548E-002
 -2.763890288787426E-002 -3.143970394449276E-002 -3.447539076661003E-002
 -3.679168976136481E-002 -3.848528426515805E-002 -3.968682183911389E-002
 -4.051708164825068E-002  0.000000000000000E+000 -2.059343134687265E-004
 -5.967154644315922E-004 -1.288783171780619E-003 -2.918895425121374E-003
 -5.573396522451829E-003 -9.167771110016921E-003 -1.357217217812317E-002
 -1.838427778900438E-002 -2.320014315178548E-002 -2.763890288787426E-002
 -3.143970394449276E-002 -3.447539076661003E-002 -3.679168976136481E-002
 -3.848528426515805E-002 -3.968682183911389E-002 -4.051708164825068E-002
  0.000000000000000E+000 -2.059343134687265E-004 -5.967154644315922E-004
 -1.288783171780619E-003 -2.918895425121374E-003 -5.573396522451829E-003
 -9.167771110016921E-003 -1.357217217812317E-002 -1.838427778900438E-002
 -2.320014315178548E-002 -2.763890288787426E-002 -3.143970394449276E-002
 -3.447539076661003E-002 -3.679168976136481E-002 -3.848528426515805E-002
 -3.968682183911389E-002 -4.051708164825068E-002  0.000000000000000E+000
 -2.059343134687265E-004 -5.967154644315922E-004 -1.288783171780619E-003
 -2.918895425121374E-003 -5.573396522451829E-003 -9.167771110016921E-003
 -1.357217217812317E-002 -1.838427778900438E-002 -2.320014315178548E-002
 -2.763890288787426E-002 -3.143970394449276E-002 -3.447539076661003E-002
 -3.679168976136481E-002 -3.848528426515805E-002 -3.968682183911389E-002
 -4.051708164825068E-002  0.000000000000000E+000 -2.059343134687265E-004
 -5.967154644315922E-004 -1.288783171780619E-003 -2.918895425121374E-003
 -5.573396522451829E-003 -9.167771110016921E-003 -1.357217217812317E-002
 -1.838427778900438E-002 -2.320014315178548E-002 -2.763890288787426E-002
 -3.143970394449276E-002 -3.447539076661003E-002 -3.679168976136481E-002
 -3.848528426515805E-002 -3.968682183911389E-002 -4.051708164825068E-002
  0.000000000000000E+000 -2.059343134687265E-004 -5.967154644315922E-004
 -1.288783171780619E-003 -2.918895425121374E-003 -5.573396522451829E-003
 -9.167771110016921E-003 -1.357217217812317E-002 -1.838427778900438E-002
 -2.320014315178548E-002 -2.763890288787426E-002 -3.143970394449276E-002
 -3.447539076661003E-002 -3.679168976136481E-002 -3.848528426515805E-002
 -3.968682183911389E-002 -4.051708164825068E-002  0.000000000000000E+000
 -2.059343134687265E-004 -5.967154644315922E-004 -1.288783171780619E-003
 -2.918895425121374E-003 -5.573396522451829E-003 -9.167771110016921E-003
 -1.357217217812317E-002 -1.838427778900438E-002 -2.320014315178548E-002
 -2.763890288787426E-002 -3.143970394449276E-002 -3.447539076661003E-002
 -3.679168976136481E-002 -3.848528426515805E-002 -3.968682183911389E-002
 -4.051708164825068E-002
 -0.434575577520205      -0.851272713418770       -1.04139720605477     
 -0.951450713229777      -0.819462764916943      -0.724855972822353     
 -0.661230643033530      -0.652683485519621      -0.671564041874106     
 -0.705326789745568      -0.744922933267865      -0.786429446038319     
 -0.819670121795037      -0.846426447147442      -0.866004317399857     
 -0.878232537732813      -0.533284952690612       -1.07275829575679     
  -1.36502937729871       -1.30924749494525       -1.15533519729251     
  -1.02321050529598      -0.928108358609623      -0.909455672562974     
 -0.934335700941092      -0.984525205920648       -1.04636551271044     
  -1.11267530485183       -1.16976844160622       -1.21783498602590     
  -1.25315156924260       -1.27291529033617      -0.568056770715908     
  -1.15077956271128       -1.48308855355328       -1.44885766804882     
  -1.29185903622711       -1.13787600402809       -1.01719664881622     
 -0.983919181372676       -1.00731308413947       -1.06649955933673     
  -1.14382984068063       -1.22780876605626       -1.30000279173359     
  -1.35744133874640       -1.39618821383691       -1.41599735433644     
 -0.560236921713191       -1.13760385337986       -1.46244016914371     
  -1.40998475779908       -1.22800982116324       -1.04286564730305     
 -0.888909341970741      -0.830241833831252      -0.839812970159471     
 -0.895656945098680      -0.975812446555251       -1.06365345999337     
  -1.13693813524109       -1.19276156080982       -1.22891339850789     
  -1.24665457090369      -0.508085305336362       -1.03133791983509     
  -1.29969776220350       -1.17736196244611      -0.923076645525997     
 -0.668868858195208      -0.451469868111294      -0.341344159273237     
 -0.312765086539605      -0.342311540067273      -0.403991989058023     
 -0.477726279572627      -0.539564752965789      -0.586956951811689     
 -0.617476007342284      -0.632114703291891      -0.400326360467875     
 -0.809019795385990      -0.960443980495631      -0.701974569899533     
 -0.307416565068320       8.041400953553010E-002  0.419133690472924     
  0.630427090095318       0.739765883890303       0.772117911225666     
  0.756448781003600       0.715270664377445       0.675483941062307     
  0.641945547591143       0.619602509773680       0.608972413470091     
 -0.219059384080924      -0.433653818789372      -0.389529012260890     
  9.063112132476360E-002  0.715127523559873        1.32601116036914     
   1.87069632594210        2.25773008244985        2.50973921151971     
   2.65158048124315        2.71496560399402        2.72672558088306     
   2.72060370586519        2.70709556928728        2.69583935128470     
   2.69027198011977       5.845150139886254E-002  0.141689322457459     
  0.482188207309731        1.29135245389397        2.25766290059081     
   3.20382358927830        4.06182004590670        4.72001485770042     
   5.19347488461256        5.50444034237453        5.68809194537706     
   5.77891524194404        5.82204031583168        5.83709351116602     
   5.84103832363583        5.84213188934102       0.455189626295125     
  0.964116065129387        1.72271060236208        2.98652915604185     
   4.42356339698501        5.83320317669001        7.12668357729601     
   8.16533378402709        8.95195952483147        9.50376797308085     
   9.85998067249030        10.0654206680419        10.1804132706353     
   10.2371460360347        10.2630515323168        10.2736276095010     
  0.976789257118475        2.04440411874659        3.34467415524305     
   5.18603309461917        7.21674956376375        9.20999136316999     
   11.0523315496609        12.5738718061837        13.7625366629605     
   14.6289861451930        15.2160793215284        15.5794089089167     
   15.7960424626905        15.9129724264966        15.9709853565531     
   15.9954643074326        1.57352286357776        3.27866327589793     
   5.19050340133904        7.67374521068120        10.3581934138654     
   12.9900796338546        15.4310438977851        17.4812451751362     
   19.1154497508593        20.3383493850856        21.1950692171088     
   21.7494544198134        22.0933111805459        22.2878444513779     
   22.3881444156161        22.4311294440394        2.12569141728208     
   4.41858535187967        6.89006738766517        9.95507024665807     
   13.2249803274080        16.4214079915402        19.3862395364874     
   21.8983889024052        23.9272413985862        25.4751972652857     
   26.5875136885730        27.3306924603317        27.8053503269995     
   28.0825863018517        28.2292576087632        28.2928981968630     
   2.50880198704965        5.20604955344772        8.05947268452557     
   11.5189649732349        15.1753678184923        18.7301654981720     
   22.0153543859961        24.8042185317640        27.0753194923631     
   28.8369482910890        30.1325284840235        31.0223713791521     