 Title = "Wing and Wake"
 VARIABLES = "X" "Y" "Z" "GAM" "skew"
 Zone I=   17 J=   20 K=1  T="Blade 01"
 DATAPACKING=BLOCK
 VARLOCATION=([4]=CELLCENTERED,[5]=CELLCENTERED)
 -0.430513849156732      -0.429910303135936      -0.428359101540892     
 -0.426024476763534      -0.422821316475765      -0.418619247491489     
 -0.413384201101013      -0.407273511463085      -0.400654849541477     
 -0.394046760918681      -0.387962931959866      -0.382762736931117     
 -0.378601189324503      -0.375432782772238      -0.373116208866842     
 -0.371472061902649      -0.370337574347186      -0.438573982141877     
 -0.437970436121082      -0.436419234526039      -0.434084609748683     
 -0.430881449460913      -0.426679380476636      -0.421444334086158     
 -0.415333644448234      -0.408714982526621      -0.402106893903827     
 -0.396023064945016      -0.390822869916267      -0.386661322309651     
 -0.383492915757387      -0.381176341851988      -0.379532194887797     
 -0.378397707332338      -0.449972847415618      -0.449369301394822     
 -0.447818099799780      -0.445483475022421      -0.442280314734652     
 -0.438078245750375      -0.432843199359898      -0.426732509721974     
 -0.420113847800362      -0.413505759177567      -0.407421930218753     
 -0.402221735190006      -0.398060187583391      -0.394891781031127     
 -0.392575207125726      -0.390931060161534      -0.389796572606076     
 -0.465886074784707      -0.465282528763912      -0.463731327168869     
 -0.461396702391508      -0.458193542103742      -0.453991473119468     
 -0.448756426728987      -0.442645737091063      -0.436027075169450     
 -0.429418986546656      -0.423335157587842      -0.418134962559095     
 -0.413973414952476      -0.410805008400216      -0.408488434494817     
 -0.406844287530622      -0.405709799975166      -0.487704880984108     
 -0.487101334963313      -0.485550133368272      -0.483215508590912     
 -0.480012348303139      -0.475810279318864      -0.470575232928388     
 -0.464464543290462      -0.457845881368852      -0.451237792746056     
 -0.445153963787245      -0.439953768758493      -0.435792221151879     
 -0.432623814599614      -0.430307240694217      -0.428663093730024     
 -0.427528606174565      -0.516893284434779      -0.516289738413983     
 -0.514738536818941      -0.512403912041581      -0.509200751753813     
 -0.504998682769536      -0.499763636379057      -0.493652946741133     
 -0.487034284819522      -0.480426196196730      -0.474342367237914     
 -0.469142172209164      -0.464980624602552      -0.461812218050283     
 -0.459495644144884      -0.457851497180697      -0.456717009625237     
 -0.554680271533988      -0.554076725513192      -0.552525523918153     
 -0.550190899140788      -0.546987738853019      -0.542785669868742     
 -0.537550623478265      -0.531439933840344      -0.524821271918730     
 -0.518213183295936      -0.512129354337123      -0.506929159308369     
 -0.502767611701760      -0.499599205149493      -0.497282631244097     
 -0.495638484279905      -0.494503996724447      -0.601574420769447     
 -0.600970874748651      -0.599419673153608      -0.597085048376256     
 -0.593881888088487      -0.589679819104212      -0.584444772713733     
 -0.578334083075806      -0.571715421154191      -0.565107332531399     
 -0.559023503572587      -0.553823308543840      -0.549661760937218     
 -0.546493354384959      -0.544176780479559      -0.542532633515365     
 -0.541398145959909      -0.656811361407037      -0.656207815386245     
 -0.654656613791205      -0.652321989013845      -0.649118828726076     
 -0.644916759741799      -0.639681713351323      -0.633571023713402     
 -0.626952361791786      -0.620344273168991      -0.614260444210174     
 -0.609060249181426      -0.604898701574814      -0.601730295022550     
 -0.599413721117150      -0.597769574152958      -0.596635086597498     
 -0.718012967662674      -0.717409421641878      -0.715858220046836     
 -0.713523595269477      -0.710320434981712      -0.706118365997435     
 -0.700883319606957      -0.694772629969033      -0.688153968047419     
 -0.681545879424627      -0.675462050465815      -0.670261855437068     
 -0.666100307830447      -0.662931901278183      -0.660615327372787     
 -0.658971180408591      -0.657836692853135      -0.781391579173730     
 -0.780788033152939      -0.779236831557895      -0.776902206780534     
 -0.773699046492769      -0.769496977508492      -0.764261931118013     
 -0.758151241480090      -0.751532579558470      -0.744924490935678     
 -0.738840661976866      -0.733640466948117      -0.729478919341499     
 -0.726310512789243      -0.723993938883838      -0.722349791919647     
 -0.721215304364188      -0.842593185429369      -0.841989639408572     
 -0.840438437813528      -0.838103813036172      -0.834900652748399     
 -0.830698583764127      -0.825463537373645      -0.819352847735724     
 -0.812734185814108      -0.806126097191316      -0.800042268232504     
 -0.794842073203748      -0.790680525597138      -0.787512119044875     
 -0.785195545139477      -0.783551398175285      -0.782416910619819     
 -0.897830126066957      -0.897226580046165      -0.895675378451119     
 -0.893340753673761      -0.890137593385991      -0.885935524401715     
 -0.880700478011232      -0.874589788373314      -0.867971126451704     
 -0.861363037828902      -0.855279208870096      -0.850079013841347     
 -0.845917466234723      -0.842749059682466      -0.840432485777068     
 -0.838788338812875      -0.837653851257413      -0.944724275302415     
 -0.944120729281626      -0.942569527686584      -0.940234902909222     
 -0.937031742621453      -0.932829673637179      -0.927594627246700     
 -0.921483937608778      -0.914865275687163      -0.908257187064374     
 -0.902173358105557      -0.896973163076811      -0.892811615470193     
 -0.889643208917929      -0.887326635012532      -0.885682488048337     
 -0.884548000492882      -0.982511262401625      -0.981907716380833     
 -0.980356514785788      -0.978021890008426      -0.974818729720665     
 -0.970616660736388      -0.965381614345903      -0.959270924707988     
 -0.952652262786374      -0.946044174163577      -0.939960345204765     
 -0.934760150176016      -0.930598602569402      -0.927430196017138     
 -0.925113622111735      -0.923469475147549      -0.922334987592087     
  -1.01169966585229       -1.01109611983150       -1.00954491823646     
  -1.00721029345910       -1.00400713317134      -0.999805064187062     
 -0.994570017796573      -0.988459328158659      -0.981840666237035     
 -0.975232577614256      -0.969148748655442      -0.963948553626687     
 -0.959787006020073      -0.956618599467807      -0.954302025562412     
 -0.952657878598217      -0.951523391042760       -1.03351847205170     
  -1.03291492603091       -1.03136372443587       -1.02902909965851     
  -1.02582593937073       -1.02162387038646       -1.01638882399598     
  -1.01027813435806       -1.00365947243644      -0.997051383813653     
 -0.990967554854827      -0.985767359826084      -0.981605812219469     
 -0.978437405667209      -0.976120831761801      -0.974476684797617     
 -0.973342197242153       -1.04943169942080       -1.04882815339999     
  -1.04727695180495       -1.04494232702760       -1.04173916673982     
  -1.03753709775555       -1.03230205136507       -1.02619136172715     
  -1.01957269980553       -1.01296461118274       -1.00688078222392     
  -1.00168058719517      -0.997519039588562      -0.994350633036300     
 -0.992034059130901      -0.990389912166712      -0.989255424611245     
  -1.06083056469453       -1.06022701867373       -1.05867581707869     
  -1.05634119230133       -1.05313803201356       -1.04893596302929     
  -1.04370091663881       -1.03759022700088       -1.03097156507928     
  -1.02436347645647       -1.01827964749766       -1.01307945246892     
  -1.00891790486230       -1.00574949831003       -1.00343292440464     
  -1.00178877744045       -1.00065428988499       -1.06889069767968     
  -1.06828715165889       -1.06673595006384       -1.06440132528648     
  -1.06119816499871       -1.05699609601443       -1.05176104962395     
  -1.04565035998603       -1.03903169806442       -1.03242360944163     
  -1.02633978048281       -1.02113958545406       -1.01697803784745     
  -1.01380963129519       -1.01149305738979       -1.00984891042560     
  -1.00871442287013     
  6.127486936345942E-002  6.292834912121824E-002  6.717803406525896E-002
  7.357399175253078E-002  8.234939663335367E-002  9.386142018552125E-002
  0.108203397332826       0.124944294089876       0.143076835990204     
  0.161180411192104       0.177847720206614       0.192094218270034     
  0.203495229114948       0.212175422369508       0.218521927736052     
  0.223026246595601       0.226134298249906       6.421694420134891E-002
  6.587042395910911E-002  7.012010890314734E-002  7.651606659042101E-002
  8.529147147124415E-002  9.680349502341067E-002  0.111145472170715     
  0.127886368927768       0.146018910828092       0.164122486029994     
  0.180789795044505       0.195036293107922       0.206437303952841     
  0.215117497207398       0.221464002573939       0.225968321433492     
  0.229076373087799       6.837770864086529E-002  7.003118839862513E-002
  7.428087334266158E-002  8.067683102993591E-002  8.945223591075820E-002
  0.100964259462925       0.115306236610229       0.132047133367282     
  0.150179675267609       0.168283250469510       0.184950559484021     
  0.199197057547439       0.210598068392356       0.219278261646912     
  0.225624767013454       0.230129085873002       0.233237137527314     
  7.418628598301084E-002  7.583976574076969E-002  8.008945068480820E-002
  8.648540837208245E-002  9.526081325290477E-002  0.106772836805072     
  0.121114813952377       0.137855710709428       0.155988252609756     
  0.174091827811656       0.190759136826165       0.205005634889585     
  0.216406645734500       0.225086838989060       0.231433344355601     
  0.235937663215154       0.239045714869460       8.215049213573038E-002
  8.380397189348975E-002  8.805365683752839E-002  9.444961452480170E-002
  0.103225019405625       0.114737042957791       0.129079020105097     
  0.145819916862147       0.163952458762474       0.182056033964375     
  0.198723342978887       0.212969841042305       0.224370851887222     
  0.233051045141778       0.239397550508322       0.243901869367872     
  0.247009921022177       9.280471676311945E-002  9.445819652087951E-002
  9.870788146491823E-002  0.105103839152191       0.113879244033014     
  0.125391267585182       0.139733244732487       0.156474141489537     
  0.174606683389864       0.192710258591765       0.209377567606275     
  0.223624065669693       0.235025076514612       0.243705269769167     
  0.250051775135709       0.254556093995262       0.257664145649570     
  0.106597559157793       0.108251038915553       0.112500723859591     
  0.118896681546863       0.127672086427688       0.139184109979850     
  0.153526087127159       0.170266983884209       0.188399525784538     
  0.206503100986437       0.223170410000949       0.237416908064361     
  0.248817918909284       0.257498112163839       0.263844617530385     
  0.268348936389936       0.271456988044244       0.123714658436938     
  0.125368138194699       0.129617823138736       0.136013780826012     
  0.144789185706835       0.156301209259002       0.170643186406306     
  0.187384083163358       0.205516625063682       0.223620200265583     
  0.240287509280096       0.254534007343514       0.265935018188425     
  0.274615211442988       0.280961716809532       0.285466035669079     
  0.288574087323388       0.143877007305290       0.145530487063055     
  0.149780172007093       0.156176129694362       0.164951534575188     
  0.176463558127357       0.190805535274660       0.207546432031713     
  0.225678973932039       0.243782549133938       0.260449858148448     
  0.274696356211862       0.286097367056785       0.294777560311341     
  0.301124065677880       0.305628384537435       0.308736436191740     
  0.166216552587600       0.167870032345362       0.172119717289400     
  0.178515674976670       0.187291079857498       0.198803103409663     
  0.213145080556967       0.229885977314020       0.248018519214348     
  0.266122094416248       0.282789403430758       0.297035901494179     
  0.308436912339093       0.317117105593652       0.323463610960193     
  0.327967929819744       0.331075981474053       0.189350738900739     
  0.191004218658500       0.195253903602540       0.201649861289807     
  0.210425266170633       0.221937289722803       0.236279266870107     
  0.253020163627159       0.271152705527478       0.289256280729384     
  0.305923589743895       0.320170087807309       0.331571098652229     
  0.340251291906786       0.346597797273332       0.351102116132882     
  0.354210167787187       0.211690284183047       0.213343763940810     
  0.217593448884849       0.223989406572118       0.232764811452942     
  0.244276835005112       0.258618812152413       0.275359708909464     
  0.293492250809793       0.311595826011696       0.328263135026203     
  0.342509633089614       0.353910643934540       0.362590837189097     
  0.368937342555640       0.373441661415191       0.376549713069499     
  0.231852633051404       0.233506112809158       0.237755797753200     
  0.244151755440473       0.252927160321299       0.264439183873464     
  0.278781161020768       0.295522057777822       0.313654599678148     
  0.331758174880039       0.348425483894559       0.362671981957976     
  0.374072992802884       0.382753186057448       0.389099691423991     
  0.393604010283546       0.396712061937847       0.248969732330548     
  0.250623212088311       0.254872897032347       0.261268854719622     
  0.270044259600441       0.281556283152610       0.295898260299917     
  0.312639157056960       0.330771698957294       0.348875274159194     
  0.365542583173703       0.379789081237125       0.391190092082040     
  0.399870285336598       0.406216790703140       0.410721109562691     
  0.413829161217000       0.262762574725221       0.264416054482981     
  0.268665739427020       0.275061697114287       0.283837101995113     
  0.295349125547286       0.309691102694581       0.326431999451640     
  0.344564541351970       0.362668116553867       0.379335425568377     
  0.393581923631794       0.404982934476713       0.413663127731271     
  0.420009633097811       0.424513951957360       0.427622003611672     
  0.273416799352609       0.275070279110376       0.279319964054410     
  0.285715921741685       0.294491326622508       0.306003350174674     
  0.320345327321978       0.337086224079031       0.355218765979347     
  0.373322341181257       0.389989650195768       0.404236148259182     
  0.415637159104103       0.424317352358658       0.430663857725204     
  0.435168176584754       0.438276228239063       0.281381005505330     
  0.283034485263093       0.287284170207130       0.293680127894403     
  0.302455532775222       0.313967556327396       0.328309533474697     
  0.345050430231751       0.363182972132076       0.381286547333980     
  0.397953856348480       0.412200354411905       0.423601365256823     
  0.432281558511382       0.438628063877917       0.443132382737470     
  0.446240434391778       0.287189582847478       0.288843062605236     
  0.293092747549279       0.299488705236549       0.308264110117362     
  0.319776133669542       0.334118110816846       0.350859007573895     
  0.368991549474222       0.387095124676123       0.403762433690633     
  0.418008931754051       0.429409942598968       0.438090135853530     
  0.444436641220067       0.448940960079620       0.452049011733923     
  0.291350347286993       0.293003827044748       0.297253511988790     
  0.303649469676065       0.312424874556883       0.323936898109057     
  0.338278875256358       0.355019772013403       0.373152313913740     
  0.391255889115636       0.407923198130146       0.422169696193567     
  0.433570707038481       0.442250900293032       0.448597405659583     
  0.453101724519139       0.456209776173445       0.294292422124880     
  0.295945901882643       0.300195586826680       0.306591544513948     
  0.315366949394780       0.326878972946943       0.341220950094250     
  0.357961846851300       0.376094388751625       0.394197963953528     
  0.410865272968031       0.425111771031446       0.436512781876373     
  0.445192975130929       0.451539480497470       0.456043799357023     
  0.459151851011331     
  0.000000000000000E+000 -2.059343134687265E-004 -5.967154644315922E-004
 -1.288783171780619E-003 -2.918895425121374E-003 -5.573396522451829E-003
 -9.167771110016921E-003 -1.357217217812317E-002 -1.838427778900438E-002
 -2.320014315178548E-002 -2.763890288787426E-002 -3.143970394449276E-002
 -3.447539076661003E-002 -3.679168976136481E-002 -3.848528426515805E-002
 -3.968682183911389E-002 -4.051708164825068E-002  0.000000000000000E+000
 -2.059343134687265E-004 -5.967154644315922E-004 -1.288783171780619E-003
 -2.918895425121374E-003 -5.573396522451829E-003 -9.167771110016921E-003
 -1.357217217812317E-002 -1.838427778900438E-002 -2.320014315178548E-002
 -2.763890288787426E-002 -3.143970394449276E-002 -3.447539076661003E-002
 -3.679168976136481E-002 -3.848528426515805E-002 -3.968682183911389E-002
 -4.051708164825068E-002  0.000000000000000E+000 -2.059343134687265E-004
 -5.967154644315922E-004 -1.288783171780619E-003 -2.918895425121374E-003
 -5.573396522451829E-003 -9.167771110016921E-003 -1.357217217812317E-002
 -1.838427778900438E-002 -2.320014315178548E-002 -2.763890288787426E-002
 -3.143970394449276E-002 -3.447539076661003E-002 -3.679168976136481E-002
 -3.848528426515805E-002 -3.968682183911389E-002 -4.051708164825068E-002
  0.000000000000000E+000 -2.059343134687265E-004 -5.967154644315922E-004
 -1.288783171780619E-003 -2.918895425121374E-003 -5.573396522451829E-003
 -9.167771110016921E-003 -1.357217217812317E-002 -1.838427778900438E-002
 -2.320014315178548E-002 -2.763890288787426E-002 -3.143970394449276E-002
 -3.447539076661003E-002 -3.679168976136481E-002 -3.848528426515805E-002
 -3.968682183911389E-002 -4.051708164825068E-002  0.000000000000000E+000
 -2.059343134687265E-004 -5.967154644315922E-004 -1.288783171780619E-003
 -2.918895425121374E-003 -5.573396522451829E-003 -9.167771110016921E-003
 -1.357217217812317E-002 -1.838427778900438E-002 -2.320014315178548E-002
 -2.763890288787426E-002 -3.143970394449276E-002 -3.447539076661003E-002
 -3.679168976136481E-002 -3.848528426515805E-002 -3.968682183911389E-002
 -4.051708164825068E-002  0.000000000000000E+000 -2.059343134687265E-004
 -5.967154644315922E-004 -1.288783171780619E-003 -2.918895425121374E-003
 -5.573396522451829E-003 -9.167771110016921E-003 -1.357217217812317E-002
 -1.838427778900438E-002 -2.320014315178548E-002 -2.763890288787426E-002
 -3.143970394449276E-002 -3.447539076661003E-002 -3.679168976136481E-002
 -3.848528426515805E-002 -3.968682183911389E-002 -4.051708164825068E-002
  0.000000000000000E+000 -2.059343134687265E-004 -5.967154644315922E-004
 -1.288783171780619E-003 -2.918895425121374E-003 -5.573396522451829E-003
 -9.167771110016921E-003 -1.357217217812317E-002 -1.838427778900438E-002
 -2.320014315178548E-002 -2.763890288787426E-002 -3.143970394449276E-002
 -3.447539076661003E-002 -3.679168976136481E-002 -3.848528426515805E-002
 -3.968682183911389E-002 -4.051708164825068E-002  0.000000000000000E+000
 -2.059343134687265E-004 -5.967154644315922E-004 -1.288783171780619E-003
 -2.918895425121374E-003 -5.573396522451829E-003 -9.167771110016921E-003
 -1.357217217812317E-002 -1.838427778900438E-002 -2.320014315178548E-002
 -2.763890288787426E-002 -3.143970394449276E-002 -3.447539076661003E-002
 -3.679168976136481E-002 -3.848528426515805E-002 -3.968682183911389E-002
 -4.051708164825068E-002  0.000000000000000E+000 -2.059343134687265E-004
 -5.967154644315922E-004 -1.288783171780619E-003 -2.918895425121374E-003
 -5.573396522451829E-003 -9.167771110016921E-003 -1.357217217812317E-002
 -1.838427778900438E-002 -2.320014315178548E-002 -2.763890288787426E-002
 -3.143970394449276E-002 -3.447539076661003E-002 -3.679168976136481E-002
 -3.848528426515805E-002 -3.968682183911389E-002 -4.051708164825068E-002
  0.000000000000000E+000 -2.059343134687265E-004 -5.967154644315922E-004
 -1.288783171780619E-003 -2.918895425121374E-003 -5.573396522451829E-003
 -9.167771110016921E-003 -1.357217217812317E-002 -1.838427778900438E-002
 -2.320014315178548E-002 -2.763890288787426E-002 -3.143970394449276E-002
 -3.447539076661003E-002 -3.679168976136481E-002 -3.848528426515805E-002
 -3.968682183911389E-002 -4.051708164825068E-002  0.000000000000000E+000
 -2.059343134687265E-004 -5.967154644315922E-004 -1.288783171780619E-003
 -2.918895425121374E-003 -5.573396522451829E-003 -9.167771110016921E-003
 -1.357217217812317E-002 -1.838427778900438E-002 -2.320014315178548E-002
 -2.763890288787426E-002 -3.143970394449276E-002 -3.447539076661003E-002
 -3.679168976136481E-002 -3.848528426515805E-002 -3.968682183911389E-002
 -4.051708164825068E-002  0.000000000000000E+000 -2.059343134687265E-004
 -5.967154644315922E-004 -1.288783171780619E-003 -2.918895425121374E-003
 -5.573396522451829E-003 -9.167771110016921E-003 -1.357217217812317E-002
 -1.838427778900438E-002 -2.320014315178548E-002 -2.763890288787426E-002
 -3.143970394449276E-002 -3.447539076661003E-002 -3.679168976136481E-002
 -3.848528426515805E-002 -3.968682183911389E-002 -4.051708164825068E-002
  0.000000000000000E+000 -2.059343134687265E-004 -5.967154644315922E-004
 -1.288783171780619E-003 -2.918895425121374E-003 -5.573396522451829E-003
 -9.167771110016921E-003 -1.357217217812317E-002 -1.838427778900438E-002
 -2.320014315178548E-002 -2.763890288787426E-002 -3.143970394449276E-002
 -3.447539076661003E-002 -3.679168976136481E-002 -3.848528426515805E-002
 -3.968682183911389E-002 -4.051708164825068E-002  0.000000000000000E+000
 -2.059343134687265E-004 -5.967154644315922E-004 -1.288783171780619E-003
 -2.918895425121374E-003 -5.573396522451829E-003 -9.167771110016921E-003
 -1.357217217812317E-002 -1.838427778900438E-002 -2.320014315178548E-002
 -2.763890288787426E-002 -3.143970394449276E-002 -3.447539076661003E-002
 -3.679168976136481E-002 -3.848528426515805E-002 -3.968682183911389E-002
 -4.051708164825068E-002  0.000000000000000E+000 -2.059343134687265E-004
 -5.967154644315922E-004 -1.288783171780619E-003 -2.918895425121374E-003
 -5.573396522451829E-003 -9.167771110016921E-003 -1.357217217812317E-002
 -1.838427778900438E-002 -2.320014315178548E-002 -2.763890288787426E-002
 -3.143970394449276E-002 -3.447539076661003E-002 -3.679168976136481E-002
 -3.848528426515805E-002 -3.968682183911389E-002 -4.051708164825068E-002
  0.000000000000000E+000 -2.059343134687265E-004 -5.967154644315922E-004
 -1.288783171780619E-003 -2.918895425121374E-003 -5.573396522451829E-003
 -9.167771110016921E-003 -1.357217217812317E-002 -1.838427778900438E-002
 -2.320014315178548E-002 -2.763890288787426E-002 -3.143970394449276E-002
 -3.447539076661003E-002 -3.679168976136481E-002 -3.848528426515805E-002
 -3.968682183911389E-002 -4.051708164825068E-002  0.000000000000000E+000
 -2.059343134687265E-004 -5.967154644315922E-004 -1.288783171780619E-003
 -2.918895425121374E-003 -5.573396522451829E-003 -9.167771110016921E-003
 -1.357217217812317E-002 -1.838427778900438E-002 -2.320014315178548E-002
 -2.763890288787426E-002 -3.143970394449276E-002 -3.447539076661003E-002
 -3.679168976136481E-002 -3.848528426515805E-002 -3.968682183911389E-002
 -4.051708164825068E-002  0.000000000000000E+000 -2.059343134687265E-004
 -5.967154644315922E-004 -1.288783171780619E-003 -2.918895425121374E-003
 -5.573396522451829E-003 -9.167771110016921E-003 -1.357217217812317E-002
 -1.838427778900438E-002 -2.320014315178548E-002 -2.763890288787426E-002
 -3.143970394449276E-002 -3.447539076661003E-002 -3.679168976136481E-002
 -3.848528426515805E-002 -3.968682183911389E-002 -4.051708164825068E-002
  0.000000000000000E+000 -2.059343134687265E-004 -5.967154644315922E-004
 -1.288783171780619E-003 -2.918895425121374E-003 -5.573396522451829E-003
 -9.167771110016921E-003 -1.357217217812317E-002 -1.838427778900438E-002
 -2.320014315178548E-002 -2.763890288787426E-002 -3.143970394449276E-002
 -3.447539076661003E-002 -3.679168976136481E-002 -3.848528426515805E-002
 -3.968682183911389E-002 -4.051708164825068E-002  0.000000000000000E+000
 -2.059343134687265E-004 -5.967154644315922E-004 -1.288783171780619E-003
 -2.918895425121374E-003 -5.573396522451829E-003 -9.167771110016921E-003
 -1.357217217812317E-002 -1.838427778900438E-002 -2.320014315178548E-002
 -2.763890288787426E-002 -3.143970394449276E-002 -3.447539076661003E-002
 -3.679168976136481E-002 -3.848528426515805E-002 -3.968682183911389E-002
 -4.051708164825068E-002
 -0.136348331364690      -0.265687657080571      -0.321653384381352     
 -0.287142820626538      -0.237271688490572      -0.197451037622937     
 -0.166460929062522      -0.153194292251032      -0.150264723205853     
 -0.154666667734536      -0.163779005284258      -0.175926571351763     
 -0.187062835715468      -0.196880946947143      -0.204411854701018     
 -0.209091459723725      -0.162946659426102      -0.326243270009664     
 -0.409816680319034      -0.380892876332322      -0.317937956047161     
 -0.259202661657224      -0.210749851553766      -0.187057476836258     
 -0.179859272164805      -0.184877211763753      -0.198096108759689     
 -0.216449279320554      -0.234200289270237      -0.250064791116290     
 -0.262001527753723      -0.268753254779718      -0.166086882499563     
 -0.334755428056423      -0.423379017791234      -0.393682883003788     
 -0.321736079870222      -0.247577464506123      -0.182352986454712     
 -0.145801030902743      -0.131021413499631      -0.133318956365289     
 -0.147423647019036      -0.168595044535673      -0.189242671349521     
 -0.206919373683005      -0.219406723068283      -0.226008397296723     
 -0.151159299965295      -0.304932343689297      -0.379147644253885     
 -0.331965076722412      -0.240271429591750      -0.144302002820287     
 -5.682948131567531E-002 -1.331483818881759E-003  2.731105523567351E-002
  3.374899218821147E-002  2.456617297218243E-002  6.286147682463370E-003
 -1.206541186783772E-002 -2.777612244861861E-002 -3.876225773707570E-002
 -4.442401905896378E-002 -0.115746766954760      -0.232317946603664     
 -0.270332898582283      -0.183296363934115      -5.103328059833998E-002
  8.426051696038472E-002  0.208547382844444       0.295680148133081     
  0.349723268445963       0.375365884455614       0.380331267675601     
  0.372341287777115       0.361318045039084       0.350410992429011     
  0.342357585010718       0.338220019448385      -5.441484487112427E-002
 -0.105793256983303      -8.036257538414876E-002  7.530731904949296E-002
  0.277315348601851       0.479736727873814       0.665974861426538     
  0.806534361663519       0.904641790112593       0.964985230032401     
  0.996066601608756        1.00655750630331        1.00787846515844     
   1.00465276607044        1.00106886615907       0.999078087847113     
  3.888910329630550E-002  8.714282056403416E-002  0.209364665567270     
  0.468877726989275       0.776976009033682        1.08248531363606     
   1.36456184890682        1.58847832316120        1.75567640597009     
   1.87027992127980        1.94152816344041        1.97973452597772     
   1.99916631607605        2.00702132109302        2.00966732387767     
   2.01051517972002       0.167225597106102       0.352795039689956     
  0.608106280423345        1.00955537699931        1.46310140821594     
   1.91090036838090        2.32610417347487        2.66649826060905     
   2.93028337210416        3.12030255438189        3.24682389618340     
   3.32284646194368        3.36681085496273        3.38947209374168     
   3.40022079876827        3.40464642189507       0.325777007090248     
  0.681116142721221        1.10064023191280        1.67649366775918     
   2.30891155336827        2.93221456479189        3.51210865586292     
   3.99706360279603        4.38087946199090        4.66459916218381     
   4.85978260107790        4.98282740258132        5.05723688643775     
   5.09811188328943        5.11868049737875        5.12737729767140     
  0.498275788622927        1.03830464383683        1.63630286679651     
   2.40141179453545        3.22784130465901        4.04152332488288     
   4.80019027571553        5.44239321910787        5.95725818892404     
   6.34386243262701        6.61500058905158        6.79047023072503     
   6.89898822393178        6.96027892486734        6.99182492534763     
   7.00527976518295       0.658824076692181        1.37056181863613     
   2.13459099875307        3.07611741491635        4.08300030130814     
   5.07310529922405        5.99707481535600        6.78481076696316     
   7.42186927476367        7.90574650305132        8.24999580801093     
   8.47687921821352        8.61942204662682        8.70136182182873     
   8.74412414736992        8.76247358462011       0.780576095023974     
   1.62205111475813        2.51180989568444        3.58787378133745     
   4.73125719715969        5.85286815681700        6.89857781898915     
   7.79299437240156        8.52096749524460        9.07970488095653     
   9.48275206067924        9.75285677117650        9.92520277165131     
   10.0258872042229        10.0791286916381        10.1021458306256     
  0.846571186137874        1.75734713382990        2.71444752629461     
   3.86378499329722        5.07875554818375        6.26470086453291     
   7.36585491238521        8.30650440351921        9.07548676840611     
   9.67244977535562        10.1104262157742        10.4098139514235     