 Title = "Wing and Wake"
 VARIABLES = "X" "Y" "Z" "GAM" "skew"
 Zone I=   17 J=   20 K=1  T="Blade 01"
 DATAPACKING=BLOCK
 VARLOCATION=([4]=CELLCENTERED,[5]=CELLCENTERED)
 -0.221663389895093      -0.222945346372703      -0.226247273857760     
 -0.231211479631011      -0.237987540569035      -0.246850225223244     
 -0.257876833540094      -0.270737092178086      -0.284664269726172     
 -0.298568610849392      -0.311369581437884      -0.322310953790685     
 -0.331067286214964      -0.337733685419691      -0.342607807512599     
 -0.346067152300404      -0.348454094645649      -0.227471095821218     
 -0.228753052298829      -0.232054979783887      -0.237019185557136     
 -0.243795246495159      -0.252657931149367      -0.263684539466222     
 -0.276544798104208      -0.290471975652300      -0.304376316775517     
 -0.317177287364011      -0.328118659716813      -0.336874992141092     
 -0.343541391345821      -0.348415513438719      -0.351874858226530     
 -0.354261800571775      -0.235684515813593      -0.236966472291203     
 -0.240268399776261      -0.245232605549510      -0.252008666487535     
 -0.260871351141738      -0.271897959458596      -0.284758218096583     
 -0.298685395644674      -0.312589736767893      -0.325390707356386     
 -0.336332079709186      -0.345088412133465      -0.351754811338191     
 -0.356628933431097      -0.360088278218905      -0.362475220564151     
 -0.247150746589876      -0.248432703067488      -0.251734630552546     
 -0.256698836325794      -0.263474897263818      -0.272337581918026     
 -0.283364190234881      -0.296224448872868      -0.310151626420958     
 -0.324055967544172      -0.336856938132670      -0.347798310485472     
 -0.356554642909749      -0.363221042114479      -0.368095164207381     
 -0.371554508995188      -0.373941451340434      -0.262872225416436     
 -0.264154181894050      -0.267456109379106      -0.272420315152354     
 -0.279196376090380      -0.288059060744587      -0.299085669061439     
 -0.311945927699428      -0.325873105247519      -0.339777446370735     
 -0.352578416959228      -0.363519789312027      -0.372276121736310     
 -0.378942520941039      -0.383816643033941      -0.387275987821749     
 -0.389662930166994      -0.283903846607674      -0.285185803085285     
 -0.288487730570341      -0.293451936343592      -0.300227997281614     
 -0.309090681935825      -0.320117290252672      -0.332977548890664     
 -0.346904726438754      -0.360809067561971      -0.373610038150468     
 -0.384551410503268      -0.393307742927546      -0.399974142132271     
 -0.404848264225178      -0.408307609012986      -0.410694551358230     
 -0.311131152820975      -0.312413109298582      -0.315715036783636     
 -0.320679242556889      -0.327455303494914      -0.336317988149122     
 -0.347344596465973      -0.360204855103963      -0.374132032652052     
 -0.388036373775268      -0.400837344363762      -0.411778716716565     
 -0.420535049140845      -0.427201448345573      -0.432075570438478     
 -0.435534915226282      -0.437921857571530      -0.344920598840942     
 -0.346202555318556      -0.349504482803612      -0.354468688576860     
 -0.361244749514888      -0.370107434169094      -0.381134042485939     
 -0.393994301123934      -0.407921478672024      -0.421825819795240     
 -0.434626790383735      -0.445568162736535      -0.454324495160817     
 -0.460990894365544      -0.465865016458447      -0.469324361246255     
 -0.471711303591501      -0.384721419506452      -0.386003375984065     
 -0.389305303469121      -0.394269509242369      -0.401045570180391     
 -0.409908254834600      -0.420934863151453      -0.433795121789443     
 -0.447722299337533      -0.461626640460748      -0.474427611049245     
 -0.485368983402046      -0.494125315826326      -0.500791715031052     
 -0.505665837123956      -0.509125181911767      -0.511512124257003     
 -0.428820063039288      -0.430102019516899      -0.433403947001958     
 -0.438368152775203      -0.445144213713222      -0.454006898367435     
 -0.465033506684292      -0.477893765322279      -0.491820942870365     
 -0.505725283993577      -0.518526254582080      -0.529467626934879     
 -0.538223959359160      -0.544890358563889      -0.549764480656795     
 -0.553223825444597      -0.555610767789842      -0.474487341524723     
 -0.475769298002335      -0.479071225487392      -0.484035431260639     
 -0.490811492198661      -0.499674176852871      -0.510700785169728     
 -0.523561043807715      -0.537488221355798      -0.551392562479022     
 -0.564193533067511      -0.575134905420319      -0.583891237844594     
 -0.590557637049326      -0.595431759142228      -0.598891103930032     
 -0.601278046275278      -0.518585985057559      -0.519867941535172     
 -0.523169869020226      -0.528134074793474      -0.534910135731499     
 -0.543772820385705      -0.554799428702562      -0.567659687340549     
 -0.581586864888642      -0.595491206011858      -0.608292176600352     
 -0.619233548953152      -0.627989881377431      -0.634656280582160     
 -0.639530402675065      -0.642989747462872      -0.645376689808118     
 -0.558386805723068      -0.559668762200680      -0.562970689685734     
 -0.567934895458986      -0.574710956397012      -0.583573641051219     
 -0.594600249368071      -0.607460508006059      -0.621387685554149     
 -0.635292026677365      -0.648092997265860      -0.659034369618659     
 -0.667790702042939      -0.674457101247672      -0.679331223340572     
 -0.682790568128376      -0.685177510473628      -0.592176251743039     
 -0.593458208220650      -0.596760135705705      -0.601724341478956     
 -0.608500402416980      -0.617363087071188      -0.628389695388044     
 -0.641249954026032      -0.655177131574121      -0.669081472697337     
 -0.681882443285831      -0.692823815638632      -0.701580148062910     
 -0.708246547267643      -0.713120669360546      -0.716580014148348     
 -0.718966956493592      -0.619403557956337      -0.620685514433947     
 -0.623987441919006      -0.628951647692252      -0.635727708630276     
 -0.644590393284488      -0.655617001601336      -0.668477260239326     
 -0.682404437787421      -0.696308778910633      -0.709109749499129     
 -0.720051121851929      -0.728807454276210      -0.735473853480941     
 -0.740347975573842      -0.743807320361648      -0.746194262706892     
 -0.640435179147575      -0.641717135625182      -0.645019063110244     
 -0.649983268883489      -0.656759329821514      -0.665622014475730     
 -0.676648622792579      -0.689508881430557      -0.703436058978649     
 -0.717340400101865      -0.730141370690366      -0.741082743043159     
 -0.749839075467440      -0.756505474672171      -0.761379596765075     
 -0.764838941552887      -0.767225883898134      -0.656156657974135     
 -0.657438614451740      -0.660740541936801      -0.665704747710049     
 -0.672480808648074      -0.681343493302283      -0.692370101619137     
 -0.705230360257124      -0.719157537805218      -0.733061878928431     
 -0.745862849516923      -0.756804221869723      -0.765560554293997     
 -0.772226953498730      -0.777101075591638      -0.780560420379442     
 -0.782947362724692      -0.667622888750416      -0.668904845228034     
 -0.672206772713085      -0.677170978486328      -0.683947039424362     
 -0.692809724078557      -0.703836332395419      -0.716696591033405     
 -0.730623768581500      -0.744528109704714      -0.757329080293209     
 -0.768270452646010      -0.777026785070292      -0.783693184275023     
 -0.788567306367923      -0.792026651155729      -0.794413593500972     
 -0.675836308742793      -0.677118265220405      -0.680420192705465     
 -0.685384398478711      -0.692160459416737      -0.701023144070946     
 -0.712049752387795      -0.724910011025785      -0.738837188573872     
 -0.752741529697087      -0.765542500285583      -0.776483872638373     
 -0.785240205062662      -0.791906604267387      -0.796780726360296     
 -0.800240071148108      -0.802627013493352      -0.681644014668922     
 -0.682925971146529      -0.686227898631586      -0.691192104404836     
 -0.697968165342859      -0.706830849997061      -0.717857458313912     
 -0.730717716951905      -0.744644894499989      -0.758549235623211     
 -0.771350206211713      -0.782291578564508      -0.791047910988787     
 -0.797714310193518      -0.802588432286422      -0.806047777074231     
 -0.808434719419475     
 -0.374115123339686      -0.372936338750409      -0.369900150469242     
 -0.365335464096731      -0.359104740706947      -0.350955325128141     
 -0.340816138515415      -0.328990873803767      -0.316184555841715     
 -0.303399236428510      -0.291628488262697      -0.281567677821573     
 -0.273516055242659      -0.267386168007220      -0.262904315378284     
 -0.259723378742699      -0.257528537575152      -0.380431142652959     
 -0.379252358063685      -0.376216169782518      -0.371651483410005     
 -0.365420760020220      -0.357271344441414      -0.347132157828691     
 -0.335306893117040      -0.322500575154989      -0.309715255741784     
 -0.297944507575970      -0.287883697134849      -0.279832074555933     
 -0.273702187320494      -0.269220334691556      -0.266039398055973     
 -0.263844556888424      -0.389363433640096      -0.388184649050820     
 -0.385148460769651      -0.380583774397141      -0.374353051007355     
 -0.366203635428549      -0.356064448815827      -0.344239184104175     
 -0.331432866142125      -0.318647546728918      -0.306876798563106     
 -0.296815988121985      -0.288764365543070      -0.282634478307629     
 -0.278152625678693      -0.274971689043107      -0.272776847875561     
 -0.401833234273023      -0.400654449683747      -0.397618261402580     
 -0.393053575030069      -0.386822851640285      -0.378673436061478     
 -0.368534249448756      -0.356708984737107      -0.343902666775055     
 -0.331117347361846      -0.319346599196035      -0.309285788754912     
 -0.301234166175998      -0.295104278940558      -0.290622426311619     
 -0.287441489676035      -0.285246648508488      -0.418930719091444     
 -0.417751934502168      -0.414715746221000      -0.410151059848488     
 -0.403920336458702      -0.395770920879899      -0.385631734267172     
 -0.373806469555524      -0.361000151593473      -0.348214832180265     
 -0.336444084014452      -0.326383273573330      -0.318331650994416     
 -0.312201763758977      -0.307719911130041      -0.304538974494455     
 -0.302344133326907      -0.441803110931354      -0.440624326342078     
 -0.437588138060907      -0.433023451688398      -0.426792728298610     
 -0.418643312719806      -0.408504126107081      -0.396678861395431     
 -0.383872543433380      -0.371087224020174      -0.359316475854364     
 -0.349255665413240      -0.341204042834325      -0.335074155598884     
 -0.330592302969947      -0.327411366334363      -0.325216525166816     
 -0.471413458645072      -0.470234674055796      -0.467198485774625     
 -0.462633799402115      -0.456403076012332      -0.448253660433525     
 -0.438114473820798      -0.426289209109152      -0.413482891147101     
 -0.400697571733891      -0.388926823568078      -0.378866013126960     
 -0.370814390548045      -0.364684503312604      -0.360202650683669     
 -0.357021714048083      -0.354826872880534      -0.508160290588975     
 -0.506981505999701      -0.503945317718529      -0.499380631346021     
 -0.493149907956238      -0.485000492377430      -0.474861305764704     
 -0.463036041053059      -0.450229723090999      -0.437444403677796     
 -0.425673655511985      -0.415612845070863      -0.407561222491950     
 -0.401431335256505      -0.396949482627572      -0.393768545991987     
 -0.391573704824440      -0.551444636457220      -0.550265851867949     
 -0.547229663586780      -0.542664977214269      -0.536434253824483     
 -0.528284838245676      -0.518145651632949      -0.506320386921302     
 -0.493514068959249      -0.480728749546046      -0.468958001380235     
 -0.458897190939110      -0.450845568360197      -0.444715681124754     
 -0.440233828495816      -0.437052891860238      -0.434858050692686     
 -0.599402967644349      -0.598224183055074      -0.595187994773904     
 -0.590623308401392      -0.584392585011606      -0.576243169432798     
 -0.566103982820079      -0.554278718108424      -0.541472400146373     
 -0.528687080733168      -0.516916332567357      -0.506855522126231     
 -0.498803899547320      -0.492674012311878      -0.488192159682945     
 -0.485011223047358      -0.482816381879814      -0.649067226917729     
 -0.647888442328453      -0.644852254047284      -0.640287567674776     
 -0.634056844284988      -0.625907428706186      -0.615768242093458     
 -0.603942977381815      -0.591136659419756      -0.578351340006551     
 -0.566580591840738      -0.556519781399616      -0.548468158820700     
 -0.542338271585264      -0.537856418956322      -0.534675482320738     
 -0.532480641153191      -0.697025558104856      -0.695846773515582     
 -0.692810585234411      -0.688245898861901      -0.682015175472111     
 -0.673865759893303      -0.663726573280583      -0.651901308568931     
 -0.639094990606884      -0.626309671193676      -0.614538923027863     
 -0.604478112586742      -0.596426490007827      -0.590296602772391     
 -0.585814750143453      -0.582633813507866      -0.580438972340320     
 -0.740309903973101      -0.739131119383825      -0.736094931102656     
 -0.731530244730149      -0.725299521340360      -0.717150105761554     
 -0.707010919148833      -0.695185654437186      -0.682379336475133     
 -0.669594017061928      -0.657823268896110      -0.647762458454989     
 -0.639710835876076      -0.633580948640635      -0.629099096011698     
 -0.625918159376111      -0.623723318208571      -0.777056735917007     
 -0.775877951327732      -0.772841763046560      -0.768277076674053     
 -0.762046353284268      -0.753896937705460      -0.743757751092738     
 -0.731932486381088      -0.719126168419035      -0.706340849005827     
 -0.694570100840017      -0.684509290398893      -0.676457667819979     
 -0.670327780584543      -0.665845927955599      -0.662664991320014     
 -0.660470150152466      -0.806667083630723      -0.805488299041450     
 -0.802452110760283      -0.797887424387769      -0.791656700997981     
 -0.783507285419178      -0.773368098806452      -0.761542834094807     
 -0.748736516132757      -0.735951196719547      -0.724180448553734     
 -0.714119638112615      -0.706068015533700      -0.699938128298258     
 -0.695456275669322      -0.692275339033739      -0.690080497866187     
 -0.829539475470634      -0.828360690881358      -0.825324502600190     
 -0.820759816227679      -0.814529092837895      -0.806379677259092     
 -0.796240490646366      -0.784415225934710      -0.771608907972661     
 -0.758823588559450      -0.747052840393644      -0.736992029952518     
 -0.728940407373606      -0.722810520138160      -0.718328667509228     
 -0.715147730873646      -0.712952889706103      -0.846636960289053     
 -0.845458175699772      -0.842421987418609      -0.837857301046098     
 -0.831626577656311      -0.823477162077509      -0.813337975464783     
 -0.801512710753134      -0.788706392791083      -0.775921073377875     
 -0.764150325212060      -0.754089514770936      -0.746037892192023     
 -0.739908004956583      -0.735426152327648      -0.732245215692060     
 -0.730050374524516      -0.859106760921980      -0.857927976332708     
 -0.854891788051536      -0.850327101679022      -0.844096378289244     
 -0.835946962710432      -0.825807776097714      -0.813982511386059     
 -0.801176193424011      -0.788390874010800      -0.776620125844988     
 -0.766559315403871      -0.758507692824960      -0.752377805589518     
 -0.747895952960576      -0.744715016324996      -0.742520175157441     
 -0.868039051909116      -0.866860267319843      -0.863824079038676     
 -0.859259392666157      -0.853028669276379      -0.844879253697577     
 -0.834740067084848      -0.822914802373193      -0.810108484411143     
 -0.797323164997935      -0.785552416832126      -0.775491606391003     
 -0.767439983812088      -0.761310096576650      -0.756828243947712     
 -0.753647307312130      -0.751452466144580      -0.874355071222392     
 -0.873176286633115      -0.870140098351943      -0.865575411979433     
 -0.859344688589649      -0.851195273010841      -0.841056086398117     
 -0.829230821686469      -0.816424503724415      -0.803639184311213     
 -0.791868436145403      -0.781807625704278      -0.773756003125360     
 -0.767626115889923      -0.763144263260988      -0.759963326625405     
 -0.757768485457854     
  0.000000000000000E+000 -3.282172018590466E-004 -1.033620650049141E-003
 -2.198955220658941E-003 -4.476742922393904E-003 -7.979640656267073E-003
 -1.263026983295655E-002 -1.826709190868895E-002 -2.441396652989334E-002
 -3.056244072773302E-002 -3.622807327755116E-002 -4.107753596790794E-002
 -4.495244726653555E-002 -4.790767994332594E-002 -5.006842939802218E-002
 -5.160152297946802E-002 -5.266055883330620E-002  0.000000000000000E+000
 -3.282172018590466E-004 -1.033620650049141E-003 -2.198955220658941E-003
 -4.476742922393904E-003 -7.979640656267073E-003 -1.263026983295655E-002
 -1.826709190868895E-002 -2.441396652989334E-002 -3.056244072773302E-002
 -3.622807327755116E-002 -4.107753596790794E-002 -4.495244726653555E-002
 -4.790767994332594E-002 -5.006842939802218E-002 -5.160152297946802E-002
 -5.266055883330620E-002  0.000000000000000E+000 -3.282172018590466E-004
 -1.033620650049141E-003 -2.198955220658941E-003 -4.476742922393904E-003
 -7.979640656267073E-003 -1.263026983295655E-002 -1.826709190868895E-002
 -2.441396652989334E-002 -3.056244072773302E-002 -3.622807327755116E-002
 -4.107753596790794E-002 -4.495244726653555E-002 -4.790767994332594E-002
 -5.006842939802218E-002 -5.160152297946802E-002 -5.266055883330620E-002
  0.000000000000000E+000 -3.282172018590466E-004 -1.033620650049141E-003
 -2.198955220658941E-003 -4.476742922393904E-003 -7.979640656267073E-003
 -1.263026983295655E-002 -1.826709190868895E-002 -2.441396652989334E-002
 -3.056244072773302E-002 -3.622807327755116E-002 -4.107753596790794E-002
 -4.495244726653555E-002 -4.790767994332594E-002 -5.006842939802218E-002
 -5.160152297946802E-002 -5.266055883330620E-002  0.000000000000000E+000
 -3.282172018590466E-004 -1.033620650049141E-003 -2.198955220658941E-003
 -4.476742922393904E-003 -7.979640656267073E-003 -1.263026983295655E-002
 -1.826709190868895E-002 -2.441396652989334E-002 -3.056244072773302E-002
 -3.622807327755116E-002 -4.107753596790794E-002 -4.495244726653555E-002
 -4.790767994332594E-002 -5.006842939802218E-002 -5.160152297946802E-002
 -5.266055883330620E-002  0.000000000000000E+000 -3.282172018590466E-004
 -1.033620650049141E-003 -2.198955220658941E-003 -4.476742922393904E-003
 -7.979640656267073E-003 -1.263026983295655E-002 -1.826709190868895E-002
 -2.441396652989334E-002 -3.056244072773302E-002 -3.622807327755116E-002
 -4.107753596790794E-002 -4.495244726653555E-002 -4.790767994332594E-002
 -5.006842939802218E-002 -5.160152297946802E-002 -5.266055883330620E-002
  0.000000000000000E+000 -3.282172018590466E-004 -1.033620650049141E-003
 -2.198955220658941E-003 -4.476742922393904E-003 -7.979640656267073E-003
 -1.263026983295655E-002 -1.826709190868895E-002 -2.441396652989334E-002
 -3.056244072773302E-002 -3.622807327755116E-002 -4.107753596790794E-002
 -4.495244726653555E-002 -4.790767994332594E-002 -5.006842939802218E-002
 -5.160152297946802E-002 -5.266055883330620E-002  0.000000000000000E+000
 -3.282172018590466E-004 -1.033620650049141E-003 -2.198955220658941E-003
 -4.476742922393904E-003 -7.979640656267073E-003 -1.263026983295655E-002
 -1.826709190868895E-002 -2.441396652989334E-002 -3.056244072773302E-002
 -3.622807327755116E-002 -4.107753596790794E-002 -4.495244726653555E-002
 -4.790767994332594E-002 -5.006842939802218E-002 -5.160152297946802E-002
 -5.266055883330620E-002  0.000000000000000E+000 -3.282172018590466E-004
 -1.033620650049141E-003 -2.198955220658941E-003 -4.476742922393904E-003
 -7.979640656267073E-003 -1.263026983295655E-002 -1.826709190868895E-002
 -2.441396652989334E-002 -3.056244072773302E-002 -3.622807327755116E-002
 -4.107753596790794E-002 -4.495244726653555E-002 -4.790767994332594E-002
 -5.006842939802218E-002 -5.160152297946802E-002 -5.266055883330620E-002
  0.000000000000000E+000 -3.282172018590466E-004 -1.033620650049141E-003
 -2.198955220658941E-003 -4.476742922393904E-003 -7.979640656267073E-003
 -1.263026983295655E-002 -1.826709190868895E-002 -2.441396652989334E-002
 -3.056244072773302E-002 -3.622807327755116E-002 -4.107753596790794E-002
 -4.495244726653555E-002 -4.790767994332594E-002 -5.006842939802218E-002
 -5.160152297946802E-002 -5.266055883330620E-002  0.000000000000000E+000
 -3.282172018590466E-004 -1.033620650049141E-003 -2.198955220658941E-003
 -4.476742922393904E-003 -7.979640656267073E-003 -1.263026983295655E-002
 -1.826709190868895E-002 -2.441396652989334E-002 -3.056244072773302E-002
 -3.622807327755116E-002 -4.107753596790794E-002 -4.495244726653555E-002
 -4.790767994332594E-002 -5.006842939802218E-002 -5.160152297946802E-002
 -5.266055883330620E-002  0.000000000000000E+000 -3.282172018590466E-004
 -1.033620650049141E-003 -2.198955220658941E-003 -4.476742922393904E-003
 -7.979640656267073E-003 -1.263026983295655E-002 -1.826709190868895E-002
 -2.441396652989334E-002 -3.056244072773302E-002 -3.622807327755116E-002
 -4.107753596790794E-002 -4.495244726653555E-002 -4.790767994332594E-002
 -5.006842939802218E-002 -5.160152297946802E-002 -5.266055883330620E-002
  0.000000000000000E+000 -3.282172018590466E-004 -1.033620650049141E-003
 -2.198955220658941E-003 -4.476742922393904E-003 -7.979640656267073E-003
 -1.263026983295655E-002 -1.826709190868895E-002 -2.441396652989334E-002
 -3.056244072773302E-002 -3.622807327755116E-002 -4.107753596790794E-002
 -4.495244726653555E-002 -4.790767994332594E-002 -5.006842939802218E-002
 -5.160152297946802E-002 -5.266055883330620E-002  0.000000000000000E+000
 -3.282172018590466E-004 -1.033620650049141E-003 -2.198955220658941E-003
 -4.476742922393904E-003 -7.979640656267073E-003 -1.263026983295655E-002
 -1.826709190868895E-002 -2.441396652989334E-002 -3.056244072773302E-002
 -3.622807327755116E-002 -4.107753596790794E-002 -4.495244726653555E-002
 -4.790767994332594E-002 -5.006842939802218E-002 -5.160152297946802E-002
 -5.266055883330620E-002  0.000000000000000E+000 -3.282172018590466E-004
 -1.033620650049141E-003 -2.198955220658941E-003 -4.476742922393904E-003
 -7.979640656267073E-003 -1.263026983295655E-002 -1.826709190868895E-002
 -2.441396652989334E-002 -3.056244072773302E-002 -3.622807327755116E-002
 -4.107753596790794E-002 -4.495244726653555E-002 -4.790767994332594E-002
 -5.006842939802218E-002 -5.160152297946802E-002 -5.266055883330620E-002
  0.000000000000000E+000 -3.282172018590466E-004 -1.033620650049141E-003
 -2.198955220658941E-003 -4.476742922393904E-003 -7.979640656267073E-003
 -1.263026983295655E-002 -1.826709190868895E-002 -2.441396652989334E-002
 -3.056244072773302E-002 -3.622807327755116E-002 -4.107753596790794E-002
 -4.495244726653555E-002 -4.790767994332594E-002 -5.006842939802218E-002
 -5.160152297946802E-002 -5.266055883330620E-002  0.000000000000000E+000
 -3.282172018590466E-004 -1.033620650049141E-003 -2.198955220658941E-003
 -4.476742922393904E-003 -7.979640656267073E-003 -1.263026983295655E-002
 -1.826709190868895E-002 -2.441396652989334E-002 -3.056244072773302E-002
 -3.622807327755116E-002 -4.107753596790794E-002 -4.495244726653555E-002
 -4.790767994332594E-002 -5.006842939802218E-002 -5.160152297946802E-002
 -5.266055883330620E-002  0.000000000000000E+000 -3.282172018590466E-004
 -1.033620650049141E-003 -2.198955220658941E-003 -4.476742922393904E-003
 -7.979640656267073E-003 -1.263026983295655E-002 -1.826709190868895E-002
 -2.441396652989334E-002 -3.056244072773302E-002 -3.622807327755116E-002
 -4.107753596790794E-002 -4.495244726653555E-002 -4.790767994332594E-002
 -5.006842939802218E-002 -5.160152297946802E-002 -5.266055883330620E-002
  0.000000000000000E+000 -3.282172018590466E-004 -1.033620650049141E-003
 -2.198955220658941E-003 -4.476742922393904E-003 -7.979640656267073E-003
 -1.263026983295655E-002 -1.826709190868895E-002 -2.441396652989334E-002
 -3.056244072773302E-002 -3.622807327755116E-002 -4.107753596790794E-002
 -4.495244726653555E-002 -4.790767994332594E-002 -5.006842939802218E-002
 -5.160152297946802E-002 -5.266055883330620E-002  0.000000000000000E+000
 -3.282172018590466E-004 -1.033620650049141E-003 -2.198955220658941E-003
 -4.476742922393904E-003 -7.979640656267073E-003 -1.263026983295655E-002
 -1.826709190868895E-002 -2.441396652989334E-002 -3.056244072773302E-002
 -3.622807327755116E-002 -4.107753596790794E-002 -4.495244726653555E-002
 -4.790767994332594E-002 -5.006842939802218E-002 -5.160152297946802E-002
 -5.266055883330620E-002
 -0.112707604313991      -0.219397241221642      -0.256712044244671     
 -0.204647767255498      -0.139235807025169      -8.659099087466385E-002
 -4.594981243596885E-002 -2.678513654048162E-002 -2.142294135996910E-002
 -2.612615413631374E-002 -3.723910966036301E-002 -5.210902088846735E-002
 -6.592840293751556E-002 -7.796664280989832E-002 -8.697073426047222E-002
 -9.229426509819871E-002 -0.129680870054967      -0.258814673592255     
 -0.312037226759076      -0.254127879441150      -0.165055554496894     
 -8.444588340019644E-002 -1.928122632234619E-002  1.510893239893162E-002
  2.743950126916059E-002  2.323022192302106E-002  8.247485927528324E-003
 -1.275700784296766E-002 -3.276496342035738E-002 -4.992728899526649E-002
 -6.229547854207802E-002 -6.911576655446669E-002 -0.124040646803500     
 -0.248645450823107      -0.296950784271098      -0.227886264008875     
 -0.119398436140654      -1.377222522453374E-002  7.615194568411504E-002
  0.129370987866232       0.153295081751740       0.154330668842561     
  0.140159807295472       0.117746903645441       9.611261317859381E-002
  7.804226501192045E-002  6.549374469239309E-002  5.883161228759954E-002
 -9.949239252985738E-002 -0.198646035683436      -0.222295589282430     
 -0.125140413926522       1.413139595177210E-002  0.152392092823522     
  0.274253060234450       0.354289487700353       0.397959634408421     
  0.411919464809749       0.405623478384563       0.388112777211709     
  0.369938634578912       0.354292328911620       0.343299120046227     
  0.337511983124547      -5.237565459130736E-002 -0.101650013704320     
 -7.706959302755419E-002  7.214193899234982E-002  0.264666394481867     
  0.455015393805124       0.625676527034692       0.747670924496080     
  0.824888249310478       0.863979972532817       0.875774524877775     
  0.870844120254921       0.861071342331533       0.850586189618376     
  0.842588218078276       0.838311638411594       2.439511060795370E-002
  5.692943895817149E-002  0.160522805665500       0.393914512101554     
  0.672157297480406       0.945709277082467        1.19364398390767     
   1.38258914868099        1.51475980283907        1.59647153960449     
   1.63951332836064        1.65595927550815        1.65992772600228     
   1.65770642387973        1.65440357550415        1.65235070583071     
  0.139378865248277       0.294794632474012       0.516795527329148     
  0.875388686577745        1.28142514609379        1.67972930373416     
   2.04410967858642        2.33469281786972        2.55081417724572     
   2.69773263571323        2.78819693166465        2.83666608964768     
   2.86106259210104        2.87108560341250        2.87456857173332     
   2.87558311277336       0.299081667113205       0.625373123055205     
   1.01150641665088        1.54247928697235        2.12464870394710     
   2.69564900443814        3.22196882231367        3.65466594093337     
   3.98847644304728        4.22675535175097        4.38352578304922     
   4.47681614452365        4.52988059043610        4.55700268377887     
   4.56976312328527        4.57485870065303       0.501759969957314     
   1.04496052417212        1.63875184521870        2.38650672083035     
   3.19002535604147        3.97842163797584        4.70906223634841     
   5.32175997971119        5.80520837090662        6.16017959576439     
   6.40219627619178        6.55363144623893        6.64411469302295     
   6.69351639144066        6.71824447948815        6.72854262310682     
  0.730297160095553        1.51797987184091        2.34519004458330     
   3.33555765148657        4.38633800850269        5.41744544600363     
   6.37633064013582        7.19074907081712        7.84291078871368     
   8.33071017712374        8.67099639114572        8.89040458577213     
   9.02510911255749        9.10099085325337        9.13995660321651     
   9.15643475316735       0.950853417106073        1.97417847153122     
   3.02595436650825        4.24926370288178        5.53659325349163     
   6.79899400473356        7.97496359633287        8.98168571921123     
   9.79618536491693        10.4138892018153        10.8523033147915     
   11.1410943741100        11.3218469607401        11.4257574953676     
   11.4799740225866        11.5031197956056        1.12392405445997     
   2.33148200208374        3.55848449742614        4.96354096975159     
   6.43360624630638        7.87217427872385        9.21170251666121     
   10.3630335491298        11.3016737989847        12.0222120229527     
   12.5417897478123        12.8905424513984        13.1127257258300     
   13.2427573045512        13.3115938340074        13.3412574175387     
   1.22227639735685        2.53312974488107        3.85756312415904     
   5.36341955192128        6.93070453072133        8.45702092154594     
   9.87290650795824        11.0893273435922        12.0864712720268     
   12.8616507397606        13.4309480462963        13.8212369052472     