 Title = "Wing and Wake"
 VARIABLES = "X" "Y" "Z" "GAM" "skew"
 Zone I=   17 J=   20 K=1  T="Blade 01"
 DATAPACKING=BLOCK
 VARLOCATION=([4]=CELLCENTERED,[5]=CELLCENTERED)
 -0.221663389895095      -0.222945346372705      -0.226247273857762     
 -0.231211479631013      -0.237987540569036      -0.246850225223246     
 -0.257876833540094      -0.270737092178088      -0.284664269726174     
 -0.298568610849394      -0.311369581437886      -0.322310953790687     
 -0.331067286214965      -0.337733685419691      -0.342607807512602     
 -0.346067152300406      -0.348454094645653      -0.227471095821220     
 -0.228753052298829      -0.232054979783889      -0.237019185557138     
 -0.243795246495161      -0.252657931149369      -0.263684539466223     
 -0.276544798104208      -0.290471975652302      -0.304376316775520     
 -0.317177287364012      -0.328118659716815      -0.336874992141094     
 -0.343541391345822      -0.348415513438719      -0.351874858226533     
 -0.354261800571777      -0.235684515813595      -0.236966472291206     
 -0.240268399776263      -0.245232605549510      -0.252008666487537     
 -0.260871351141738      -0.271897959458599      -0.284758218096586     
 -0.298685395644676      -0.312589736767894      -0.325390707356387     
 -0.336332079709188      -0.345088412133467      -0.351754811338191     
 -0.356628933431099      -0.360088278218906      -0.362475220564152     
 -0.247150746589878      -0.248432703067490      -0.251734630552549     
 -0.256698836325796      -0.263474897263819      -0.272337581918029     
 -0.283364190234883      -0.296224448872871      -0.310151626420961     
 -0.324055967544172      -0.336856938132673      -0.347798310485472     
 -0.356554642909752      -0.363221042114481      -0.368095164207382     
 -0.371554508995191      -0.373941451340436      -0.262872225416439     
 -0.264154181894052      -0.267456109379108      -0.272420315152357     
 -0.279196376090382      -0.288059060744590      -0.299085669061440     
 -0.311945927699430      -0.325873105247522      -0.339777446370738     
 -0.352578416959230      -0.363519789312027      -0.372276121736312     
 -0.378942520941042      -0.383816643033944      -0.387275987821751     
 -0.389662930166996      -0.283903846607676      -0.285185803085288     
 -0.288487730570341      -0.293451936343594      -0.300227997281616     
 -0.309090681935827      -0.320117290252672      -0.332977548890664     
 -0.346904726438757      -0.360809067561974      -0.373610038150472     
 -0.384551410503271      -0.393307742927549      -0.399974142132271     
 -0.404848264225180      -0.408307609012989      -0.410694551358232     
 -0.311131152820978      -0.312413109298583      -0.315715036783636     
 -0.320679242556891      -0.327455303494917      -0.336317988149124     
 -0.347344596465976      -0.360204855103967      -0.374132032652054     
 -0.388036373775269      -0.400837344363765      -0.411778716716569     
 -0.420535049140848      -0.427201448345573      -0.432075570438479     
 -0.435534915226284      -0.437921857571531      -0.344920598840945     
 -0.346202555318558      -0.349504482803614      -0.354468688576862     
 -0.361244749514891      -0.370107434169095      -0.381134042485939     
 -0.393994301123937      -0.407921478672026      -0.421825819795242     
 -0.434626790383740      -0.445568162736537      -0.454324495160820     
 -0.460990894365546      -0.465865016458452      -0.469324361246259     
 -0.471711303591504      -0.384721419506454      -0.386003375984070     
 -0.389305303469124      -0.394269509242370      -0.401045570180393     
 -0.409908254834604      -0.420934863151457      -0.433795121789446     
 -0.447722299337537      -0.461626640460753      -0.474427611049249     
 -0.485368983402050      -0.494125315826331      -0.500791715031055     
 -0.505665837123958      -0.509125181911771      -0.511512124257003     
 -0.428820063039292      -0.430102019516903      -0.433403947001962     
 -0.438368152775206      -0.445144213713222      -0.454006898367439     
 -0.465033506684295      -0.477893765322281      -0.491820942870368     
 -0.505725283993577      -0.518526254582084      -0.529467626934882     
 -0.538223959359164      -0.544890358563892      -0.549764480656799     
 -0.553223825444601      -0.555610767789845      -0.474487341524728     
 -0.475769298002339      -0.479071225487396      -0.484035431260643     
 -0.490811492198666      -0.499674176852874      -0.510700785169730     
 -0.523561043807720      -0.537488221355798      -0.551392562479024     
 -0.564193533067511      -0.575134905420320      -0.583891237844597     
 -0.590557637049330      -0.595431759142231      -0.598891103930038     
 -0.601278046275283      -0.518585985057559      -0.519867941535176     
 -0.523169869020230      -0.528134074793478      -0.534910135731502     
 -0.543772820385710      -0.554799428702566      -0.567659687340555     
 -0.581586864888647      -0.595491206011858      -0.608292176600356     
 -0.619233548953157      -0.627989881377435      -0.634656280582163     
 -0.639530402675071      -0.642989747462877      -0.645376689808122     
 -0.558386805723072      -0.559668762200685      -0.562970689685737     
 -0.567934895458991      -0.574710956397015      -0.583573641051223     
 -0.594600249368074      -0.607460508006063      -0.621387685554153     
 -0.635292026677369      -0.648092997265866      -0.659034369618664     
 -0.667790702042945      -0.674457101247677      -0.679331223340578     
 -0.682790568128378      -0.685177510473633      -0.592176251743044     
 -0.593458208220655      -0.596760135705709      -0.601724341478960     
 -0.608500402416981      -0.617363087071191      -0.628389695388049     
 -0.641249954026036      -0.655177131574126      -0.669081472697341     
 -0.681882443285836      -0.692823815638637      -0.701580148062915     
 -0.708246547267648      -0.713120669360551      -0.716580014148350     
 -0.718966956493595      -0.619403557956340      -0.620685514433952     
 -0.623987441919010      -0.628951647692257      -0.635727708630282     
 -0.644590393284495      -0.655617001601337      -0.668477260239331     
 -0.682404437787425      -0.696308778910633      -0.709109749499135     
 -0.720051121851936      -0.728807454276216      -0.735473853480946     
 -0.740347975573847      -0.743807320361653      -0.746194262706892     
 -0.640435179147580      -0.641717135625186      -0.645019063110250     
 -0.649983268883494      -0.656759329821521      -0.665622014475735     
 -0.676648622792586      -0.689508881430557      -0.703436058978656     
 -0.717340400101869      -0.730141370690372      -0.741082743043161     
 -0.749839075467440      -0.756505474672176      -0.761379596765080     
 -0.764838941552892      -0.767225883898135      -0.656156657974141     
 -0.657438614451740      -0.660740541936801      -0.665704747710056     
 -0.672480808648080      -0.681343493302290      -0.692370101619143     
 -0.705230360257129      -0.719157537805218      -0.733061878928434     
 -0.745862849516923      -0.756804221869725      -0.765560554293997     
 -0.772226953498730      -0.777101075591645      -0.780560420379446     
 -0.782947362724698      -0.667622888750420      -0.668904845228034     
 -0.672206772713092      -0.677170978486328      -0.683947039424366     
 -0.692809724078557      -0.703836332395424      -0.716696591033410     
 -0.730623768581504      -0.744528109704716      -0.757329080293217     
 -0.768270452646019      -0.777026785070297      -0.783693184275029     
 -0.788567306367928      -0.792026651155729      -0.794413593500977     
 -0.675836308742798      -0.677118265220413      -0.680420192705470     
 -0.685384398478715      -0.692160459416742      -0.701023144070950     
 -0.712049752387800      -0.724910011025790      -0.738837188573876     
 -0.752741529697094      -0.765542500285590      -0.776483872638373     
 -0.785240205062668      -0.791906604267387      -0.796780726360303     
 -0.800240071148109      -0.802627013493357      -0.681644014668928     
 -0.682925971146535      -0.686227898631592      -0.691192104404841     
 -0.697968165342863      -0.706830849997067      -0.717857458313912     
 -0.730717716951911      -0.744644894499989      -0.758549235623211     
 -0.771350206211718      -0.782291578564515      -0.791047910988790     
 -0.797714310193523      -0.802588432286422      -0.806047777074235     
 -0.808434719419482     
 -0.374115123339686      -0.372936338750409      -0.369900150469242     
 -0.365335464096732      -0.359104740706949      -0.350955325128142     
 -0.340816138515415      -0.328990873803768      -0.316184555841715     
 -0.303399236428511      -0.291628488262697      -0.281567677821573     
 -0.273516055242659      -0.267386168007220      -0.262904315378284     
 -0.259723378742700      -0.257528537575152      -0.380431142652959     
 -0.379252358063685      -0.376216169782519      -0.371651483410006     
 -0.365420760020221      -0.357271344441414      -0.347132157828691     
 -0.335306893117040      -0.322500575154989      -0.309715255741785     
 -0.297944507575970      -0.287883697134849      -0.279832074555932     
 -0.273702187320493      -0.269220334691556      -0.266039398055973     
 -0.263844556888424      -0.389363433640096      -0.388184649050821     
 -0.385148460769652      -0.380583774397141      -0.374353051007355     
 -0.366203635428549      -0.356064448815829      -0.344239184104176     
 -0.331432866142125      -0.318647546728919      -0.306876798563107     
 -0.296815988121986      -0.288764365543070      -0.282634478307629     
 -0.278152625678693      -0.274971689043108      -0.272776847875561     
 -0.401833234273024      -0.400654449683747      -0.397618261402582     
 -0.393053575030070      -0.386822851640285      -0.378673436061478     
 -0.368534249448756      -0.356708984737107      -0.343902666775055     
 -0.331117347361846      -0.319346599196035      -0.309285788754912     
 -0.301234166175998      -0.295104278940558      -0.290622426311619     
 -0.287441489676036      -0.285246648508488      -0.418930719091445     
 -0.417751934502169      -0.414715746221001      -0.410151059848489     
 -0.403920336458703      -0.395770920879900      -0.385631734267172     
 -0.373806469555525      -0.361000151593473      -0.348214832180266     
 -0.336444084014453      -0.326383273573330      -0.318331650994416     
 -0.312201763758977      -0.307719911130042      -0.304538974494454     
 -0.302344133326907      -0.441803110931356      -0.440624326342080     
 -0.437588138060907      -0.433023451688398      -0.426792728298610     
 -0.418643312719806      -0.408504126107081      -0.396678861395431     
 -0.383872543433380      -0.371087224020175      -0.359316475854365     
 -0.349255665413241      -0.341204042834326      -0.335074155598884     
 -0.330592302969948      -0.327411366334364      -0.325216525166816     
 -0.471413458645074      -0.470234674055794      -0.467198485774625     
 -0.462633799402115      -0.456403076012333      -0.448253660433526     
 -0.438114473820798      -0.426289209109153      -0.413482891147100     
 -0.400697571733890      -0.388926823568079      -0.378866013126961     
 -0.370814390548045      -0.364684503312604      -0.360202650683669     
 -0.357021714048082      -0.354826872880534      -0.508160290588976     
 -0.506981505999700      -0.503945317718529      -0.499380631346021     
 -0.493149907956239      -0.485000492377431      -0.474861305764704     
 -0.463036041053060      -0.450229723090998      -0.437444403677796     
 -0.425673655511985      -0.415612845070863      -0.407561222491950     
 -0.401431335256506      -0.396949482627572      -0.393768545991987     
 -0.391573704824441      -0.551444636457218      -0.550265851867950     
 -0.547229663586780      -0.542664977214270      -0.536434253824483     
 -0.528284838245677      -0.518145651632948      -0.506320386921302     
 -0.493514068959249      -0.480728749546047      -0.468958001380235     
 -0.458897190939111      -0.450845568360199      -0.444715681124753     
 -0.440233828495815      -0.437052891860239      -0.434858050692686     
 -0.599402967644350      -0.598224183055077      -0.595187994773903     
 -0.590623308401391      -0.584392585011606      -0.576243169432798     
 -0.566103982820079      -0.554278718108423      -0.541472400146372     
 -0.528687080733168      -0.516916332567359      -0.506855522126230     
 -0.498803899547319      -0.492674012311878      -0.488192159682945     
 -0.485011223047359      -0.482816381879814      -0.649067226917731     
 -0.647888442328453      -0.644852254047287      -0.640287567674778     
 -0.634056844284991      -0.625907428706187      -0.615768242093457     
 -0.603942977381817      -0.591136659419756      -0.578351340006550     
 -0.566580591840738      -0.556519781399616      -0.548468158820699     
 -0.542338271585263      -0.537856418956320      -0.534675482320738     
 -0.532480641153191      -0.697025558104856      -0.695846773515583     
 -0.692810585234412      -0.688245898861902      -0.682015175472111     
 -0.673865759893303      -0.663726573280583      -0.651901308568933     
 -0.639094990606885      -0.626309671193676      -0.614538923027862     
 -0.604478112586743      -0.596426490007827      -0.590296602772392     
 -0.585814750143455      -0.582633813507867      -0.580438972340321     
 -0.740309903973102      -0.739131119383825      -0.736094931102657     
 -0.731530244730151      -0.725299521340359      -0.717150105761555     
 -0.707010919148834      -0.695185654437188      -0.682379336475134     
 -0.669594017061929      -0.657823268896112      -0.647762458454990     
 -0.639710835876077      -0.633580948640636      -0.629099096011699     
 -0.625918159376112      -0.623723318208573      -0.777056735917008     
 -0.775877951327734      -0.772841763046560      -0.768277076674052     
 -0.762046353284268      -0.753896937705460      -0.743757751092739     
 -0.731932486381088      -0.719126168419036      -0.706340849005828     
 -0.694570100840019      -0.684509290398892      -0.676457667819979     
 -0.670327780584544      -0.665845927955599      -0.662664991320014     
 -0.660470150152466      -0.806667083630723      -0.805488299041452     
 -0.802452110760285      -0.797887424387770      -0.791656700997981     
 -0.783507285419183      -0.773368098806450      -0.761542834094809     
 -0.748736516132757      -0.735951196719547      -0.724180448553734     
 -0.714119638112616      -0.706068015533702      -0.699938128298258     
 -0.695456275669324      -0.692275339033739      -0.690080497866187     
 -0.829539475470636      -0.828360690881357      -0.825324502600191     
 -0.820759816227681      -0.814529092837898      -0.806379677259093     
 -0.796240490646369      -0.784415225934710      -0.771608907972663     
 -0.758823588559450      -0.747052840393643      -0.736992029952519     
 -0.728940407373606      -0.722810520138159      -0.718328667509228     
 -0.715147730873647      -0.712952889706103      -0.846636960289053     
 -0.845458175699772      -0.842421987418609      -0.837857301046101     
 -0.831626577656312      -0.823477162077512      -0.813337975464784     
 -0.801512710753134      -0.788706392791083      -0.775921073377873     
 -0.764150325212060      -0.754089514770934      -0.746037892192023     
 -0.739908004956583      -0.735426152327648      -0.732245215692060     
 -0.730050374524518      -0.859106760921981      -0.857927976332708     
 -0.854891788051538      -0.850327101679022      -0.844096378289245     
 -0.835946962710432      -0.825807776097717      -0.813982511386059     
 -0.801176193424011      -0.788390874010798      -0.776620125844989     
 -0.766559315403875      -0.758507692824961      -0.752377805589520     
 -0.747895952960576      -0.744715016324996      -0.742520175157441     
 -0.868039051909118      -0.866860267319845      -0.863824079038677     
 -0.859259392666154      -0.853028669276380      -0.844879253697577     
 -0.834740067084847      -0.822914802373195      -0.810108484411142     
 -0.797323164997935      -0.785552416832128      -0.775491606391003     
 -0.767439983812089      -0.761310096576650      -0.756828243947715     
 -0.753647307312131      -0.751452466144580      -0.874355071222392     
 -0.873176286633116      -0.870140098351942      -0.865575411979434     
 -0.859344688589648      -0.851195273010843      -0.841056086398117     
 -0.829230821686467      -0.816424503724415      -0.803639184311213     
 -0.791868436145405      -0.781807625704280      -0.773756003125359     
 -0.767626115889923      -0.763144263260988      -0.759963326625407     
 -0.757768485457855     
  0.000000000000000E+000 -3.282172018590466E-004 -1.033620650049141E-003
 -2.198955220658941E-003 -4.476742922393904E-003 -7.979640656267073E-003
 -1.263026983295655E-002 -1.826709190868895E-002 -2.441396652989334E-002
 -3.056244072773302E-002 -3.622807327755116E-002 -4.107753596790794E-002
 -4.495244726653555E-002 -4.790767994332594E-002 -5.006842939802218E-002
 -5.160152297946802E-002 -5.266055883330620E-002  0.000000000000000E+000
 -3.282172018590466E-004 -1.033620650049141E-003 -2.198955220658941E-003
 -4.476742922393904E-003 -7.979640656267073E-003 -1.263026983295655E-002
 -1.826709190868895E-002 -2.441396652989334E-002 -3.056244072773302E-002
 -3.622807327755116E-002 -4.107753596790794E-002 -4.495244726653555E-002
 -4.790767994332594E-002 -5.006842939802218E-002 -5.160152297946802E-002
 -5.266055883330620E-002  0.000000000000000E+000 -3.282172018590466E-004
 -1.033620650049141E-003 -2.198955220658941E-003 -4.476742922393904E-003
 -7.979640656267073E-003 -1.263026983295655E-002 -1.826709190868895E-002
 -2.441396652989334E-002 -3.056244072773302E-002 -3.622807327755116E-002
 -4.107753596790794E-002 -4.495244726653555E-002 -4.790767994332594E-002
 -5.006842939802218E-002 -5.160152297946802E-002 -5.266055883330620E-002
  0.000000000000000E+000 -3.282172018590466E-004 -1.033620650049141E-003
 -2.198955220658941E-003 -4.476742922393904E-003 -7.979640656267073E-003
 -1.263026983295655E-002 -1.826709190868895E-002 -2.441396652989334E-002
 -3.056244072773302E-002 -3.622807327755116E-002 -4.107753596790794E-002
 -4.495244726653555E-002 -4.790767994332594E-002 -5.006842939802218E-002
 -5.160152297946802E-002 -5.266055883330620E-002  0.000000000000000E+000
 -3.282172018590466E-004 -1.033620650049141E-003 -2.198955220658941E-003
 -4.476742922393904E-003 -7.979640656267073E-003 -1.263026983295655E-002
 -1.826709190868895E-002 -2.441396652989334E-002 -3.056244072773302E-002
 -3.622807327755116E-002 -4.107753596790794E-002 -4.495244726653555E-002
 -4.790767994332594E-002 -5.006842939802218E-002 -5.160152297946802E-002
 -5.266055883330620E-002  0.000000000000000E+000 -3.282172018590466E-004
 -1.033620650049141E-003 -2.198955220658941E-003 -4.476742922393904E-003
 -7.979640656267073E-003 -1.263026983295655E-002 -1.826709190868895E-002
 -2.441396652989334E-002 -3.056244072773302E-002 -3.622807327755116E-002
 -4.107753596790794E-002 -4.495244726653555E-002 -4.790767994332594E-002
 -5.006842939802218E-002 -5.160152297946802E-002 -5.266055883330620E-002
  0.000000000000000E+000 -3.282172018590466E-004 -1.033620650049141E-003
 -2.198955220658941E-003 -4.476742922393904E-003 -7.979640656267073E-003
 -1.263026983295655E-002 -1.826709190868895E-002 -2.441396652989334E-002
 -3.056244072773302E-002 -3.622807327755116E-002 -4.107753596790794E-002
 -4.495244726653555E-002 -4.790767994332594E-002 -5.006842939802218E-002
 -5.160152297946802E-002 -5.266055883330620E-002  0.000000000000000E+000
 -3.282172018590466E-004 -1.033620650049141E-003 -2.198955220658941E-003
 -4.476742922393904E-003 -7.979640656267073E-003 -1.263026983295655E-002
 -1.826709190868895E-002 -2.441396652989334E-002 -3.056244072773302E-002
 -3.622807327755116E-002 -4.107753596790794E-002 -4.495244726653555E-002
 -4.790767994332594E-002 -5.006842939802218E-002 -5.160152297946802E-002
 -5.266055883330620E-002  0.000000000000000E+000 -3.282172018590466E-004
 -1.033620650049141E-003 -2.198955220658941E-003 -4.476742922393904E-003
 -7.979640656267073E-003 -1.263026983295655E-002 -1.826709190868895E-002
 -2.441396652989334E-002 -3.056244072773302E-002 -3.622807327755116E-002
 -4.107753596790794E-002 -4.495244726653555E-002 -4.790767994332594E-002
 -5.006842939802218E-002 -5.160152297946802E-002 -5.266055883330620E-002
  0.000000000000000E+000 -3.282172018590466E-004 -1.033620650049141E-003
 -2.198955220658941E-003 -4.476742922393904E-003 -7.979640656267073E-003
 -1.263026983295655E-002 -1.826709190868895E-002 -2.441396652989334E-002
 -3.056244072773302E-002 -3.622807327755116E-002 -4.107753596790794E-002
 -4.495244726653555E-002 -4.790767994332594E-002 -5.006842939802218E-002
 -5.160152297946802E-002 -5.266055883330620E-002  0.000000000000000E+000
 -3.282172018590466E-004 -1.033620650049141E-003 -2.198955220658941E-003
 -4.476742922393904E-003 -7.979640656267073E-003 -1.263026983295655E-002
 -1.826709190868895E-002 -2.441396652989334E-002 -3.056244072773302E-002
 -3.622807327755116E-002 -4.107753596790794E-002 -4.495244726653555E-002
 -4.790767994332594E-002 -5.006842939802218E-002 -5.160152297946802E-002
 -5.266055883330620E-002  0.000000000000000E+000 -3.282172018590466E-004
 -1.033620650049141E-003 -2.198955220658941E-003 -4.476742922393904E-003
 -7.979640656267073E-003 -1.263026983295655E-002 -1.826709190868895E-002
 -2.441396652989334E-002 -3.056244072773302E-002 -3.622807327755116E-002
 -4.107753596790794E-002 -4.495244726653555E-002 -4.790767994332594E-002
 -5.006842939802218E-002 -5.160152297946802E-002 -5.266055883330620E-002
  0.000000000000000E+000 -3.282172018590466E-004 -1.033620650049141E-003
 -2.198955220658941E-003 -4.476742922393904E-003 -7.979640656267073E-003
 -1.263026983295655E-002 -1.826709190868895E-002 -2.441396652989334E-002
 -3.056244072773302E-002 -3.622807327755116E-002 -4.107753596790794E-002
 -4.495244726653555E-002 -4.790767994332594E-002 -5.006842939802218E-002
 -5.160152297946802E-002 -5.266055883330620E-002  0.000000000000000E+000
 -3.282172018590466E-004 -1.033620650049141E-003 -2.198955220658941E-003
 -4.476742922393904E-003 -7.979640656267073E-003 -1.263026983295655E-002
 -1.826709190868895E-002 -2.441396652989334E-002 -3.056244072773302E-002
 -3.622807327755116E-002 -4.107753596790794E-002 -4.495244726653555E-002
 -4.790767994332594E-002 -5.006842939802218E-002 -5.160152297946802E-002
 -5.266055883330620E-002  0.000000000000000E+000 -3.282172018590466E-004
 -1.033620650049141E-003 -2.198955220658941E-003 -4.476742922393904E-003
 -7.979640656267073E-003 -1.263026983295655E-002 -1.826709190868895E-002
 -2.441396652989334E-002 -3.056244072773302E-002 -3.622807327755116E-002
 -4.107753596790794E-002 -4.495244726653555E-002 -4.790767994332594E-002
 -5.006842939802218E-002 -5.160152297946802E-002 -5.266055883330620E-002
  0.000000000000000E+000 -3.282172018590466E-004 -1.033620650049141E-003
 -2.198955220658941E-003 -4.476742922393904E-003 -7.979640656267073E-003
 -1.263026983295655E-002 -1.826709190868895E-002 -2.441396652989334E-002
 -3.056244072773302E-002 -3.622807327755116E-002 -4.107753596790794E-002
 -4.495244726653555E-002 -4.790767994332594E-002 -5.006842939802218E-002
 -5.160152297946802E-002 -5.266055883330620E-002  0.000000000000000E+000
 -3.282172018590466E-004 -1.033620650049141E-003 -2.198955220658941E-003
 -4.476742922393904E-003 -7.979640656267073E-003 -1.263026983295655E-002
 -1.826709190868895E-002 -2.441396652989334E-002 -3.056244072773302E-002
 -3.622807327755116E-002 -4.107753596790794E-002 -4.495244726653555E-002
 -4.790767994332594E-002 -5.006842939802218E-002 -5.160152297946802E-002
 -5.266055883330620E-002  0.000000000000000E+000 -3.282172018590466E-004
 -1.033620650049141E-003 -2.198955220658941E-003 -4.476742922393904E-003
 -7.979640656267073E-003 -1.263026983295655E-002 -1.826709190868895E-002
 -2.441396652989334E-002 -3.056244072773302E-002 -3.622807327755116E-002
 -4.107753596790794E-002 -4.495244726653555E-002 -4.790767994332594E-002
 -5.006842939802218E-002 -5.160152297946802E-002 -5.266055883330620E-002
  0.000000000000000E+000 -3.282172018590466E-004 -1.033620650049141E-003
 -2.198955220658941E-003 -4.476742922393904E-003 -7.979640656267073E-003
 -1.263026983295655E-002 -1.826709190868895E-002 -2.441396652989334E-002
 -3.056244072773302E-002 -3.622807327755116E-002 -4.107753596790794E-002
 -4.495244726653555E-002 -4.790767994332594E-002 -5.006842939802218E-002
 -5.160152297946802E-002 -5.266055883330620E-002  0.000000000000000E+000
 -3.282172018590466E-004 -1.033620650049141E-003 -2.198955220658941E-003
 -4.476742922393904E-003 -7.979640656267073E-003 -1.263026983295655E-002
 -1.826709190868895E-002 -2.441396652989334E-002 -3.056244072773302E-002
 -3.622807327755116E-002 -4.107753596790794E-002 -4.495244726653555E-002
 -4.790767994332594E-002 -5.006842939802218E-002 -5.160152297946802E-002
 -5.266055883330620E-002
 -0.111803047379368      -0.217314340684460      -0.253103786468075     
 -0.199015598138937      -0.131258263208054      -7.610701482488438E-002
 -3.298482929497139E-002 -1.164323487375088E-002 -4.634900878569138E-003
 -8.373236000226325E-003 -1.921225605263631E-002 -3.437085407131527E-002
 -4.881977006773754E-002 -6.159212756195391E-002 -7.120763363157599E-002
 -7.684016463644676E-002 -0.127234785518955      -0.253551565990213     
 -0.303695981984117      -0.242127189460771      -0.148926654158889     
 -6.394415249990548E-002  5.523819407368008E-003  4.370482053934676E-002
  5.894251120076389E-002  5.652268221050535E-002  4.221271571601718E-002
  2.099474981150290E-002  2.640180204794282E-004 -1.775202197292903E-002
 -3.080044160400972E-002 -3.792686079278274E-002 -0.119199445074564     
 -0.238459245530712      -0.281391914632863      -0.206435419183797     
 -9.154817328210740E-002  2.073865819091466E-002  0.117161954489839     
  0.176128620112450       0.204542894356020       0.208509392220166     
  0.195735316989115       0.173513015321969       0.151353536493751     
  0.132496107356441       0.119264342694579       0.112305139451606     
 -9.107380546450569E-002 -0.181100806756592      -0.195959119123917     
 -8.964155246430898E-002  5.926681359484548E-002  0.207363660688654     
  0.338726458906536       0.427197313254523       0.477597598293182     
  0.496219311087986       0.492562003617495       0.476063915279964     
  0.457846817937482       0.441641950435590       0.430056311091800     
  0.424034567414224      -3.885885278385827E-002 -7.360412912139064E-002
 -3.533501652786086E-002  0.127720340042173       0.334490638388964     
  0.539161900712874       0.723544483538451       0.857766456111862     
  0.944941106445638       0.991283409941345        1.00766357882786     
   1.00509490330503       0.996121189100214       0.985547708821018     
  0.977208641850243       0.972839465366041       4.465962316777185E-002
  9.888928957545444E-002  0.222692352989266       0.476180902037148     
  0.774837147062962        1.06872125661306        1.33604215913103     
   1.54233581174718        1.68887051180492        1.78142590871262     
   1.83180663307570        1.85257165205386        1.85862672607857     
   1.85710544009638        1.85391130787161        1.85199270549646     
  0.167493860879934       0.352958827037183       0.602798298308384     
  0.988832078152406        1.42255267413368        1.84829978049798     
   2.23879689644010        2.55284424307958        2.78862571235373     
   2.95074072639541        3.05192160765052        3.10716954731388     
   3.13533500525580        3.14712728665447        3.15133057617412     
   3.15276671657584       0.334326812158533       0.698271988912883     
   1.11921542929827        1.68436979993108        2.30093346134616     
   2.90597575767659        3.46469166887260        3.92658767828052     
   4.28504836924802        4.54265241340868        4.71338409356610     
   4.81586732378209        4.87439069419284        4.90436938893896     
   4.91846806988573        4.92426191413001       0.540322718887679     
   1.12473881484682        1.75663914833552        2.54180164823988     
   3.38298193603205        4.20869731271919        4.97491067005652     
   5.61975477325254        6.13044847984117        6.50691685398035     
   6.76463290299536        6.92658904298373        7.02348734038968     
   7.07637541668587        7.10280358911668        7.11395213548580     
  0.765691722837366        1.59125360970587        2.45357096829481     
   3.47850421977080        4.56422547975508        5.63011181381834     
   6.62228672591229        7.46687947592563        8.14464409912494     
   8.65262806218638        9.00762442278177        9.23686842321840     
   9.37756115525844        9.45669713683650        9.49725017557569     
   9.51451434382477       0.976889558414224        2.02816082864151     
   3.10599627714025        4.35518283722812        5.66893333916255     
   6.95791006235578        8.15955288740748        9.18966879089460     
   10.0240002982850        10.6572006040365        11.1067087119957     
   11.4027193376561        11.5877106588432        11.6938199083619     
   11.7490578917442        11.7727222649969        1.13786968794019     
   2.36052069820176        3.60184552080250        5.02147412962570     
   6.50681913591180        7.96116711499076        9.31627679897481     
   10.4819675491097        11.4327326997396        12.1625162577709     
   12.6883845844896        13.0408887075299        13.2649811713823     
   13.3957878188456        13.4648714550184        13.4946922402494     
   1.22528170408141        2.53959525798213        3.86772698057321     
   5.37792217038727        6.95038978248693        8.48267643260536     
   9.90493817221732        11.1274377054917        12.1296076137215     
   12.9082588329517        13.4794181055854        13.8702773897976     