 Title = "Wing and Wake"
 VARIABLES = "X" "Y" "Z" "GAM" "skew"
 Zone I=   17 J=   20 K=1  T="Blade 01"
 DATAPACKING=BLOCK
 VARLOCATION=([4]=CELLCENTERED,[5]=CELLCENTERED)
  0.221663389895094       0.222945346372704       0.226247273857761     
  0.231211479631012       0.237987540569036       0.246850225223245     
  0.257876833540094       0.270737092178087       0.284664269726173     
  0.298568610849393       0.311369581437885       0.322310953790686     
  0.331067286214964       0.337733685419691       0.342607807512600     
  0.346067152300405       0.348454094645651       0.227471095821219     
  0.228753052298829       0.232054979783889       0.237019185557137     
  0.243795246495161       0.252657931149368       0.263684539466223     
  0.276544798104208       0.290471975652301       0.304376316775519     
  0.317177287364012       0.328118659716814       0.336874992141093     
  0.343541391345821       0.348415513438719       0.351874858226532     
  0.354261800571776       0.235684515813594       0.236966472291205     
  0.240268399776262       0.245232605549510       0.252008666487536     
  0.260871351141738       0.271897959458598       0.284758218096585     
  0.298685395644675       0.312589736767893       0.325390707356387     
  0.336332079709187       0.345088412133466       0.351754811338191     
  0.356628933431098       0.360088278218906       0.362475220564151     
  0.247150746589877       0.248432703067489       0.251734630552548     
  0.256698836325795       0.263474897263819       0.272337581918028     
  0.283364190234882       0.296224448872869       0.310151626420960     
  0.324055967544172       0.336856938132672       0.347798310485472     
  0.356554642909751       0.363221042114480       0.368095164207381     
  0.371554508995190       0.373941451340435       0.262872225416437     
  0.264154181894051       0.267456109379107       0.272420315152356     
  0.279196376090381       0.288059060744588       0.299085669061440     
  0.311945927699429       0.325873105247521       0.339777446370737     
  0.352578416959229       0.363519789312027       0.372276121736311     
  0.378942520941041       0.383816643033942       0.387275987821750     
  0.389662930166995       0.283903846607675       0.285185803085286     
  0.288487730570341       0.293451936343593       0.300227997281615     
  0.309090681935826       0.320117290252672       0.332977548890664     
  0.346904726438755       0.360809067561972       0.373610038150470     
  0.384551410503269       0.393307742927547       0.399974142132271     
  0.404848264225179       0.408307609012988       0.410694551358231     
  0.311131152820976       0.312413109298583       0.315715036783636     
  0.320679242556890       0.327455303494916       0.336317988149123     
  0.347344596465974       0.360204855103965       0.374132032652053     
  0.388036373775268       0.400837344363764       0.411778716716567     
  0.420535049140847       0.427201448345573       0.432075570438479     
  0.435534915226283       0.437921857571531       0.344920598840943     
  0.346202555318557       0.349504482803613       0.354468688576861     
  0.361244749514889       0.370107434169095       0.381134042485939     
  0.393994301123936       0.407921478672025       0.421825819795241     
  0.434626790383737       0.445568162736537       0.454324495160819     
  0.460990894365544       0.465865016458450       0.469324361246257     
  0.471711303591502       0.384721419506453       0.386003375984067     
  0.389305303469122       0.394269509242370       0.401045570180392     
  0.409908254834603       0.420934863151455       0.433795121789445     
  0.447722299337535       0.461626640460750       0.474427611049248     
  0.485368983402048       0.494125315826329       0.500791715031053     
  0.505665837123957       0.509125181911769       0.511512124257003     
  0.428820063039289       0.430102019516902       0.433403947001960     
  0.438368152775204       0.445144213713222       0.454006898367436     
  0.465033506684294       0.477893765322280       0.491820942870366     
  0.505725283993577       0.518526254582082       0.529467626934880     
  0.538223959359162       0.544890358563890       0.549764480656797     
  0.553223825444599       0.555610767789843       0.474487341524726     
  0.475769298002337       0.479071225487394       0.484035431260641     
  0.490811492198663       0.499674176852872       0.510700785169729     
  0.523561043807717       0.537488221355798       0.551392562479023     
  0.564193533067511       0.575134905420320       0.583891237844595     
  0.590557637049328       0.595431759142230       0.598891103930035     
  0.601278046275281       0.518585985057559       0.519867941535173     
  0.523169869020228       0.528134074793476       0.534910135731500     
  0.543772820385707       0.554799428702564       0.567659687340551     
  0.581586864888645       0.595491206011858       0.608292176600354     
  0.619233548953154       0.627989881377434       0.634656280582161     
  0.639530402675068       0.642989747462875       0.645376689808120     
  0.558386805723070       0.559668762200683       0.562970689685735     
  0.567934895458989       0.574710956397014       0.583573641051222     
  0.594600249368072       0.607460508006061       0.621387685554150     
  0.635292026677368       0.648092997265863       0.659034369618661     
  0.667790702042942       0.674457101247674       0.679331223340575     
  0.682790568128377       0.685177510473631       0.592176251743042     
  0.593458208220653       0.596760135705707       0.601724341478957     
  0.608500402416981       0.617363087071190       0.628389695388046     
  0.641249954026034       0.655177131574124       0.669081472697339     
  0.681882443285833       0.692823815638635       0.701580148062913     
  0.708246547267645       0.713120669360548       0.716580014148349     
  0.718966956493594       0.619403557956339       0.620685514433950     
  0.623987441919008       0.628951647692255       0.635727708630279     
  0.644590393284491       0.655617001601336       0.668477260239329     
  0.682404437787423       0.696308778910633       0.709109749499132     
  0.720051121851933       0.728807454276213       0.735473853480944     
  0.740347975573845       0.743807320361650       0.746194262706892     
  0.640435179147578       0.641717135625184       0.645019063110246     
  0.649983268883491       0.656759329821517       0.665622014475733     
  0.676648622792583       0.689508881430557       0.703436058978653     
  0.717340400101867       0.730141370690370       0.741082743043160     
  0.749839075467440       0.756505474672173       0.761379596765077     
  0.764838941552889       0.767225883898135       0.656156657974139     
  0.657438614451740       0.660740541936801       0.665704747710053     
  0.672480808648078       0.681343493302287       0.692370101619140     
  0.705230360257127       0.719157537805218       0.733061878928432     
  0.745862849516923       0.756804221869724       0.765560554293997     
  0.772226953498730       0.777101075591642       0.780560420379444     
  0.782947362724695       0.667622888750417       0.668904845228035     
  0.672206772713087       0.677170978486328       0.683947039424364     
  0.692809724078557       0.703836332395422       0.716696591033408     
  0.730623768581503       0.744528109704715       0.757329080293214     
  0.768270452646015       0.777026785070295       0.783693184275027     
  0.788567306367926       0.792026651155729       0.794413593500974     
  0.675836308742796       0.677118265220408       0.680420192705468     
  0.685384398478712       0.692160459416741       0.701023144070948     
  0.712049752387797       0.724910011025788       0.738837188573875     
  0.752741529697091       0.765542500285587       0.776483872638373     
  0.785240205062665       0.791906604267387       0.796780726360300     
  0.800240071148109       0.802627013493355       0.681644014668926     
  0.682925971146532       0.686227898631589       0.691192104404839     
  0.697968165342861       0.706830849997063       0.717857458313912     
  0.730717716951908       0.744644894499989       0.758549235623211     
  0.771350206211716       0.782291578564512       0.791047910988787     
  0.797714310193521       0.802588432286422       0.806047777074234     
  0.808434719419478     
  0.374115123339686       0.372936338750409       0.369900150469243     
  0.365335464096732       0.359104740706948       0.350955325128142     
  0.340816138515415       0.328990873803767       0.316184555841715     
  0.303399236428511       0.291628488262697       0.281567677821573     
  0.273516055242659       0.267386168007220       0.262904315378284     
  0.259723378742700       0.257528537575152       0.380431142652959     
  0.379252358063685       0.376216169782518       0.371651483410005     
  0.365420760020220       0.357271344441414       0.347132157828691     
  0.335306893117040       0.322500575154989       0.309715255741785     
  0.297944507575970       0.287883697134849       0.279832074555932     
  0.273702187320493       0.269220334691556       0.266039398055973     
  0.263844556888424       0.389363433640096       0.388184649050820     
  0.385148460769652       0.380583774397141       0.374353051007355     
  0.366203635428549       0.356064448815828       0.344239184104175     
  0.331432866142125       0.318647546728918       0.306876798563107     
  0.296815988121986       0.288764365543070       0.282634478307629     
  0.278152625678693       0.274971689043108       0.272776847875561     
  0.401833234273023       0.400654449683747       0.397618261402581     
  0.393053575030070       0.386822851640285       0.378673436061478     
  0.368534249448756       0.356708984737107       0.343902666775055     
  0.331117347361846       0.319346599196035       0.309285788754912     
  0.301234166175998       0.295104278940558       0.290622426311619     
  0.287441489676036       0.285246648508488       0.418930719091445     
  0.417751934502169       0.414715746221001       0.410151059848488     
  0.403920336458703       0.395770920879900       0.385631734267172     
  0.373806469555524       0.361000151593473       0.348214832180265     
  0.336444084014452       0.326383273573330       0.318331650994416     
  0.312201763758977       0.307719911130041       0.304538974494454     
  0.302344133326906       0.441803110931355       0.440624326342079     
  0.437588138060907       0.433023451688397       0.426792728298610     
  0.418643312719806       0.408504126107081       0.396678861395431     
  0.383872543433380       0.371087224020175       0.359316475854365     
  0.349255665413240       0.341204042834326       0.335074155598884     
  0.330592302969947       0.327411366334363       0.325216525166816     
  0.471413458645073       0.470234674055795       0.467198485774625     
  0.462633799402115       0.456403076012332       0.448253660433526     
  0.438114473820798       0.426289209109153       0.413482891147100     
  0.400697571733891       0.388926823568079       0.378866013126961     
  0.370814390548045       0.364684503312604       0.360202650683669     
  0.357021714048083       0.354826872880534       0.508160290588975     
  0.506981505999701       0.503945317718530       0.499380631346020     
  0.493149907956238       0.485000492377431       0.474861305764704     
  0.463036041053059       0.450229723090998       0.437444403677796     
  0.425673655511985       0.415612845070863       0.407561222491950     
  0.401431335256505       0.396949482627572       0.393768545991987     
  0.391573704824441       0.551444636457219       0.550265851867949     
  0.547229663586780       0.542664977214270       0.536434253824483     
  0.528284838245677       0.518145651632949       0.506320386921302     
  0.493514068959250       0.480728749546046       0.468958001380235     
  0.458897190939111       0.450845568360198       0.444715681124754     
  0.440233828495816       0.437052891860239       0.434858050692686     
  0.599402967644350       0.598224183055076       0.595187994773904     
  0.590623308401392       0.584392585011606       0.576243169432797     
  0.566103982820080       0.554278718108424       0.541472400146373     
  0.528687080733168       0.516916332567358       0.506855522126230     
  0.498803899547319       0.492674012311878       0.488192159682945     
  0.485011223047359       0.482816381879814       0.649067226917730     
  0.647888442328453       0.644852254047285       0.640287567674777     
  0.634056844284989       0.625907428706186       0.615768242093457     
  0.603942977381816       0.591136659419756       0.578351340006550     
  0.566580591840738       0.556519781399616       0.548468158820700     
  0.542338271585263       0.537856418956321       0.534675482320738     
  0.532480641153191       0.697025558104856       0.695846773515582     
  0.692810585234411       0.688245898861901       0.682015175472111     
  0.673865759893303       0.663726573280583       0.651901308568931     
  0.639094990606885       0.626309671193676       0.614538923027863     
  0.604478112586743       0.596426490007827       0.590296602772391     
  0.585814750143454       0.582633813507867       0.580438972340320     
  0.740309903973102       0.739131119383825       0.736094931102656     
  0.731530244730151       0.725299521340359       0.717150105761554     
  0.707010919148833       0.695185654437187       0.682379336475133     
  0.669594017061929       0.657823268896111       0.647762458454990     
  0.639710835876077       0.633580948640635       0.629099096011699     
  0.625918159376111       0.623723318208572       0.777056735917008     
  0.775877951327733       0.772841763046560       0.768277076674052     
  0.762046353284268       0.753896937705461       0.743757751092739     
  0.731932486381088       0.719126168419036       0.706340849005828     
  0.694570100840018       0.684509290398893       0.676457667819979     
  0.670327780584544       0.665845927955599       0.662664991320013     
  0.660470150152466       0.806667083630724       0.805488299041451     
  0.802452110760284       0.797887424387770       0.791656700997981     
  0.783507285419180       0.773368098806450       0.761542834094808     
  0.748736516132757       0.735951196719547       0.724180448553734     
  0.714119638112616       0.706068015533701       0.699938128298258     
  0.695456275669324       0.692275339033740       0.690080497866187     
  0.829539475470635       0.828360690881357       0.825324502600191     
  0.820759816227680       0.814529092837897       0.806379677259093     
  0.796240490646368       0.784415225934710       0.771608907972663     
  0.758823588559451       0.747052840393643       0.736992029952519     
  0.728940407373606       0.722810520138160       0.718328667509228     
  0.715147730873646       0.712952889706103       0.846636960289054     
  0.845458175699772       0.842421987418609       0.837857301046099     
  0.831626577656312       0.823477162077511       0.813337975464784     
  0.801512710753134       0.788706392791083       0.775921073377874     
  0.764150325212060       0.754089514770935       0.746037892192023     
  0.739908004956583       0.735426152327648       0.732245215692060     
  0.730050374524517       0.859106760921980       0.857927976332709     
  0.854891788051537       0.850327101679022       0.844096378289244     
  0.835946962710432       0.825807776097716       0.813982511386059     
  0.801176193424011       0.788390874010799       0.776620125844988     
  0.766559315403873       0.758507692824961       0.752377805589519     
  0.747895952960576       0.744715016324996       0.742520175157441     
  0.868039051909117       0.866860267319844       0.863824079038676     
  0.859259392666155       0.853028669276379       0.844879253697577     
  0.834740067084848       0.822914802373195       0.810108484411142     
  0.797323164997936       0.785552416832127       0.775491606391003     
  0.767439983812088       0.761310096576650       0.756828243947713     
  0.753647307312131       0.751452466144581       0.874355071222392     
  0.873176286633116       0.870140098351942       0.865575411979433     
  0.859344688589649       0.851195273010842       0.841056086398117     
  0.829230821686468       0.816424503724415       0.803639184311213     
  0.791868436145403       0.781807625704280       0.773756003125359     
  0.767626115889924       0.763144263260988       0.759963326625406     
  0.757768485457854     
  0.000000000000000E+000 -3.282172018590466E-004 -1.033620650049141E-003
 -2.198955220658941E-003 -4.476742922393904E-003 -7.979640656267073E-003
 -1.263026983295655E-002 -1.826709190868895E-002 -2.441396652989334E-002
 -3.056244072773302E-002 -3.622807327755116E-002 -4.107753596790794E-002
 -4.495244726653555E-002 -4.790767994332594E-002 -5.006842939802218E-002
 -5.160152297946802E-002 -5.266055883330620E-002  0.000000000000000E+000
 -3.282172018590466E-004 -1.033620650049141E-003 -2.198955220658941E-003
 -4.476742922393904E-003 -7.979640656267073E-003 -1.263026983295655E-002
 -1.826709190868895E-002 -2.441396652989334E-002 -3.056244072773302E-002
 -3.622807327755116E-002 -4.107753596790794E-002 -4.495244726653555E-002
 -4.790767994332594E-002 -5.006842939802218E-002 -5.160152297946802E-002
 -5.266055883330620E-002  0.000000000000000E+000 -3.282172018590466E-004
 -1.033620650049141E-003 -2.198955220658941E-003 -4.476742922393904E-003
 -7.979640656267073E-003 -1.263026983295655E-002 -1.826709190868895E-002
 -2.441396652989334E-002 -3.056244072773302E-002 -3.622807327755116E-002
 -4.107753596790794E-002 -4.495244726653555E-002 -4.790767994332594E-002
 -5.006842939802218E-002 -5.160152297946802E-002 -5.266055883330620E-002
  0.000000000000000E+000 -3.282172018590466E-004 -1.033620650049141E-003
 -2.198955220658941E-003 -4.476742922393904E-003 -7.979640656267073E-003
 -1.263026983295655E-002 -1.826709190868895E-002 -2.441396652989334E-002
 -3.056244072773302E-002 -3.622807327755116E-002 -4.107753596790794E-002
 -4.495244726653555E-002 -4.790767994332594E-002 -5.006842939802218E-002
 -5.160152297946802E-002 -5.266055883330620E-002  0.000000000000000E+000
 -3.282172018590466E-004 -1.033620650049141E-003 -2.198955220658941E-003
 -4.476742922393904E-003 -7.979640656267073E-003 -1.263026983295655E-002
 -1.826709190868895E-002 -2.441396652989334E-002 -3.056244072773302E-002
 -3.622807327755116E-002 -4.107753596790794E-002 -4.495244726653555E-002
 -4.790767994332594E-002 -5.006842939802218E-002 -5.160152297946802E-002
 -5.266055883330620E-002  0.000000000000000E+000 -3.282172018590466E-004
 -1.033620650049141E-003 -2.198955220658941E-003 -4.476742922393904E-003
 -7.979640656267073E-003 -1.263026983295655E-002 -1.826709190868895E-002
 -2.441396652989334E-002 -3.056244072773302E-002 -3.622807327755116E-002
 -4.107753596790794E-002 -4.495244726653555E-002 -4.790767994332594E-002
 -5.006842939802218E-002 -5.160152297946802E-002 -5.266055883330620E-002
  0.000000000000000E+000 -3.282172018590466E-004 -1.033620650049141E-003
 -2.198955220658941E-003 -4.476742922393904E-003 -7.979640656267073E-003
 -1.263026983295655E-002 -1.826709190868895E-002 -2.441396652989334E-002
 -3.056244072773302E-002 -3.622807327755116E-002 -4.107753596790794E-002
 -4.495244726653555E-002 -4.790767994332594E-002 -5.006842939802218E-002
 -5.160152297946802E-002 -5.266055883330620E-002  0.000000000000000E+000
 -3.282172018590466E-004 -1.033620650049141E-003 -2.198955220658941E-003
 -4.476742922393904E-003 -7.979640656267073E-003 -1.263026983295655E-002
 -1.826709190868895E-002 -2.441396652989334E-002 -3.056244072773302E-002
 -3.622807327755116E-002 -4.107753596790794E-002 -4.495244726653555E-002
 -4.790767994332594E-002 -5.006842939802218E-002 -5.160152297946802E-002
 -5.266055883330620E-002  0.000000000000000E+000 -3.282172018590466E-004
 -1.033620650049141E-003 -2.198955220658941E-003 -4.476742922393904E-003
 -7.979640656267073E-003 -1.263026983295655E-002 -1.826709190868895E-002
 -2.441396652989334E-002 -3.056244072773302E-002 -3.622807327755116E-002
 -4.107753596790794E-002 -4.495244726653555E-002 -4.790767994332594E-002
 -5.006842939802218E-002 -5.160152297946802E-002 -5.266055883330620E-002
  0.000000000000000E+000 -3.282172018590466E-004 -1.033620650049141E-003
 -2.198955220658941E-003 -4.476742922393904E-003 -7.979640656267073E-003
 -1.263026983295655E-002 -1.826709190868895E-002 -2.441396652989334E-002
 -3.056244072773302E-002 -3.622807327755116E-002 -4.107753596790794E-002
 -4.495244726653555E-002 -4.790767994332594E-002 -5.006842939802218E-002
 -5.160152297946802E-002 -5.266055883330620E-002  0.000000000000000E+000
 -3.282172018590466E-004 -1.033620650049141E-003 -2.198955220658941E-003
 -4.476742922393904E-003 -7.979640656267073E-003 -1.263026983295655E-002
 -1.826709190868895E-002 -2.441396652989334E-002 -3.056244072773302E-002
 -3.622807327755116E-002 -4.107753596790794E-002 -4.495244726653555E-002
 -4.790767994332594E-002 -5.006842939802218E-002 -5.160152297946802E-002
 -5.266055883330620E-002  0.000000000000000E+000 -3.282172018590466E-004
 -1.033620650049141E-003 -2.198955220658941E-003 -4.476742922393904E-003
 -7.979640656267073E-003 -1.263026983295655E-002 -1.826709190868895E-002
 -2.441396652989334E-002 -3.056244072773302E-002 -3.622807327755116E-002
 -4.107753596790794E-002 -4.495244726653555E-002 -4.790767994332594E-002
 -5.006842939802218E-002 -5.160152297946802E-002 -5.266055883330620E-002
  0.000000000000000E+000 -3.282172018590466E-004 -1.033620650049141E-003
 -2.198955220658941E-003 -4.476742922393904E-003 -7.979640656267073E-003
 -1.263026983295655E-002 -1.826709190868895E-002 -2.441396652989334E-002
 -3.056244072773302E-002 -3.622807327755116E-002 -4.107753596790794E-002
 -4.495244726653555E-002 -4.790767994332594E-002 -5.006842939802218E-002
 -5.160152297946802E-002 -5.266055883330620E-002  0.000000000000000E+000
 -3.282172018590466E-004 -1.033620650049141E-003 -2.198955220658941E-003
 -4.476742922393904E-003 -7.979640656267073E-003 -1.263026983295655E-002
 -1.826709190868895E-002 -2.441396652989334E-002 -3.056244072773302E-002
 -3.622807327755116E-002 -4.107753596790794E-002 -4.495244726653555E-002
 -4.790767994332594E-002 -5.006842939802218E-002 -5.160152297946802E-002
 -5.266055883330620E-002  0.000000000000000E+000 -3.282172018590466E-004
 -1.033620650049141E-003 -2.198955220658941E-003 -4.476742922393904E-003
 -7.979640656267073E-003 -1.263026983295655E-002 -1.826709190868895E-002
 -2.441396652989334E-002 -3.056244072773302E-002 -3.622807327755116E-002
 -4.107753596790794E-002 -4.495244726653555E-002 -4.790767994332594E-002
 -5.006842939802218E-002 -5.160152297946802E-002 -5.266055883330620E-002
  0.000000000000000E+000 -3.282172018590466E-004 -1.033620650049141E-003
 -2.198955220658941E-003 -4.476742922393904E-003 -7.979640656267073E-003
 -1.263026983295655E-002 -1.826709190868895E-002 -2.441396652989334E-002
 -3.056244072773302E-002 -3.622807327755116E-002 -4.107753596790794E-002
 -4.495244726653555E-002 -4.790767994332594E-002 -5.006842939802218E-002
 -5.160152297946802E-002 -5.266055883330620E-002  0.000000000000000E+000
 -3.282172018590466E-004 -1.033620650049141E-003 -2.198955220658941E-003
 -4.476742922393904E-003 -7.979640656267073E-003 -1.263026983295655E-002
 -1.826709190868895E-002 -2.441396652989334E-002 -3.056244072773302E-002
 -3.622807327755116E-002 -4.107753596790794E-002 -4.495244726653555E-002
 -4.790767994332594E-002 -5.006842939802218E-002 -5.160152297946802E-002
 -5.266055883330620E-002  0.000000000000000E+000 -3.282172018590466E-004
 -1.033620650049141E-003 -2.198955220658941E-003 -4.476742922393904E-003
 -7.979640656267073E-003 -1.263026983295655E-002 -1.826709190868895E-002
 -2.441396652989334E-002 -3.056244072773302E-002 -3.622807327755116E-002
 -4.107753596790794E-002 -4.495244726653555E-002 -4.790767994332594E-002
 -5.006842939802218E-002 -5.160152297946802E-002 -5.266055883330620E-002
  0.000000000000000E+000 -3.282172018590466E-004 -1.033620650049141E-003
 -2.198955220658941E-003 -4.476742922393904E-003 -7.979640656267073E-003
 -1.263026983295655E-002 -1.826709190868895E-002 -2.441396652989334E-002
 -3.056244072773302E-002 -3.622807327755116E-002 -4.107753596790794E-002
 -4.495244726653555E-002 -4.790767994332594E-002 -5.006842939802218E-002
 -5.160152297946802E-002 -5.266055883330620E-002  0.000000000000000E+000
 -3.282172018590466E-004 -1.033620650049141E-003 -2.198955220658941E-003
 -4.476742922393904E-003 -7.979640656267073E-003 -1.263026983295655E-002
 -1.826709190868895E-002 -2.441396652989334E-002 -3.056244072773302E-002
 -3.622807327755116E-002 -4.107753596790794E-002 -4.495244726653555E-002
 -4.790767994332594E-002 -5.006842939802218E-002 -5.160152297946802E-002
 -5.266055883330620E-002
 -0.116737714202076      -0.227115056278858      -0.266924599285078     
 -0.216515514603136      -0.152330414625461      -0.100660477237815     
 -6.082103820750268E-002 -4.239162866154036E-002 -3.776147597187240E-002
 -4.324209126931163E-002 -5.518064670690319E-002 -7.088076397604985E-002
 -8.546538733674065E-002 -9.814925047697862E-002 -0.107643767004669     
 -0.113260118389939      -0.134419660605841      -0.268248283811478     
 -0.325063988795840      -0.269765107073048      -0.182639487528008     
 -0.103521509203060      -3.954307815146949E-002 -6.222708286722292E-003
  5.023657130708222E-003 -3.812044662844045E-004 -1.669178039449317E-002
 -3.909964487108694E-002 -6.048325991845728E-002 -7.887670099438353E-002
 -9.218525813964226E-002 -9.950315686002552E-002 -0.128612346169615     
 -0.257859777866070      -0.309903603158805      -0.243732135564980     
 -0.137487774782986      -3.357517935012458E-002  5.501756855734646E-002
  0.107044195663336       0.129715000158378       0.129289270282959     
  0.113416672272178       8.915870069609316E-002  6.572776630276517E-002
  4.612527440322786E-002  3.249453529630417E-002  2.531966699593859E-002
 -0.103036677270755      -0.205820852606827      -0.232430999856983     
 -0.137588669236482      -1.225194864412550E-004  0.136779812280223     
  0.257618753326614       0.336717514393810       0.379292878936136     
  0.391828030409843       0.383767752680116       0.364321410107042     
  0.344299724506648       0.327122931639269       0.315080937942110     
  0.308831446124018      -5.384094628308539E-002 -0.104591598999872     
 -8.111546875215468E-002  6.742467579595919E-002  0.259614631018549     
  0.449905082020123       0.620671127062095       0.742686953423233     
  0.819597865779201       0.857896139465703       0.868437494663889     
  0.861994156899018       0.850708015062313       0.838929207627413     
  0.830037394860424       0.825395941592065       2.622888362153401E-002
  6.075763297165043E-002  0.166337587594738       0.401924373507020     
  0.682545594483243       0.958563278007026        1.20888269022784     
   1.39986040884886        1.53346532043536        1.61586787345936     
   1.65888963862365        1.67479020117840        1.67794356038977     
   1.67488884378951        1.67096937174963        1.66869712666858     
  0.145587077178706       0.307630994528636       0.535806357562526     
  0.900562330003137        1.31283103362042        1.71729208903599     
   2.08748850715272        2.38320299948974        2.60347809874958     
   2.75340065709994        2.84572618145706        2.89508460630806     
   2.91968280788929        2.92953448128955        2.93278630843454     
   2.93376656201342       0.309867050102543       0.647655646508738     
   1.04440198039610        1.58579410766271        2.17839259955897     
   2.75963768471012        3.29563675378230        3.73699564453285     
   4.07806704577636        4.32197473962143        4.48271793069317     
   4.57849780225082        4.63289620234346        4.66057932050900     
   4.67352661461784        4.67877808740986       0.515584160715225     
   1.07353076948159        1.68092362758346        2.44199689000224     
   3.25884851943046        4.06036848254018        4.80345401668829     
   5.42737087493345        5.92034020635527        6.28284563308836     
   6.53036486675097        6.68545142505113        6.77809409944433     
   6.82859241811710        6.85381213532123        6.86439787695830     
  0.743875469260379        1.54606685193455        2.38669729703223     
   3.39025018615359        4.45429832680135        5.49854641703882     
   6.46997138280447        7.29575953204579        7.95761243319039     
   8.45310686637775        8.79903561894604        9.02221511895794     
   9.15918100457744        9.23624144758114        9.27575289067269     
   9.29253345702205       0.960713668344139        1.99461391584946     
   3.05624951169570        4.28935468652985        5.58666925730008     
   6.85909712287303        8.04475903087950        9.06034545114182     
   9.88241336112187        10.5060809529612        10.9487897994634     
   11.2403690088268        11.4227258578998        11.5274246060086     
   11.5819812016885        11.6053260758867        1.12829661326376     
   2.34060658314478        3.57217093159898        4.98194781372792     
   6.45703145525331        7.90085219220902        9.24564250066209     
   10.4018895403526        11.3447288978583        12.0684839207276     
   12.5902282651387        12.9402208677656        13.1629658243369     
   13.2931522320465        13.3619869503920        13.3916844430681     
   1.22150666967952        2.53165289645896        3.85567886211869     
   5.36149214591270        6.92912377721318        8.45618347794747     
   9.87312203709981        11.0906799011756        12.0887744932506     
   12.8645099680858        13.4339141710575        13.8239514912240     