 Title = "Wing and Wake"
 VARIABLES = "X" "Y" "Z" "GAM" "skew"
 Zone I=   17 J=   20 K=1  T="Blade 01"
 DATAPACKING=BLOCK
 VARLOCATION=([4]=CELLCENTERED,[5]=CELLCENTERED)
 -0.221663389895091      -0.222945346372702      -0.226247273857759     
 -0.231211479631009      -0.237987540569033      -0.246850225223241     
 -0.257876833540093      -0.270737092178083      -0.284664269726171     
 -0.298568610849389      -0.311369581437883      -0.322310953790683     
 -0.331067286214963      -0.337733685419691      -0.342607807512597     
 -0.346067152300402      -0.348454094645647      -0.227471095821216     
 -0.228753052298828      -0.232054979783886      -0.237019185557134     
 -0.243795246495157      -0.252657931149366      -0.263684539466220     
 -0.276544798104208      -0.290471975652298      -0.304376316775515     
 -0.317177287364008      -0.328118659716810      -0.336874992141090     
 -0.343541391345819      -0.348415513438719      -0.351874858226529     
 -0.354261800571773      -0.235684515813591      -0.236966472291202     
 -0.240268399776258      -0.245232605549510      -0.252008666487532     
 -0.260871351141738      -0.271897959458593      -0.284758218096581     
 -0.298685395644672      -0.312589736767890      -0.325390707356383     
 -0.336332079709184      -0.345088412133463      -0.351754811338191     
 -0.356628933431095      -0.360088278218903      -0.362475220564149     
 -0.247150746589875      -0.248432703067486      -0.251734630552544     
 -0.256698836325792      -0.263474897263817      -0.272337581918025     
 -0.283364190234878      -0.296224448872866      -0.310151626420956     
 -0.324055967544172      -0.336856938132667      -0.347798310485469     
 -0.356554642909748      -0.363221042114477      -0.368095164207379     
 -0.371554508995186      -0.373941451340432      -0.262872225416434     
 -0.264154181894046      -0.267456109379103      -0.272420315152352     
 -0.279196376090377      -0.288059060744585      -0.299085669061437     
 -0.311945927699425      -0.325873105247517      -0.339777446370733     
 -0.352578416959226      -0.363519789312027      -0.372276121736308     
 -0.378942520941037      -0.383816643033939      -0.387275987821747     
 -0.389662930166991      -0.283903846607672      -0.285185803085283     
 -0.288487730570339      -0.293451936343590      -0.300227997281611     
 -0.309090681935822      -0.320117290252672      -0.332977548890663     
 -0.346904726438751      -0.360809067561970      -0.373610038150464     
 -0.384551410503265      -0.393307742927544      -0.399974142132271     
 -0.404848264225176      -0.408307609012983      -0.410694551358228     
 -0.311131152820971      -0.312413109298581      -0.315715036783636     
 -0.320679242556887      -0.327455303494911      -0.336317988149119     
 -0.347344596465971      -0.360204855103960      -0.374132032652049     
 -0.388036373775266      -0.400837344363760      -0.411778716716563     
 -0.420535049140842      -0.427201448345573      -0.432075570438475     
 -0.435534915226279      -0.437921857571526      -0.344920598840939     
 -0.346202555318552      -0.349504482803610      -0.354468688576858     
 -0.361244749514883      -0.370107434169091      -0.381134042485939     
 -0.393994301123931      -0.407921478672020      -0.421825819795238     
 -0.434626790383732      -0.445568162736533      -0.454324495160813     
 -0.460990894365541      -0.465865016458444      -0.469324361246251     
 -0.471711303591497      -0.384721419506449      -0.386003375984061     
 -0.389305303469117      -0.394269509242366      -0.401045570180387     
 -0.409908254834597      -0.420934863151450      -0.433795121789439     
 -0.447722299337530      -0.461626640460744      -0.474427611049241     
 -0.485368983402041      -0.494125315826322      -0.500791715031050     
 -0.505665837123952      -0.509125181911761      -0.511512124257003     
 -0.428820063039284      -0.430102019516895      -0.433403947001953     
 -0.438368152775200      -0.445144213713222      -0.454006898367433     
 -0.465033506684287      -0.477893765322275      -0.491820942870362     
 -0.505725283993577      -0.518526254582076      -0.529467626934875     
 -0.538223959359156      -0.544890358563885      -0.549764480656789     
 -0.553223825444594      -0.555610767789839      -0.474487341524719     
 -0.475769298002330      -0.479071225487387      -0.484035431260635     
 -0.490811492198658      -0.499674176852868      -0.510700785169723     
 -0.523561043807711      -0.537488221355798      -0.551392562479018     
 -0.564193533067509      -0.575134905420314      -0.583891237844590     
 -0.590557637049322      -0.595431759142226      -0.598891103930028     
 -0.601278046275275      -0.518585985057556      -0.519867941535167     
 -0.523169869020222      -0.528134074793472      -0.534910135731497     
 -0.543772820385702      -0.554799428702557      -0.567659687340544     
 -0.581586864888636      -0.595491206011854      -0.608292176600347     
 -0.619233548953148      -0.627989881377428      -0.634656280582157     
 -0.639530402675061      -0.642989747462869      -0.645376689808113     
 -0.558386805723064      -0.559668762200674      -0.562970689685731     
 -0.567934895458980      -0.574710956397007      -0.583573641051214     
 -0.594600249368066      -0.607460508006054      -0.621387685554145     
 -0.635292026677362      -0.648092997265854      -0.659034369618655     
 -0.667790702042934      -0.674457101247667      -0.679331223340567     
 -0.682790568128373      -0.685177510473621      -0.592176251743034     
 -0.593458208220644      -0.596760135705700      -0.601724341478953     
 -0.608500402416976      -0.617363087071184      -0.628389695388038     
 -0.641249954026026      -0.655177131574116      -0.669081472697334     
 -0.681882443285826      -0.692823815638627      -0.701580148062906     
 -0.708246547267637      -0.713120669360540      -0.716580014148345     
 -0.718966956493589      -0.619403557956333      -0.620685514433942     
 -0.623987441919000      -0.628951647692248      -0.635727708630271     
 -0.644590393284483      -0.655617001601333      -0.668477260239322     
 -0.682404437787416      -0.696308778910629      -0.709109749499123     
 -0.720051121851924      -0.728807454276205      -0.735473853480934     
 -0.740347975573835      -0.743807320361643      -0.746194262706888     
 -0.640435179147569      -0.641717135625179      -0.645019063110236     
 -0.649983268883483      -0.656759329821508      -0.665622014475721     
 -0.676648622792572      -0.689508881430556      -0.703436058978646     
 -0.717340400101863      -0.730141370690361      -0.741082743043159     
 -0.749839075467440      -0.756505474672168      -0.761379596765071     
 -0.764838941552881      -0.767225883898128      -0.656156657974129     
 -0.657438614451737      -0.660740541936798      -0.665704747710044     
 -0.672480808648070      -0.681343493302278      -0.692370101619132     
 -0.705230360257118      -0.719157537805212      -0.733061878928427     
 -0.745862849516920      -0.756804221869721      -0.765560554293997     
 -0.772226953498730      -0.777101075591633      -0.780560420379436     
 -0.782947362724685      -0.667622888750411      -0.668904845228028     
 -0.672206772713080      -0.677170978486328      -0.683947039424356     
 -0.692809724078557      -0.703836332395415      -0.716696591033401     
 -0.730623768581496      -0.744528109704710      -0.757329080293203     
 -0.768270452646003      -0.777026785070287      -0.783693184275018     
 -0.788567306367917      -0.792026651155725      -0.794413593500967     
 -0.675836308742790      -0.677118265220399      -0.680420192705459     
 -0.685384398478707      -0.692160459416729      -0.701023144070940     
 -0.712049752387789      -0.724910011025777      -0.738837188573867     
 -0.752741529697082      -0.765542500285576      -0.776483872638373     
 -0.785240205062656      -0.791906604267387      -0.796780726360291     
 -0.800240071148100      -0.802627013493345      -0.681644014668916     
 -0.682925971146523      -0.686227898631581      -0.691192104404829     
 -0.697968165342853      -0.706830849997058      -0.717857458313910     
 -0.730717716951901      -0.744644894499989      -0.758549235623211     
 -0.771350206211705      -0.782291578564503      -0.791047910988783     
 -0.797714310193514      -0.802588432286418      -0.806047777074223     
 -0.808434719419470     
 -0.374115123339686      -0.372936338750408      -0.369900150469242     
 -0.365335464096731      -0.359104740706947      -0.350955325128140     
 -0.340816138515415      -0.328990873803766      -0.316184555841715     
 -0.303399236428509      -0.291628488262696      -0.281567677821573     
 -0.273516055242660      -0.267386168007220      -0.262904315378283     
 -0.259723378742699      -0.257528537575151      -0.380431142652959     
 -0.379252358063684      -0.376216169782516      -0.371651483410004     
 -0.365420760020219      -0.357271344441413      -0.347132157828690     
 -0.335306893117040      -0.322500575154989      -0.309715255741783     
 -0.297944507575970      -0.287883697134848      -0.279832074555933     
 -0.273702187320493      -0.269220334691556      -0.266039398055973     
 -0.263844556888424      -0.389363433640096      -0.388184649050819     
 -0.385148460769650      -0.380583774397141      -0.374353051007355     
 -0.366203635428549      -0.356064448815825      -0.344239184104175     
 -0.331432866142124      -0.318647546728918      -0.306876798563106     
 -0.296815988121985      -0.288764365543070      -0.282634478307629     
 -0.278152625678693      -0.274971689043107      -0.272776847875560     
 -0.401833234273023      -0.400654449683747      -0.397618261402579     
 -0.393053575030069      -0.386822851640284      -0.378673436061477     
 -0.368534249448755      -0.356708984737106      -0.343902666775053     
 -0.331117347361846      -0.319346599196035      -0.309285788754911     
 -0.301234166175998      -0.295104278940558      -0.290622426311620     
 -0.287441489676036      -0.285246648508488      -0.418930719091443     
 -0.417751934502166      -0.414715746220999      -0.410151059848488     
 -0.403920336458702      -0.395770920879898      -0.385631734267172     
 -0.373806469555523      -0.361000151593472      -0.348214832180265     
 -0.336444084014452      -0.326383273573330      -0.318331650994416     
 -0.312201763758976      -0.307719911130040      -0.304538974494454     
 -0.302344133326907      -0.441803110931353      -0.440624326342077     
 -0.437588138060907      -0.433023451688397      -0.426792728298610     
 -0.418643312719806      -0.408504126107081      -0.396678861395431     
 -0.383872543433379      -0.371087224020174      -0.359316475854363     
 -0.349255665413240      -0.341204042834325      -0.335074155598884     
 -0.330592302969948      -0.327411366334363      -0.325216525166817     
 -0.471413458645071      -0.470234674055796      -0.467198485774625     
 -0.462633799402115      -0.456403076012331      -0.448253660433525     
 -0.438114473820798      -0.426289209109152      -0.413482891147099     
 -0.400697571733891      -0.388926823568079      -0.378866013126959     
 -0.370814390548044      -0.364684503312605      -0.360202650683669     
 -0.357021714048082      -0.354826872880534      -0.508160290588974     
 -0.506981505999700      -0.503945317718529      -0.499380631346020     
 -0.493149907956235      -0.485000492377428      -0.474861305764704     
 -0.463036041053057      -0.450229723091000      -0.437444403677796     
 -0.425673655511985      -0.415612845070863      -0.407561222491949     
 -0.401431335256506      -0.396949482627572      -0.393768545991986     
 -0.391573704824439      -0.551444636457221      -0.550265851867948     
 -0.547229663586778      -0.542664977214267      -0.536434253824482     
 -0.528284838245675      -0.518145651632950      -0.506320386921302     
 -0.493514068959250      -0.480728749546044      -0.468958001380233     
 -0.458897190939109      -0.450845568360196      -0.444715681124755     
 -0.440233828495817      -0.437052891860236      -0.434858050692687     
 -0.599402967644348      -0.598224183055072      -0.595187994773903     
 -0.590623308401392      -0.584392585011606      -0.576243169432798     
 -0.566103982820077      -0.554278718108425      -0.541472400146373     
 -0.528687080733168      -0.516916332567356      -0.506855522126231     
 -0.498803899547320      -0.492674012311879      -0.488192159682944     
 -0.485011223047359      -0.482816381879812      -0.649067226917728     
 -0.647888442328452      -0.644852254047283      -0.640287567674775     
 -0.634056844284987      -0.625907428706184      -0.615768242093458     
 -0.603942977381813      -0.591136659419756      -0.578351340006551     
 -0.566580591840738      -0.556519781399616      -0.548468158820701     
 -0.542338271585264      -0.537856418956324      -0.534675482320739     
 -0.532480641153192      -0.697025558104854      -0.695846773515579     
 -0.692810585234409      -0.688245898861899      -0.682015175472112     
 -0.673865759893304      -0.663726573280583      -0.651901308568931     
 -0.639094990606882      -0.626309671193676      -0.614538923027863     
 -0.604478112586742      -0.596426490007826      -0.590296602772389     
 -0.585814750143451      -0.582633813507866      -0.580438972340319     
 -0.740309903973100      -0.739131119383825      -0.736094931102656     
 -0.731530244730146      -0.725299521340360      -0.717150105761554     
 -0.707010919148832      -0.695185654437184      -0.682379336475131     
 -0.669594017061927      -0.657823268896110      -0.647762458454988     
 -0.639710835876076      -0.633580948640634      -0.629099096011697     
 -0.625918159376111      -0.623723318208568      -0.777056735917005     
 -0.775877951327731      -0.772841763046559      -0.768277076674053     
 -0.762046353284267      -0.753896937705460      -0.743757751092736     
 -0.731932486381086      -0.719126168419035      -0.706340849005827     
 -0.694570100840016      -0.684509290398892      -0.676457667819980     
 -0.670327780584541      -0.665845927955600      -0.662664991320015     
 -0.660470150152467      -0.806667083630724      -0.805488299041449     
 -0.802452110760281      -0.797887424387767      -0.791656700997982     
 -0.783507285419178      -0.773368098806452      -0.761542834094805     
 -0.748736516132755      -0.735951196719546      -0.724180448553733     
 -0.714119638112613      -0.706068015533698      -0.699938128298257     
 -0.695456275669320      -0.692275339033737      -0.690080497866187     
 -0.829539475470633      -0.828360690881357      -0.825324502600187     
 -0.820759816227678      -0.814529092837892      -0.806379677259089     
 -0.796240490646363      -0.784415225934710      -0.771608907972661     
 -0.758823588559451      -0.747052840393643      -0.736992029952521     
 -0.728940407373606      -0.722810520138163      -0.718328667509228     
 -0.715147730873644      -0.712952889706101      -0.846636960289052     
 -0.845458175699773      -0.842421987418608      -0.837857301046095     
 -0.831626577656311      -0.823477162077506      -0.813337975464783     
 -0.801512710753133      -0.788706392791081      -0.775921073377875     
 -0.764150325212060      -0.754089514770938      -0.746037892192023     
 -0.739908004956583      -0.735426152327648      -0.732245215692061     
 -0.730050374524515      -0.859106760921979      -0.857927976332705     
 -0.854891788051533      -0.850327101679022      -0.844096378289241     
 -0.835946962710432      -0.825807776097711      -0.813982511386058     
 -0.801176193424010      -0.788390874010801      -0.776620125844988     
 -0.766559315403868      -0.758507692824957      -0.752377805589517     
 -0.747895952960575      -0.744715016324994      -0.742520175157443     
 -0.868039051909117      -0.866860267319840      -0.863824079038676     
 -0.859259392666159      -0.853028669276376      -0.844879253697574     
 -0.834740067084846      -0.822914802373193      -0.810108484411143     
 -0.797323164997935      -0.785552416832123      -0.775491606391003     
 -0.767439983812087      -0.761310096576650      -0.756828243947712     
 -0.753647307312128      -0.751452466144579      -0.874355071222391     
 -0.873176286633114      -0.870140098351944      -0.865575411979432     
 -0.859344688589650      -0.851195273010841      -0.841056086398117     
 -0.829230821686469      -0.816424503724415      -0.803639184311213     
 -0.791868436145401      -0.781807625704277      -0.773756003125360     
 -0.767626115889923      -0.763144263260987      -0.759963326625402     
 -0.757768485457853     
  0.000000000000000E+000 -3.282172018590466E-004 -1.033620650049141E-003
 -2.198955220658941E-003 -4.476742922393904E-003 -7.979640656267073E-003
 -1.263026983295655E-002 -1.826709190868895E-002 -2.441396652989334E-002
 -3.056244072773302E-002 -3.622807327755116E-002 -4.107753596790794E-002
 -4.495244726653555E-002 -4.790767994332594E-002 -5.006842939802218E-002
 -5.160152297946802E-002 -5.266055883330620E-002  0.000000000000000E+000
 -3.282172018590466E-004 -1.033620650049141E-003 -2.198955220658941E-003
 -4.476742922393904E-003 -7.979640656267073E-003 -1.263026983295655E-002
 -1.826709190868895E-002 -2.441396652989334E-002 -3.056244072773302E-002
 -3.622807327755116E-002 -4.107753596790794E-002 -4.495244726653555E-002
 -4.790767994332594E-002 -5.006842939802218E-002 -5.160152297946802E-002
 -5.266055883330620E-002  0.000000000000000E+000 -3.282172018590466E-004
 -1.033620650049141E-003 -2.198955220658941E-003 -4.476742922393904E-003
 -7.979640656267073E-003 -1.263026983295655E-002 -1.826709190868895E-002
 -2.441396652989334E-002 -3.056244072773302E-002 -3.622807327755116E-002
 -4.107753596790794E-002 -4.495244726653555E-002 -4.790767994332594E-002
 -5.006842939802218E-002 -5.160152297946802E-002 -5.266055883330620E-002
  0.000000000000000E+000 -3.282172018590466E-004 -1.033620650049141E-003
 -2.198955220658941E-003 -4.476742922393904E-003 -7.979640656267073E-003
 -1.263026983295655E-002 -1.826709190868895E-002 -2.441396652989334E-002
 -3.056244072773302E-002 -3.622807327755116E-002 -4.107753596790794E-002
 -4.495244726653555E-002 -4.790767994332594E-002 -5.006842939802218E-002
 -5.160152297946802E-002 -5.266055883330620E-002  0.000000000000000E+000
 -3.282172018590466E-004 -1.033620650049141E-003 -2.198955220658941E-003
 -4.476742922393904E-003 -7.979640656267073E-003 -1.263026983295655E-002
 -1.826709190868895E-002 -2.441396652989334E-002 -3.056244072773302E-002
 -3.622807327755116E-002 -4.107753596790794E-002 -4.495244726653555E-002
 -4.790767994332594E-002 -5.006842939802218E-002 -5.160152297946802E-002
 -5.266055883330620E-002  0.000000000000000E+000 -3.282172018590466E-004
 -1.033620650049141E-003 -2.198955220658941E-003 -4.476742922393904E-003
 -7.979640656267073E-003 -1.263026983295655E-002 -1.826709190868895E-002
 -2.441396652989334E-002 -3.056244072773302E-002 -3.622807327755116E-002
 -4.107753596790794E-002 -4.495244726653555E-002 -4.790767994332594E-002
 -5.006842939802218E-002 -5.160152297946802E-002 -5.266055883330620E-002
  0.000000000000000E+000 -3.282172018590466E-004 -1.033620650049141E-003
 -2.198955220658941E-003 -4.476742922393904E-003 -7.979640656267073E-003
 -1.263026983295655E-002 -1.826709190868895E-002 -2.441396652989334E-002
 -3.056244072773302E-002 -3.622807327755116E-002 -4.107753596790794E-002
 -4.495244726653555E-002 -4.790767994332594E-002 -5.006842939802218E-002
 -5.160152297946802E-002 -5.266055883330620E-002  0.000000000000000E+000
 -3.282172018590466E-004 -1.033620650049141E-003 -2.198955220658941E-003
 -4.476742922393904E-003 -7.979640656267073E-003 -1.263026983295655E-002
 -1.826709190868895E-002 -2.441396652989334E-002 -3.056244072773302E-002
 -3.622807327755116E-002 -4.107753596790794E-002 -4.495244726653555E-002
 -4.790767994332594E-002 -5.006842939802218E-002 -5.160152297946802E-002
 -5.266055883330620E-002  0.000000000000000E+000 -3.282172018590466E-004
 -1.033620650049141E-003 -2.198955220658941E-003 -4.476742922393904E-003
 -7.979640656267073E-003 -1.263026983295655E-002 -1.826709190868895E-002
 -2.441396652989334E-002 -3.056244072773302E-002 -3.622807327755116E-002
 -4.107753596790794E-002 -4.495244726653555E-002 -4.790767994332594E-002
 -5.006842939802218E-002 -5.160152297946802E-002 -5.266055883330620E-002
  0.000000000000000E+000 -3.282172018590466E-004 -1.033620650049141E-003
 -2.198955220658941E-003 -4.476742922393904E-003 -7.979640656267073E-003
 -1.263026983295655E-002 -1.826709190868895E-002 -2.441396652989334E-002
 -3.056244072773302E-002 -3.622807327755116E-002 -4.107753596790794E-002
 -4.495244726653555E-002 -4.790767994332594E-002 -5.006842939802218E-002
 -5.160152297946802E-002 -5.266055883330620E-002  0.000000000000000E+000
 -3.282172018590466E-004 -1.033620650049141E-003 -2.198955220658941E-003
 -4.476742922393904E-003 -7.979640656267073E-003 -1.263026983295655E-002
 -1.826709190868895E-002 -2.441396652989334E-002 -3.056244072773302E-002
 -3.622807327755116E-002 -4.107753596790794E-002 -4.495244726653555E-002
 -4.790767994332594E-002 -5.006842939802218E-002 -5.160152297946802E-002
 -5.266055883330620E-002  0.000000000000000E+000 -3.282172018590466E-004
 -1.033620650049141E-003 -2.198955220658941E-003 -4.476742922393904E-003
 -7.979640656267073E-003 -1.263026983295655E-002 -1.826709190868895E-002
 -2.441396652989334E-002 -3.056244072773302E-002 -3.622807327755116E-002
 -4.107753596790794E-002 -4.495244726653555E-002 -4.790767994332594E-002
 -5.006842939802218E-002 -5.160152297946802E-002 -5.266055883330620E-002
  0.000000000000000E+000 -3.282172018590466E-004 -1.033620650049141E-003
 -2.198955220658941E-003 -4.476742922393904E-003 -7.979640656267073E-003
 -1.263026983295655E-002 -1.826709190868895E-002 -2.441396652989334E-002
 -3.056244072773302E-002 -3.622807327755116E-002 -4.107753596790794E-002
 -4.495244726653555E-002 -4.790767994332594E-002 -5.006842939802218E-002
 -5.160152297946802E-002 -5.266055883330620E-002  0.000000000000000E+000
 -3.282172018590466E-004 -1.033620650049141E-003 -2.198955220658941E-003
 -4.476742922393904E-003 -7.979640656267073E-003 -1.263026983295655E-002
 -1.826709190868895E-002 -2.441396652989334E-002 -3.056244072773302E-002
 -3.622807327755116E-002 -4.107753596790794E-002 -4.495244726653555E-002
 -4.790767994332594E-002 -5.006842939802218E-002 -5.160152297946802E-002
 -5.266055883330620E-002  0.000000000000000E+000 -3.282172018590466E-004
 -1.033620650049141E-003 -2.198955220658941E-003 -4.476742922393904E-003
 -7.979640656267073E-003 -1.263026983295655E-002 -1.826709190868895E-002
 -2.441396652989334E-002 -3.056244072773302E-002 -3.622807327755116E-002
 -4.107753596790794E-002 -4.495244726653555E-002 -4.790767994332594E-002
 -5.006842939802218E-002 -5.160152297946802E-002 -5.266055883330620E-002
  0.000000000000000E+000 -3.282172018590466E-004 -1.033620650049141E-003
 -2.198955220658941E-003 -4.476742922393904E-003 -7.979640656267073E-003
 -1.263026983295655E-002 -1.826709190868895E-002 -2.441396652989334E-002
 -3.056244072773302E-002 -3.622807327755116E-002 -4.107753596790794E-002
 -4.495244726653555E-002 -4.790767994332594E-002 -5.006842939802218E-002
 -5.160152297946802E-002 -5.266055883330620E-002  0.000000000000000E+000
 -3.282172018590466E-004 -1.033620650049141E-003 -2.198955220658941E-003
 -4.476742922393904E-003 -7.979640656267073E-003 -1.263026983295655E-002
 -1.826709190868895E-002 -2.441396652989334E-002 -3.056244072773302E-002
 -3.622807327755116E-002 -4.107753596790794E-002 -4.495244726653555E-002
 -4.790767994332594E-002 -5.006842939802218E-002 -5.160152297946802E-002
 -5.266055883330620E-002  0.000000000000000E+000 -3.282172018590466E-004
 -1.033620650049141E-003 -2.198955220658941E-003 -4.476742922393904E-003
 -7.979640656267073E-003 -1.263026983295655E-002 -1.826709190868895E-002
 -2.441396652989334E-002 -3.056244072773302E-002 -3.622807327755116E-002
 -4.107753596790794E-002 -4.495244726653555E-002 -4.790767994332594E-002
 -5.006842939802218E-002 -5.160152297946802E-002 -5.266055883330620E-002
  0.000000000000000E+000 -3.282172018590466E-004 -1.033620650049141E-003
 -2.198955220658941E-003 -4.476742922393904E-003 -7.979640656267073E-003
 -1.263026983295655E-002 -1.826709190868895E-002 -2.441396652989334E-002
 -3.056244072773302E-002 -3.622807327755116E-002 -4.107753596790794E-002
 -4.495244726653555E-002 -4.790767994332594E-002 -5.006842939802218E-002
 -5.160152297946802E-002 -5.266055883330620E-002  0.000000000000000E+000
 -3.282172018590466E-004 -1.033620650049141E-003 -2.198955220658941E-003
 -4.476742922393904E-003 -7.979640656267073E-003 -1.263026983295655E-002
 -1.826709190868895E-002 -2.441396652989334E-002 -3.056244072773302E-002
 -3.622807327755116E-002 -4.107753596790794E-002 -4.495244726653555E-002
 -4.790767994332594E-002 -5.006842939802218E-002 -5.160152297946802E-002
 -5.266055883330620E-002
  0.152920343144107       0.300047751295612       0.455905931840732     
  0.665454409194459       0.873062395844223        1.05865323301258     
   1.22187513792090        1.35106763929390        1.45033206356198     
   1.52139129469291        1.56758964093010        1.59288974739765     
   1.60478683705925        1.60813783687120        1.60919859136461     
   1.61177645683621       0.224294040463772       0.457897169235159     
  0.709503457523015        1.03039180798103        1.35764583032640     
   1.65793730510490        1.92356884105367        2.13688178794809     
   2.30242536034301        2.42382376865377        2.50778199965409     
   2.56264960880981        2.60090622751750        2.62931046312357     
   2.65085545157646        2.66387845090196       0.292433451606282     
  0.603869001075469       0.938289802909065        1.35441098042388     
   1.78714245696067        2.19467319327477        2.56014270560709     
   2.85895617073148        3.09420474300658        3.27110815199003     
   3.39955275864747        3.49065111503100        3.55721687264329     
   3.60359905458969        3.63259191372770        3.64671704539153     
  0.364840026541882       0.756676514018290        1.17348060767502     
   1.68254346607051        2.21829225062035        2.73372694023201     
   3.20395163802521        3.59613470541897        3.90978483814137     
   4.14981688885004        4.32702009336571        4.45249888606917     
   4.53919504914746        4.59393041434505        4.62461948286727     
   4.63833291923830       0.444635124761949       0.923822102796208     
   1.42842246605093        2.03507065784707        2.67737488919803     
   3.30453426713481        3.88531069046016        4.37819017218390     
   4.77697519315579        5.08343095279858        5.30732829850168     
   5.46077782928801        5.56093377789125        5.62035407102131     
   5.65196300504919        5.66559482343587       0.533267104027617     
   1.10871820512704        1.70924411321684        2.42173572682944     
   3.17764278211885        3.92205449639715        4.61799788635461     
   5.21506532139390        5.70033589926917        6.07131658795299     
   6.33751272900872        6.51464392464336        6.62615542854540     
   6.69021025553317        6.72348345957100        6.73762261937849     
  0.630391945260658        1.31082539505350        2.01564013017967     
   2.84298746381534        3.72039788414861        4.58766486245689     
   5.40177256023397        6.10325988474738        6.67306102501371     
   7.10548694225817        7.41139094129473        7.61124105464083     
   7.73468359136613        7.80452603191994        7.84043026240586     
   7.85559261300806       0.733932650911971        1.52592918385276     
   2.34156267122276        3.29117886530639        4.29664736870138     
   5.29121558585327        6.22542673948882        7.03087273342163     
   7.68362868031671        8.17624414612911        8.52181722952821     
   8.74548663734471        8.88244209830756        8.95943715554468     
   8.99885145134477        9.01545794667040       0.840667818034465     
   1.74741272273334        2.67717069249202        3.75314869667287     
   4.89019006898167        6.01416399169587        7.06912720476908     
   7.97811681831993        8.71351638030528        9.26697261878977     
   9.65392029637283        9.90359130912592        10.0560794601519     
   10.1416824175394        10.1854682430086        10.2039180708850     
  0.945825171324422        1.96537807593052        3.00741591145887     
   4.20808766265527        5.47439979373113        6.72461590852554     
   7.89680236048001        8.90633444897145        9.72300378865866     
   10.3379520682793        10.7684489393423        11.0468371805393     
   11.2173012034075        11.3132668259726        11.3624704579110     
   11.3832519738531        1.04043531161887        2.16111838384368     
   3.30380374207413        4.61658360220764        5.99830061482646     
   7.36006100763571        8.63522729329435        9.73343835061602     
   10.6235348156052        11.2965869195469        11.7707368623192     
   12.0798068267727        12.2706325566837        12.3789268071027     
   12.4348148817477        12.4585420530802        1.10949675128664     
   2.30332275796799        3.51891628511806        4.91372810049157     
   6.37824581188535        7.81745649965744        9.16227868373671     
   10.3200910387051        11.2617439225523        11.9793898421546     
   12.4908615304881        12.8289898151968        13.0408257792477     
   13.1627405358380        13.2263928270983        13.2536501815982     
   1.13725119959707        2.35904937890108        3.60289722232166     
   5.03139879528578        6.52620035889359        7.98740433989608     
   9.34643925611414        10.5134227100842        11.4660157316204     
   12.2001661571640        12.7326442340245        13.0921005759021     