 Title = "Wing and Wake"
 VARIABLES = "X" "Y" "Z" "GAM" "skew"
 Zone I=   17 J=   20 K=1  T="Blade 01"
 DATAPACKING=BLOCK
 VARLOCATION=([4]=CELLCENTERED,[5]=CELLCENTERED)
  0.430513849156736       0.429910303135939       0.428359101540895     
  0.426024476763538       0.422821316475770       0.418619247491491     
  0.413384201101015       0.407273511463085       0.400654849541479     
  0.394046760918681       0.387962931959866       0.382762736931117     
  0.378601189324503       0.375432782772239       0.373116208866844     
  0.371472061902651       0.370337574347186       0.438573982141880     
  0.437970436121087       0.436419234526040       0.434084609748686     
  0.430881449460916       0.426679380476639       0.421444334086163     
  0.415333644448235       0.408714982526624       0.402106893903830     
  0.396023064945019       0.390822869916271       0.386661322309651     
  0.383492915757390       0.381176341851990       0.379532194887799     
  0.378397707332339       0.449972847415622       0.449369301394823     
  0.447818099799784       0.445483475022425       0.442280314734655     
  0.438078245750376       0.432843199359901       0.426732509721978     
  0.420113847800364       0.413505759177570       0.407421930218753     
  0.402221735190007       0.398060187583394       0.394891781031130     
  0.392575207125726       0.390931060161534       0.389796572606077     
  0.465886074784713       0.465282528763916       0.463731327168873     
  0.461396702391513       0.458193542103745       0.453991473119472     
  0.448756426728992       0.442645737091067       0.436027075169453     
  0.429418986546660       0.423335157587844       0.418134962559097     
  0.413973414952477       0.410805008400218       0.408488434494819     
  0.406844287530624       0.405709799975168       0.487704880984110     
  0.487101334963315       0.485550133368276       0.483215508590917     
  0.480012348303140       0.475810279318868       0.470575232928390     
  0.464464543290466       0.457845881368855       0.451237792746058     
  0.445153963787248       0.439953768758494       0.435792221151881     
  0.432623814599617       0.430307240694219       0.428663093730024     
  0.427528606174566       0.516893284434783       0.516289738413987     
  0.514738536818947       0.512403912041585       0.509200751753817     
  0.504998682769541       0.499763636379058       0.493652946741132     
  0.487034284819527       0.480426196196732       0.474342367237918     
  0.469142172209168       0.464980624602553       0.461812218050284     
  0.459495644144883       0.457851497180697       0.456717009625239     
  0.554680271533993       0.554076725513197       0.552525523918158     
  0.550190899140790       0.546987738853020       0.542785669868742     
  0.537550623478265       0.531439933840346       0.524821271918732     
  0.518213183295939       0.512129354337126       0.506929159308369     
  0.502767611701764       0.499599205149492       0.497282631244097     
  0.495638484279907       0.494503996724449       0.601574420769448     
  0.600970874748649       0.599419673153608       0.597085048376260     
  0.593881888088492       0.589679819104218       0.584444772713737     
  0.578334083075813       0.571715421154193       0.565107332531406     
  0.559023503572589       0.553823308543843       0.549661760937218     
  0.546493354384963       0.544176780479562       0.542532633515367     
  0.541398145959909       0.656811361407037       0.656207815386247     
  0.654656613791210       0.652321989013847       0.649118828726081     
  0.644916759741800       0.639681713351328       0.633571023713406     
  0.626952361791787       0.620344273168992       0.614260444210177     
  0.609060249181426       0.604898701574820       0.601730295022552     
  0.599413721117150       0.597769574152958       0.596635086597498     
  0.718012967662674       0.717409421641879       0.715858220046840     
  0.713523595269477       0.710320434981713       0.706118365997439     
  0.700883319606957       0.694772629969038       0.688153968047422     
  0.681545879424634       0.675462050465817       0.670261855437071     
  0.666100307830451       0.662931901278183       0.660615327372788     
  0.658971180408594       0.657836692853136       0.781391579173735     
  0.780788033152942       0.779236831557898       0.776902206780540     
  0.773699046492773       0.769496977508499       0.764261931118019     
  0.758151241480094       0.751532579558470       0.744924490935685     
  0.738840661976871       0.733640466948117       0.729478919341499     
  0.726310512789248       0.723993938883839       0.722349791919647     
  0.721215304364192       0.842593185429374       0.841989639408577     
  0.840438437813532       0.838103813036174       0.834900652748401     
  0.830698583764128       0.825463537373650       0.819352847735727     
  0.812734185814115       0.806126097191318       0.800042268232512     
  0.794842073203748       0.790680525597144       0.787512119044878     
  0.785195545139482       0.783551398175289       0.782416910619822     
  0.897830126066964       0.897226580046170       0.895675378451126     
  0.893340753673771       0.890137593385995       0.885935524401720     
  0.880700478011235       0.874589788373317       0.867971126451710     
  0.861363037828902       0.855279208870101       0.850079013841353     
  0.845917466234723       0.842749059682472       0.840432485777076     
  0.838788338812876       0.837653851257421       0.944724275302417     
  0.944120729281628       0.942569527686592       0.940234902909234     
  0.937031742621458       0.932829673637184       0.927594627246705     
  0.921483937608785       0.914865275687164       0.908257187064381     
  0.902173358105565       0.896973163076815       0.892811615470200     
  0.889643208917937       0.887326635012537       0.885682488048344     
  0.884548000492887       0.982511262401629       0.981907716380842     
  0.980356514785798       0.978021890008426       0.974818729720665     
  0.970616660736394       0.965381614345903       0.959270924707996     
  0.952652262786375       0.946044174163587       0.939960345204771     
  0.934760150176023       0.930598602569411       0.927430196017146     
  0.925113622111737       0.923469475147557       0.922334987592094     
   1.01169966585229        1.01109611983151        1.00954491823647     
   1.00721029345911        1.00400713317135       0.999805064187069     
  0.994570017796576       0.988459328158668       0.981840666237035     
  0.975232577614264       0.969148748655450       0.963948553626687     
  0.959787006020080       0.956618599467807       0.954302025562417     
  0.952657878598215       0.951523391042763        1.03351847205170     
   1.03291492603092        1.03136372443587        1.02902909965851     
   1.02582593937073        1.02162387038646        1.01638882399598     
   1.01027813435807        1.00365947243645       0.997051383813661     
  0.990967554854827       0.985767359826085       0.981605812219472     
  0.978437405667216       0.976120831761801       0.974476684797617     
  0.973342197242155        1.04943169942080        1.04882815340000     
   1.04727695180496        1.04494232702760        1.04173916673982     
   1.03753709775556        1.03230205136508        1.02619136172715     
   1.01957269980553        1.01296461118274        1.00688078222392     
   1.00168058719517       0.997519039588565       0.994350633036302     
  0.992034059130902       0.990389912166714       0.989255424611249     
   1.06083056469453        1.06022701867373        1.05867581707869     
   1.05634119230134        1.05313803201356        1.04893596302930     
   1.04370091663882        1.03759022700088        1.03097156507928     
   1.02436347645648        1.01827964749767        1.01307945246892     
   1.00891790486231        1.00574949831003        1.00343292440465     
   1.00178877744045        1.00065428988500        1.06889069767968     
   1.06828715165889        1.06673595006385        1.06440132528648     
   1.06119816499872        1.05699609601443        1.05176104962395     
   1.04565035998604        1.03903169806442        1.03242360944163     
   1.02633978048281        1.02113958545406        1.01697803784746     
   1.01380963129519        1.01149305738979        1.00984891042560     
   1.00871442287014     
 -6.127486936346316E-002 -6.292834912122187E-002 -6.717803406526308E-002
 -7.357399175253496E-002 -8.234939663335705E-002 -9.386142018552406E-002
 -0.108203397332829      -0.124944294089876      -0.143076835990208     
 -0.161180411192104      -0.177847720206614      -0.192094218270034     
 -0.203495229114948      -0.212175422369513      -0.218521927736057     
 -0.223026246595607      -0.226134298249906      -6.421694420135352E-002
 -6.587042395911315E-002 -7.012010890315092E-002 -7.651606659042455E-002
 -8.529147147124577E-002 -9.680349502341533E-002 -0.111145472170719     
 -0.127886368927770      -0.146018910828097      -0.164122486029999     
 -0.180789795044510      -0.195036293107927      -0.206437303952845     
 -0.215117497207402      -0.221464002573945      -0.225968321433497     
 -0.229076373087804      -6.837770864086917E-002 -7.003118839862645E-002
 -7.428087334266573E-002 -8.067683102993947E-002 -8.945223591076337E-002
 -0.100964259462930      -0.115306236610233      -0.132047133367286     
 -0.150179675267612      -0.168283250469515      -0.184950559484026     
 -0.199197057547443      -0.210598068392360      -0.219278261646918     
 -0.225624767013454      -0.230129085873002      -0.233237137527318     
 -7.418628598301506E-002 -7.583976574077413E-002 -8.008945068481209E-002
 -8.648540837208665E-002 -9.526081325290826E-002 -0.106772836805075     
 -0.121114813952380      -0.137855710709433      -0.155988252609761     
 -0.174091827811661      -0.190759136826169      -0.205005634889590     
 -0.216406645734502      -0.225086838989062      -0.231433344355608     
 -0.235937663215159      -0.239045714869466      -8.215049213573387E-002
 -8.380397189349337E-002 -8.805365683753104E-002 -9.444961452480712E-002
 -0.103225019405630      -0.114737042957797      -0.129079020105102     
 -0.145819916862153      -0.163952458762478      -0.182056033964379     
 -0.198723342978891      -0.212969841042309      -0.224370851887228     
 -0.233051045141783      -0.239397550508327      -0.243901869367872     
 -0.247009921022182      -9.280471676312375E-002 -9.445819652088472E-002
 -9.870788146492314E-002 -0.105103839152196      -0.113879244033018     
 -0.125391267585187      -0.139733244732491      -0.156474141489540     
 -0.174606683389869      -0.192710258591770      -0.209377567606282     
 -0.223624065669699      -0.235025076514617      -0.243705269769171     
 -0.250051775135712      -0.254556093995267      -0.257664145649575     
 -0.106597559157797      -0.108251038915560      -0.112500723859596     
 -0.118896681546868      -0.127672086427689      -0.139184109979850     
 -0.153526087127162      -0.170266983884214      -0.188399525784541     
 -0.206503100986442      -0.223170410000955      -0.237416908064361     
 -0.248817918909290      -0.257498112163844      -0.263844617530386     
 -0.268348936389941      -0.271456988044249      -0.123714658436940     
 -0.125368138194703      -0.129617823138741      -0.136013780826018     
 -0.144789185706841      -0.156301209259005      -0.170643186406311     
 -0.187384083163363      -0.205516625063687      -0.223620200265590     
 -0.240287509280101      -0.254534007343519      -0.265935018188425     
 -0.274615211442995      -0.280961716809537      -0.285466035669085     
 -0.288574087323389      -0.143877007305290      -0.145530487063061     
 -0.149780172007096      -0.156176129694368      -0.164951534575193     
 -0.176463558127361      -0.190805535274666      -0.207546432031717     
 -0.225678973932041      -0.243782549133944      -0.260449858148454     
 -0.274696356211863      -0.286097367056792      -0.294777560311344     
 -0.301124065677880      -0.305628384537440      -0.308736436191740     
 -0.166216552587600      -0.167870032345370      -0.172119717289405     
 -0.178515674976670      -0.187291079857505      -0.198803103409669     
 -0.213145080556967      -0.229885977314027      -0.248018519214357     
 -0.266122094416258      -0.282789403430761      -0.297035901494185     
 -0.308436912339101      -0.317117105593653      -0.323463610960194     
 -0.327967929819752      -0.331075981474058      -0.189350738900746     
 -0.191004218658507      -0.195253903602548      -0.201649861289812     
 -0.210425266170642      -0.221937289722811      -0.236279266870114     
 -0.253020163627162      -0.271152705527478      -0.289256280729393     
 -0.305923589743904      -0.320170087807309      -0.331571098652229     
 -0.340251291906796      -0.346597797273340      -0.351102116132888     
 -0.354210167787195      -0.211690284183056      -0.213343763940818     
 -0.217593448884855      -0.223989406572122      -0.232764811452948     
 -0.244276835005113      -0.258618812152421      -0.275359708909471     
 -0.293492250809801      -0.311595826011703      -0.328263135026211     
 -0.342509633089614      -0.353910643934549      -0.362590837189106     
 -0.368937342555651      -0.373441661415198      -0.376549713069509     
 -0.231852633051412      -0.233506112809164      -0.237755797753210     
 -0.244151755440481      -0.252927160321309      -0.264439183873475     
 -0.278781161020779      -0.295522057777829      -0.313654599678156     
 -0.331758174880039      -0.348425483894567      -0.362671981957985     
 -0.374072992802884      -0.382753186057459      -0.389099691423998     
 -0.393604010283548      -0.396712061937857      -0.248969732330551     
 -0.250623212088316      -0.254872897032355      -0.261268854719633     
 -0.270044259600450      -0.281556283152618      -0.295898260299927     
 -0.312639157056969      -0.330771698957296      -0.348875274159203     
 -0.365542583173713      -0.379789081237135      -0.391190092082048     
 -0.399870285336610      -0.406216790703150      -0.410721109562701     
 -0.413829161217007      -0.262762574725232      -0.264416054482992     
 -0.268665739427029      -0.275061697114287      -0.283837101995113     
 -0.295349125547294      -0.309691102694581      -0.326431999451653     
 -0.344564541351976      -0.362668116553877      -0.379335425568389     
 -0.393581923631808      -0.404982934476723      -0.413663127731281     
 -0.420009633097822      -0.424513951957369      -0.427622003611682     
 -0.273416799352615      -0.275070279110387      -0.279319964054420     
 -0.285715921741693      -0.294491326622521      -0.306003350174681     
 -0.320345327321989      -0.337086224079041      -0.355218765979347     
 -0.373322341181268      -0.389989650195779      -0.404236148259182     
 -0.415637159104113      -0.424317352358658      -0.430663857725216     
 -0.435168176584763      -0.438276228239075      -0.281381005505330     
 -0.283034485263099      -0.287284170207139      -0.293680127894416     
 -0.302455532775229      -0.313967556327398      -0.328309533474708     
 -0.345050430231765      -0.363182972132087      -0.381286547333988     
 -0.397953856348480      -0.412200354411914      -0.423601365256829     
 -0.432281558511396      -0.438628063877917      -0.443132382737470     
 -0.446240434391791      -0.287189582847486      -0.288843062605247     
 -0.293092747549289      -0.299488705236549      -0.308264110117362     
 -0.319776133669554      -0.334118110816858      -0.350859007573899     
 -0.368991549474224      -0.387095124676131      -0.403762433690640     
 -0.418008931754051      -0.429409942598971      -0.438090135853539     
 -0.444436641220077      -0.448940960079626      -0.452049011733930     
 -0.291350347287005      -0.293003827044748      -0.297253511988802     
 -0.303649469676073      -0.312424874556884      -0.323936898109066     
 -0.338278875256367      -0.355019772013403      -0.373152313913750     
 -0.391255889115647      -0.407923198130154      -0.422169696193570     
 -0.433570707038495      -0.442250900293032      -0.448597405659597     
 -0.453101724519150      -0.456209776173451      -0.294292422124882     
 -0.295945901882645      -0.300195586826689      -0.306591544513948     
 -0.315366949394789      -0.326878972946953      -0.341220950094265     
 -0.357961846851314      -0.376094388751628      -0.394197963953541     
 -0.410865272968031      -0.425111771031446      -0.436512781876385     
 -0.445192975130931      -0.451539480497477      -0.456043799357035     
 -0.459151851011340     
  0.000000000000000E+000 -2.059343134687265E-004 -5.967154644315922E-004
 -1.288783171780619E-003 -2.918895425121374E-003 -5.573396522451829E-003
 -9.167771110016921E-003 -1.357217217812317E-002 -1.838427778900438E-002
 -2.320014315178548E-002 -2.763890288787426E-002 -3.143970394449276E-002
 -3.447539076661003E-002 -3.679168976136481E-002 -3.848528426515805E-002
 -3.968682183911389E-002 -4.051708164825068E-002  0.000000000000000E+000
 -2.059343134687265E-004 -5.967154644315922E-004 -1.288783171780619E-003
 -2.918895425121374E-003 -5.573396522451829E-003 -9.167771110016921E-003
 -1.357217217812317E-002 -1.838427778900438E-002 -2.320014315178548E-002
 -2.763890288787426E-002 -3.143970394449276E-002 -3.447539076661003E-002
 -3.679168976136481E-002 -3.848528426515805E-002 -3.968682183911389E-002
 -4.051708164825068E-002  0.000000000000000E+000 -2.059343134687265E-004
 -5.967154644315922E-004 -1.288783171780619E-003 -2.918895425121374E-003
 -5.573396522451829E-003 -9.167771110016921E-003 -1.357217217812317E-002
 -1.838427778900438E-002 -2.320014315178548E-002 -2.763890288787426E-002
 -3.143970394449276E-002 -3.447539076661003E-002 -3.679168976136481E-002
 -3.848528426515805E-002 -3.968682183911389E-002 -4.051708164825068E-002
  0.000000000000000E+000 -2.059343134687265E-004 -5.967154644315922E-004
 -1.288783171780619E-003 -2.918895425121374E-003 -5.573396522451829E-003
 -9.167771110016921E-003 -1.357217217812317E-002 -1.838427778900438E-002
 -2.320014315178548E-002 -2.763890288787426E-002 -3.143970394449276E-002
 -3.447539076661003E-002 -3.679168976136481E-002 -3.848528426515805E-002
 -3.968682183911389E-002 -4.051708164825068E-002  0.000000000000000E+000
 -2.059343134687265E-004 -5.967154644315922E-004 -1.288783171780619E-003
 -2.918895425121374E-003 -5.573396522451829E-003 -9.167771110016921E-003
 -1.357217217812317E-002 -1.838427778900438E-002 -2.320014315178548E-002
 -2.763890288787426E-002 -3.143970394449276E-002 -3.447539076661003E-002
 -3.679168976136481E-002 -3.848528426515805E-002 -3.968682183911389E-002
 -4.051708164825068E-002  0.000000000000000E+000 -2.059343134687265E-004
 -5.967154644315922E-004 -1.288783171780619E-003 -2.918895425121374E-003
 -5.573396522451829E-003 -9.167771110016921E-003 -1.357217217812317E-002
 -1.838427778900438E-002 -2.320014315178548E-002 -2.763890288787426E-002
 -3.143970394449276E-002 -3.447539076661003E-002 -3.679168976136481E-002
 -3.848528426515805E-002 -3.968682183911389E-002 -4.051708164825068E-002
  0.000000000000000E+000 -2.059343134687265E-004 -5.967154644315922E-004
 -1.288783171780619E-003 -2.918895425121374E-003 -5.573396522451829E-003
 -9.167771110016921E-003 -1.357217217812317E-002 -1.838427778900438E-002
 -2.320014315178548E-002 -2.763890288787426E-002 -3.143970394449276E-002
 -3.447539076661003E-002 -3.679168976136481E-002 -3.848528426515805E-002
 -3.968682183911389E-002 -4.051708164825068E-002  0.000000000000000E+000
 -2.059343134687265E-004 -5.967154644315922E-004 -1.288783171780619E-003
 -2.918895425121374E-003 -5.573396522451829E-003 -9.167771110016921E-003
 -1.357217217812317E-002 -1.838427778900438E-002 -2.320014315178548E-002
 -2.763890288787426E-002 -3.143970394449276E-002 -3.447539076661003E-002
 -3.679168976136481E-002 -3.848528426515805E-002 -3.968682183911389E-002
 -4.051708164825068E-002  0.000000000000000E+000 -2.059343134687265E-004
 -5.967154644315922E-004 -1.288783171780619E-003 -2.918895425121374E-003
 -5.573396522451829E-003 -9.167771110016921E-003 -1.357217217812317E-002
 -1.838427778900438E-002 -2.320014315178548E-002 -2.763890288787426E-002
 -3.143970394449276E-002 -3.447539076661003E-002 -3.679168976136481E-002
 -3.848528426515805E-002 -3.968682183911389E-002 -4.051708164825068E-002
  0.000000000000000E+000 -2.059343134687265E-004 -5.967154644315922E-004
 -1.288783171780619E-003 -2.918895425121374E-003 -5.573396522451829E-003
 -9.167771110016921E-003 -1.357217217812317E-002 -1.838427778900438E-002
 -2.320014315178548E-002 -2.763890288787426E-002 -3.143970394449276E-002
 -3.447539076661003E-002 -3.679168976136481E-002 -3.848528426515805E-002
 -3.968682183911389E-002 -4.051708164825068E-002  0.000000000000000E+000
 -2.059343134687265E-004 -5.967154644315922E-004 -1.288783171780619E-003
 -2.918895425121374E-003 -5.573396522451829E-003 -9.167771110016921E-003
 -1.357217217812317E-002 -1.838427778900438E-002 -2.320014315178548E-002
 -2.763890288787426E-002 -3.143970394449276E-002 -3.447539076661003E-002
 -3.679168976136481E-002 -3.848528426515805E-002 -3.968682183911389E-002
 -4.051708164825068E-002  0.000000000000000E+000 -2.059343134687265E-004
 -5.967154644315922E-004 -1.288783171780619E-003 -2.918895425121374E-003
 -5.573396522451829E-003 -9.167771110016921E-003 -1.357217217812317E-002
 -1.838427778900438E-002 -2.320014315178548E-002 -2.763890288787426E-002
 -3.143970394449276E-002 -3.447539076661003E-002 -3.679168976136481E-002
 -3.848528426515805E-002 -3.968682183911389E-002 -4.051708164825068E-002
  0.000000000000000E+000 -2.059343134687265E-004 -5.967154644315922E-004
 -1.288783171780619E-003 -2.918895425121374E-003 -5.573396522451829E-003
 -9.167771110016921E-003 -1.357217217812317E-002 -1.838427778900438E-002
 -2.320014315178548E-002 -2.763890288787426E-002 -3.143970394449276E-002
 -3.447539076661003E-002 -3.679168976136481E-002 -3.848528426515805E-002
 -3.968682183911389E-002 -4.051708164825068E-002  0.000000000000000E+000
 -2.059343134687265E-004 -5.967154644315922E-004 -1.288783171780619E-003
 -2.918895425121374E-003 -5.573396522451829E-003 -9.167771110016921E-003
 -1.357217217812317E-002 -1.838427778900438E-002 -2.320014315178548E-002
 -2.763890288787426E-002 -3.143970394449276E-002 -3.447539076661003E-002
 -3.679168976136481E-002 -3.848528426515805E-002 -3.968682183911389E-002
 -4.051708164825068E-002  0.000000000000000E+000 -2.059343134687265E-004
 -5.967154644315922E-004 -1.288783171780619E-003 -2.918895425121374E-003
 -5.573396522451829E-003 -9.167771110016921E-003 -1.357217217812317E-002
 -1.838427778900438E-002 -2.320014315178548E-002 -2.763890288787426E-002
 -3.143970394449276E-002 -3.447539076661003E-002 -3.679168976136481E-002
 -3.848528426515805E-002 -3.968682183911389E-002 -4.051708164825068E-002
  0.000000000000000E+000 -2.059343134687265E-004 -5.967154644315922E-004
 -1.288783171780619E-003 -2.918895425121374E-003 -5.573396522451829E-003
 -9.167771110016921E-003 -1.357217217812317E-002 -1.838427778900438E-002
 -2.320014315178548E-002 -2.763890288787426E-002 -3.143970394449276E-002
 -3.447539076661003E-002 -3.679168976136481E-002 -3.848528426515805E-002
 -3.968682183911389E-002 -4.051708164825068E-002  0.000000000000000E+000
 -2.059343134687265E-004 -5.967154644315922E-004 -1.288783171780619E-003
 -2.918895425121374E-003 -5.573396522451829E-003 -9.167771110016921E-003
 -1.357217217812317E-002 -1.838427778900438E-002 -2.320014315178548E-002
 -2.763890288787426E-002 -3.143970394449276E-002 -3.447539076661003E-002
 -3.679168976136481E-002 -3.848528426515805E-002 -3.968682183911389E-002
 -4.051708164825068E-002  0.000000000000000E+000 -2.059343134687265E-004
 -5.967154644315922E-004 -1.288783171780619E-003 -2.918895425121374E-003
 -5.573396522451829E-003 -9.167771110016921E-003 -1.357217217812317E-002
 -1.838427778900438E-002 -2.320014315178548E-002 -2.763890288787426E-002
 -3.143970394449276E-002 -3.447539076661003E-002 -3.679168976136481E-002
 -3.848528426515805E-002 -3.968682183911389E-002 -4.051708164825068E-002
  0.000000000000000E+000 -2.059343134687265E-004 -5.967154644315922E-004
 -1.288783171780619E-003 -2.918895425121374E-003 -5.573396522451829E-003
 -9.167771110016921E-003 -1.357217217812317E-002 -1.838427778900438E-002
 -2.320014315178548E-002 -2.763890288787426E-002 -3.143970394449276E-002
 -3.447539076661003E-002 -3.679168976136481E-002 -3.848528426515805E-002
 -3.968682183911389E-002 -4.051708164825068E-002  0.000000000000000E+000
 -2.059343134687265E-004 -5.967154644315922E-004 -1.288783171780619E-003
 -2.918895425121374E-003 -5.573396522451829E-003 -9.167771110016921E-003
 -1.357217217812317E-002 -1.838427778900438E-002 -2.320014315178548E-002
 -2.763890288787426E-002 -3.143970394449276E-002 -3.447539076661003E-002
 -3.679168976136481E-002 -3.848528426515805E-002 -3.968682183911389E-002
 -4.051708164825068E-002
 -0.150531563832245      -0.293487676569220      -0.359986718318458     
 -0.334315359155827      -0.292584395996763      -0.260479531156257     
 -0.236689617692972      -0.229918395344246      -0.232542050251328     
 -0.241411304098946      -0.253880679870912      -0.268359635113611     
 -0.280979042153496      -0.291676686784056      -0.299764952271184     
 -0.304846496810090      -0.182083159884196      -0.365060900537799     
 -0.465378702007607      -0.451229310907314      -0.401911972110470     
 -0.355948168077428      -0.319302585400054      -0.306216962454316     
 -0.308125409077128      -0.320595086580180      -0.339655215171304     
 -0.362463317219497      -0.383631784632725      -0.402170241100947     
 -0.416081308737266      -0.423931987348286      -0.188973170104639     
 -0.381674810175813      -0.491608640010995      -0.481592134674205     
 -0.428331353977323      -0.371826629469758      -0.322928517257514     
 -0.301039133313832      -0.298922208079450      -0.311752346618444     
 -0.334375764296551      -0.362316644654043      -0.388245195035732     
 -0.409810184424756      -0.424803558384638      -0.432593734889746     
 -0.177251112998284      -0.358683393206636      -0.457929204779551     
 -0.434519733926862      -0.366019515302645      -0.292395304921067     
 -0.225814386336124      -0.189185192150099      -0.176937468900397     
 -0.184245006811104      -0.204589430962012      -0.231594785790145     
 -0.256411152714049      -0.276527641059770      -0.290142665023912     
 -0.296963545969208      -0.144563949289798      -0.291841135684919     
 -0.357964222534587      -0.298080111620087      -0.192819365360374     
 -8.402737420895286E-002  1.511388895726048E-002  7.933510308002653E-002
  0.113407558767904       0.122389533067794       0.114082982705576     
  9.609916986950459E-002  7.802423919653563E-002  6.252874320867546E-002
  5.183536098035883E-002  4.657785882525839E-002 -8.529035906748378E-002
 -0.169668891756570      -0.174655968021628      -4.867640598210676E-002
  0.123444106899671       0.296148014173136       0.453860789011772     
  0.568258848116756       0.643597471896062       0.685182445590460     
  0.701678342617939       0.701527917648478       0.695567477739519     
  0.687716008086002       0.681518216430551       0.678445340546722     
  6.987765847624124E-003  2.108120225556105E-002  0.111682951784388     
  0.340138496876466       0.616748884262514       0.890713416143317     
   1.14231773577760        1.33822358060131        1.48115166753739     
   1.57600777642033        1.63218495021441        1.65961531436587     
   1.67179917675149        1.67510735291550        1.67520906813323     
   1.67502154141995       0.135744599150035       0.287564514705351     
  0.511555916658149       0.882129210153652        1.30424499886606     
   1.72043381207195        2.10502011233321        2.41727938054655     
   2.65680279257504        2.82726535583016        2.93904135802847     
   3.00464737723082        3.04167443965284        3.06001411500884     
   3.06835742808432        3.07181668249784       0.296374820323764     
  0.620166890800205        1.01036598701923        1.55724361799822     
   2.16008838016957        2.75357780543529        3.30455624256498     
   3.76296263476213        4.12397066331841        4.38942605445084     
   4.57095081369060        4.68442504754315        4.75250312685817     
   4.78945107224697        4.80784022325612        4.81567068240922     
  0.472383066757439       0.984609418703320        1.55672883179342     
   2.29622197527978        3.09644655346595        3.88364967080326     
   4.61659743547362        5.23519110385975        5.72982346892899     
   6.10030289089491        6.35945989758232        6.52659291131727     
   6.62962900354744        6.68753208522936        6.71720205696824     
   6.72991856565740       0.637207572458848        1.32571565337459     
   2.06809505562353        2.98815708832106        3.97302500945575     
   4.94082214803120        5.84307628923486        6.61086130724636     
   7.23084208431151        7.70115506858019        8.03538098233781     
   8.25533787085410        8.39335673927349        8.47251407329159     
   8.51374012668494        8.53149113618143       0.763223274814886     
   1.58603433021177        2.45837809898384        3.51715170287113     
   4.64275221257000        5.74628636154042        6.77435186152823     
   7.65253044469288        8.36660249237372        8.91431779769998     
   9.30925115912273        9.57378242015684        9.74251498957667     
   9.84099199758396        9.89302112204430        9.91557128751424     
  0.832937405655653        1.72903743824656        2.67243283755622     
   3.80815314455481        5.00908621289914        6.18072381828617     
   7.26788208283882        8.19563088675812        8.95356032814765     
   9.54175801897133        9.97328665175265        10.2682570922105     