 Title = "Wing and Wake"
 VARIABLES = "X" "Y" "Z" "GAM" "skew"
 Zone I=   17 J=   20 K=1  T="Blade 01"
 DATAPACKING=BLOCK
 VARLOCATION=([4]=CELLCENTERED,[5]=CELLCENTERED)
  0.430513849156731       0.429910303135935       0.428359101540892     
  0.426024476763533       0.422821316475764       0.418619247491488     
  0.413384201101012       0.407273511463085       0.400654849541475     
  0.394046760918681       0.387962931959866       0.382762736931117     
  0.378601189324503       0.375432782772238       0.373116208866841     
  0.371472061902648       0.370337574347186       0.438573982141876     
  0.437970436121081       0.436419234526038       0.434084609748682     
  0.430881449460912       0.426679380476635       0.421444334086157     
  0.415333644448234       0.408714982526620       0.402106893903826     
  0.396023064945014       0.390822869916266       0.386661322309651     
  0.383492915757387       0.381176341851988       0.379532194887796     
  0.378397707332337       0.449972847415617       0.449369301394822     
  0.447818099799779       0.445483475022420       0.442280314734651     
  0.438078245750375       0.432843199359897       0.426732509721973     
  0.420113847800361       0.413505759177567       0.407421930218752     
  0.402221735190005       0.398060187583390       0.394891781031126     
  0.392575207125726       0.390931060161534       0.389796572606076     
  0.465886074784706       0.465282528763911       0.463731327168867     
  0.461396702391507       0.458193542103741       0.453991473119466     
  0.448756426728986       0.442645737091062       0.436027075169449     
  0.429418986546655       0.423335157587842       0.418134962559094     
  0.413973414952476       0.410805008400216       0.408488434494816     
  0.406844287530622       0.405709799975165       0.487704880984106     
  0.487101334963312       0.485550133368269       0.483215508590911     
  0.480012348303139       0.475810279318863       0.470575232928386     
  0.464464543290462       0.457845881368851       0.451237792746055     
  0.445153963787244       0.439953768758493       0.435792221151878     
  0.432623814599614       0.430307240694217       0.428663093730024     
  0.427528606174564       0.516893284434778       0.516289738413982     
  0.514738536818940       0.512403912041580       0.509200751753812     
  0.504998682769535       0.499763636379056       0.493652946741133     
  0.487034284819521       0.480426196196728       0.474342367237913     
  0.469142172209164       0.464980624602551       0.461812218050283     
  0.459495644144884       0.457851497180696       0.456717009625236     
  0.554680271533987       0.554076725513191       0.552525523918149     
  0.550190899140787       0.546987738853019       0.542785669868742     
  0.537550623478265       0.531439933840342       0.524821271918729     
  0.518213183295935       0.512129354337122       0.506929159308369     
  0.502767611701758       0.499599205149493       0.497282631244096     
  0.495638484279904       0.494503996724445       0.601574420769446     
  0.600970874748651       0.599419673153608       0.597085048376254     
  0.593881888088484       0.589679819104210       0.584444772713731     
  0.578334083075805       0.571715421154191       0.565107332531397     
  0.559023503572587       0.553823308543837       0.549661760937218     
  0.546493354384958       0.544176780479558       0.542532633515364     
  0.541398145959908       0.656811361407037       0.656207815386245     
  0.654656613791203       0.652321989013844       0.649118828726074     
  0.644916759741798       0.639681713351321       0.633571023713399     
  0.626952361791785       0.620344273168990       0.614260444210173     
  0.609060249181425       0.604898701574814       0.601730295022549     
  0.599413721117150       0.597769574152957       0.596635086597498     
  0.718012967662674       0.717409421641877       0.715858220046835     
  0.713523595269477       0.710320434981710       0.706118365997433     
  0.700883319606956       0.694772629969031       0.688153968047418     
  0.681545879424625       0.675462050465813       0.670261855437065     
  0.666100307830446       0.662931901278182       0.660615327372787     
  0.658971180408590       0.657836692853134       0.781391579173728     
  0.780788033152938       0.779236831557892       0.776902206780533     
  0.773699046492766       0.769496977508490       0.764261931118011     
  0.758151241480089       0.751532579558470       0.744924490935677     
  0.738840661976864       0.733640466948117       0.729478919341499     
  0.726310512789242       0.723993938883838       0.722349791919646     
  0.721215304364188       0.842593185429367       0.841989639408569     
  0.840438437813527       0.838103813036170       0.834900652748399     
  0.830698583764125       0.825463537373644       0.819352847735722     
  0.812734185814107       0.806126097191315       0.800042268232502     
  0.794842073203748       0.790680525597136       0.787512119044873     
  0.785195545139476       0.783551398175283       0.782416910619819     
  0.897830126066956       0.897226580046163       0.895675378451118     
  0.893340753673759       0.890137593385990       0.885935524401714     
  0.880700478011232       0.874589788373312       0.867971126451702     
  0.861363037828902       0.855279208870094       0.850079013841344     
  0.845917466234723       0.842749059682465       0.840432485777066     
  0.838788338812873       0.837653851257411       0.944724275302415     
  0.944120729281625       0.942569527686583       0.940234902909220     
  0.937031742621451       0.932829673637177       0.927594627246699     
  0.921483937608775       0.914865275687162       0.908257187064371     
  0.902173358105555       0.896973163076808       0.892811615470191     
  0.889643208917927       0.887326635012530       0.885682488048336     
  0.884548000492879       0.982511262401624       0.981907716380831     
  0.980356514785786       0.978021890008426       0.974818729720665     
  0.970616660736386       0.965381614345903       0.959270924707984     
  0.952652262786371       0.946044174163574       0.939960345204763     
  0.934760150176014       0.930598602569400       0.927430196017136     
  0.925113622111734       0.923469475147546       0.922334987592085     
   1.01169966585229        1.01109611983150        1.00954491823646     
   1.00721029345910        1.00400713317133       0.999805064187058     
  0.994570017796573       0.988459328158657       0.981840666237035     
  0.975232577614254       0.969148748655438       0.963948553626686     
  0.959787006020071       0.956618599467807       0.954302025562410     
  0.952657878598217       0.951523391042758        1.03351847205170     
   1.03291492603091        1.03136372443586        1.02902909965850     
   1.02582593937073        1.02162387038646        1.01638882399598     
   1.01027813435805        1.00365947243644       0.997051383813651     
  0.990967554854828       0.985767359826083       0.981605812219468     
  0.978437405667207       0.976120831761802       0.974476684797617     
  0.973342197242153        1.04943169942079        1.04882815339999     
   1.04727695180495        1.04494232702760        1.04173916673982     
   1.03753709775555        1.03230205136507        1.02619136172715     
   1.01957269980553        1.01296461118274        1.00688078222392     
   1.00168058719517       0.997519039588560       0.994350633036297     
  0.992034059130900       0.990389912166709       0.989255424611243     
   1.06083056469453        1.06022701867373        1.05867581707868     
   1.05634119230133        1.05313803201356        1.04893596302929     
   1.04370091663881        1.03759022700088        1.03097156507927     
   1.02436347645647        1.01827964749766        1.01307945246891     
   1.00891790486230        1.00574949831003        1.00343292440464     
   1.00178877744044        1.00065428988499        1.06889069767967     
   1.06828715165889        1.06673595006384        1.06440132528648     
   1.06119816499871        1.05699609601443        1.05176104962395     
   1.04565035998603        1.03903169806442        1.03242360944163     
   1.02633978048281        1.02113958545406        1.01697803784745     
   1.01380963129519        1.01149305738978        1.00984891042559     
   1.00871442287013     
 -6.127486936345835E-002 -6.292834912121673E-002 -6.717803406525771E-002
 -7.357399175252957E-002 -8.234939663335204E-002 -9.386142018552009E-002
 -0.108203397332825      -0.124944294089876      -0.143076835990202     
 -0.161180411192104      -0.177847720206613      -0.192094218270033     
 -0.203495229114948      -0.212175422369506      -0.218521927736050     
 -0.223026246595599      -0.226134298249906      -6.421694420134740E-002
 -6.587042395910789E-002 -7.012010890314613E-002 -7.651606659042007E-002
 -8.529147147124282E-002 -9.680349502340957E-002 -0.111145472170714     
 -0.127886368927766      -0.146018910828091      -0.164122486029994     
 -0.180789795044504      -0.195036293107921      -0.206437303952839     
 -0.215117497207397      -0.221464002573938      -0.225968321433491     
 -0.229076373087797      -6.837770864086380E-002 -7.003118839862317E-002
 -7.428087334266045E-002 -8.067683102993439E-002 -8.945223591075674E-002
 -0.100964259462924      -0.115306236610228      -0.132047133367280     
 -0.150179675267607      -0.168283250469509      -0.184950559484019     
 -0.199197057547437      -0.210598068392354      -0.219278261646911     
 -0.225624767013454      -0.230129085873002      -0.233237137527313     
 -7.418628598300961E-002 -7.583976574076864E-002 -8.008945068480701E-002
 -8.648540837208100E-002 -9.526081325290395E-002 -0.106772836805070     
 -0.121114813952375      -0.137855710709426      -0.155988252609754     
 -0.174091827811655      -0.190759136826164      -0.205005634889583     
 -0.216406645734499      -0.225086838989059      -0.231433344355599     
 -0.235937663215152      -0.239045714869458      -8.215049213572920E-002
 -8.380397189348883E-002 -8.805365683752711E-002 -9.444961452479990E-002
 -0.103225019405624      -0.114737042957790      -0.129079020105095     
 -0.145819916862146      -0.163952458762473      -0.182056033964373     
 -0.198723342978885      -0.212969841042303      -0.224370851887220     
 -0.233051045141776      -0.239397550508320      -0.243901869367871     
 -0.247009921022177      -9.280471676311865E-002 -9.445819652087785E-002
 -9.870788146491641E-002 -0.105103839152189      -0.113879244033012     
 -0.125391267585180      -0.139733244732485      -0.156474141489535     
 -0.174606683389862      -0.192710258591763      -0.209377567606273     
 -0.223624065669692      -0.235025076514609      -0.243705269769166     
 -0.250051775135707      -0.254556093995260      -0.257664145649568     
 -0.106597559157792      -0.108251038915551      -0.112500723859589     
 -0.118896681546862      -0.127672086427687      -0.139184109979850     
 -0.153526087127158      -0.170266983884208      -0.188399525784535     
 -0.206503100986436      -0.223170410000947      -0.237416908064361     
 -0.248817918909282      -0.257498112163838      -0.263844617530383     
 -0.268348936389934      -0.271456988044241      -0.123714658436937     
 -0.125368138194697      -0.129617823138735      -0.136013780826010     
 -0.144789185706833      -0.156301209259001      -0.170643186406304     
 -0.187384083163356      -0.205516625063681      -0.223620200265582     
 -0.240287509280095      -0.254534007343511      -0.265935018188425     
 -0.274615211442986      -0.280961716809529      -0.285466035669077     
 -0.288574087323386      -0.143877007305290      -0.145530487063053     
 -0.149780172007092      -0.156176129694360      -0.164951534575186     
 -0.176463558127355      -0.190805535274658      -0.207546432031710     
 -0.225678973932037      -0.243782549133936      -0.260449858148446     
 -0.274696356211862      -0.286097367056783      -0.294777560311339     
 -0.301124065677880      -0.305628384537433      -0.308736436191740     
 -0.166216552587600      -0.167870032345360      -0.172119717289398     
 -0.178515674976670      -0.187291079857495      -0.198803103409661     
 -0.213145080556966      -0.229885977314018      -0.248018519214346     
 -0.266122094416245      -0.282789403430756      -0.297035901494176     
 -0.308436912339091      -0.317117105593650      -0.323463610960190     
 -0.327967929819741      -0.331075981474051      -0.189350738900736     
 -0.191004218658498      -0.195253903602536      -0.201649861289806     
 -0.210425266170631      -0.221937289722800      -0.236279266870105     
 -0.253020163627157      -0.271152705527478      -0.289256280729382     
 -0.305923589743892      -0.320170087807309      -0.331571098652227     
 -0.340251291906784      -0.346597797273329      -0.351102116132880     
 -0.354210167787185      -0.211690284183046      -0.213343763940808     
 -0.217593448884846      -0.223989406572116      -0.232764811452941     
 -0.244276835005108      -0.258618812152412      -0.275359708909462     
 -0.293492250809791      -0.311595826011693      -0.328263135026201     
 -0.342509633089614      -0.353910643934537      -0.362590837189095     
 -0.368937342555637      -0.373441661415188      -0.376549713069495     
 -0.231852633051401      -0.233506112809157      -0.237755797753198     
 -0.244151755440471      -0.252927160321296      -0.264439183873462     
 -0.278781161020765      -0.295522057777819      -0.313654599678145     
 -0.331758174880039      -0.348425483894555      -0.362671981957973     
 -0.374072992802884      -0.382753186057446      -0.389099691423988     
 -0.393604010283542      -0.396712061937845      -0.248969732330546     
 -0.250623212088309      -0.254872897032346      -0.261268854719618     
 -0.270044259600439      -0.281556283152608      -0.295898260299915     
 -0.312639157056959      -0.330771698957290      -0.348875274159190     
 -0.365542583173701      -0.379789081237121      -0.391190092082038     
 -0.399870285336595      -0.406216790703136      -0.410721109562688     
 -0.413829161216997      -0.262762574725219      -0.264416054482979     
 -0.268665739427017      -0.275061697114287      -0.283837101995113     
 -0.295349125547283      -0.309691102694581      -0.326431999451638     
 -0.344564541351966      -0.362668116553863      -0.379335425568375     
 -0.393581923631791      -0.404982934476710      -0.413663127731268     
 -0.420009633097808      -0.424513951957359      -0.427622003611668     
 -0.273416799352606      -0.275070279110371      -0.279319964054407     
 -0.285715921741681      -0.294491326622504      -0.306003350174670     
 -0.320345327321974      -0.337086224079027      -0.355218765979347     
 -0.373322341181255      -0.389989650195765      -0.404236148259181     
 -0.415637159104100      -0.424317352358657      -0.430663857725199     
 -0.435168176584752      -0.438276228239059      -0.281381005505330     
 -0.283034485263090      -0.287284170207127      -0.293680127894399     
 -0.302455532775220      -0.313967556327391      -0.328309533474695     
 -0.345050430231746      -0.363182972132073      -0.381286547333977     
 -0.397953856348479      -0.412200354411903      -0.423601365256820     
 -0.432281558511377      -0.438628063877915      -0.443132382737470     
 -0.446240434391775      -0.287189582847476      -0.288843062605234     
 -0.293092747549274      -0.299488705236547      -0.308264110117362     
 -0.319776133669539      -0.334118110816841      -0.350859007573892     
 -0.368991549474219      -0.387095124676119      -0.403762433690629     
 -0.418008931754050      -0.429409942598965      -0.438090135853525     
 -0.444436641220065      -0.448940960079618      -0.452049011733920     
 -0.291350347286990      -0.293003827044748      -0.297253511988787     
 -0.303649469676061      -0.312424874556880      -0.323936898109053     
 -0.338278875256355      -0.355019772013403      -0.373152313913735     
 -0.391255889115634      -0.407923198130144      -0.422169696193562     
 -0.433570707038478      -0.442250900293032      -0.448597405659580     
 -0.453101724519134      -0.456209776173440      -0.294292422124879     
 -0.295945901882640      -0.300195586826678      -0.306591544513949     
 -0.315366949394775      -0.326878972946940      -0.341220950094246     
 -0.357961846851297      -0.376094388751622      -0.394197963953524     
 -0.410865272968031      -0.425111771031446      -0.436512781876369     
 -0.445192975130926      -0.451539480497467      -0.456043799357021     
 -0.459151851011328     
  0.000000000000000E+000 -2.059343134687265E-004 -5.967154644315922E-004
 -1.288783171780619E-003 -2.918895425121374E-003 -5.573396522451829E-003
 -9.167771110016921E-003 -1.357217217812317E-002 -1.838427778900438E-002
 -2.320014315178548E-002 -2.763890288787426E-002 -3.143970394449276E-002
 -3.447539076661003E-002 -3.679168976136481E-002 -3.848528426515805E-002
 -3.968682183911389E-002 -4.051708164825068E-002  0.000000000000000E+000
 -2.059343134687265E-004 -5.967154644315922E-004 -1.288783171780619E-003
 -2.918895425121374E-003 -5.573396522451829E-003 -9.167771110016921E-003
 -1.357217217812317E-002 -1.838427778900438E-002 -2.320014315178548E-002
 -2.763890288787426E-002 -3.143970394449276E-002 -3.447539076661003E-002
 -3.679168976136481E-002 -3.848528426515805E-002 -3.968682183911389E-002
 -4.051708164825068E-002  0.000000000000000E+000 -2.059343134687265E-004
 -5.967154644315922E-004 -1.288783171780619E-003 -2.918895425121374E-003
 -5.573396522451829E-003 -9.167771110016921E-003 -1.357217217812317E-002
 -1.838427778900438E-002 -2.320014315178548E-002 -2.763890288787426E-002
 -3.143970394449276E-002 -3.447539076661003E-002 -3.679168976136481E-002
 -3.848528426515805E-002 -3.968682183911389E-002 -4.051708164825068E-002
  0.000000000000000E+000 -2.059343134687265E-004 -5.967154644315922E-004
 -1.288783171780619E-003 -2.918895425121374E-003 -5.573396522451829E-003
 -9.167771110016921E-003 -1.357217217812317E-002 -1.838427778900438E-002
 -2.320014315178548E-002 -2.763890288787426E-002 -3.143970394449276E-002
 -3.447539076661003E-002 -3.679168976136481E-002 -3.848528426515805E-002
 -3.968682183911389E-002 -4.051708164825068E-002  0.000000000000000E+000
 -2.059343134687265E-004 -5.967154644315922E-004 -1.288783171780619E-003
 -2.918895425121374E-003 -5.573396522451829E-003 -9.167771110016921E-003
 -1.357217217812317E-002 -1.838427778900438E-002 -2.320014315178548E-002
 -2.763890288787426E-002 -3.143970394449276E-002 -3.447539076661003E-002
 -3.679168976136481E-002 -3.848528426515805E-002 -3.968682183911389E-002
 -4.051708164825068E-002  0.000000000000000E+000 -2.059343134687265E-004
 -5.967154644315922E-004 -1.288783171780619E-003 -2.918895425121374E-003
 -5.573396522451829E-003 -9.167771110016921E-003 -1.357217217812317E-002
 -1.838427778900438E-002 -2.320014315178548E-002 -2.763890288787426E-002
 -3.143970394449276E-002 -3.447539076661003E-002 -3.679168976136481E-002
 -3.848528426515805E-002 -3.968682183911389E-002 -4.051708164825068E-002
  0.000000000000000E+000 -2.059343134687265E-004 -5.967154644315922E-004
 -1.288783171780619E-003 -2.918895425121374E-003 -5.573396522451829E-003
 -9.167771110016921E-003 -1.357217217812317E-002 -1.838427778900438E-002
 -2.320014315178548E-002 -2.763890288787426E-002 -3.143970394449276E-002
 -3.447539076661003E-002 -3.679168976136481E-002 -3.848528426515805E-002
 -3.968682183911389E-002 -4.051708164825068E-002  0.000000000000000E+000
 -2.059343134687265E-004 -5.967154644315922E-004 -1.288783171780619E-003
 -2.918895425121374E-003 -5.573396522451829E-003 -9.167771110016921E-003
 -1.357217217812317E-002 -1.838427778900438E-002 -2.320014315178548E-002
 -2.763890288787426E-002 -3.143970394449276E-002 -3.447539076661003E-002
 -3.679168976136481E-002 -3.848528426515805E-002 -3.968682183911389E-002
 -4.051708164825068E-002  0.000000000000000E+000 -2.059343134687265E-004
 -5.967154644315922E-004 -1.288783171780619E-003 -2.918895425121374E-003
 -5.573396522451829E-003 -9.167771110016921E-003 -1.357217217812317E-002
 -1.838427778900438E-002 -2.320014315178548E-002 -2.763890288787426E-002
 -3.143970394449276E-002 -3.447539076661003E-002 -3.679168976136481E-002
 -3.848528426515805E-002 -3.968682183911389E-002 -4.051708164825068E-002
  0.000000000000000E+000 -2.059343134687265E-004 -5.967154644315922E-004
 -1.288783171780619E-003 -2.918895425121374E-003 -5.573396522451829E-003
 -9.167771110016921E-003 -1.357217217812317E-002 -1.838427778900438E-002
 -2.320014315178548E-002 -2.763890288787426E-002 -3.143970394449276E-002
 -3.447539076661003E-002 -3.679168976136481E-002 -3.848528426515805E-002
 -3.968682183911389E-002 -4.051708164825068E-002  0.000000000000000E+000
 -2.059343134687265E-004 -5.967154644315922E-004 -1.288783171780619E-003
 -2.918895425121374E-003 -5.573396522451829E-003 -9.167771110016921E-003
 -1.357217217812317E-002 -1.838427778900438E-002 -2.320014315178548E-002
 -2.763890288787426E-002 -3.143970394449276E-002 -3.447539076661003E-002
 -3.679168976136481E-002 -3.848528426515805E-002 -3.968682183911389E-002
 -4.051708164825068E-002  0.000000000000000E+000 -2.059343134687265E-004
 -5.967154644315922E-004 -1.288783171780619E-003 -2.918895425121374E-003
 -5.573396522451829E-003 -9.167771110016921E-003 -1.357217217812317E-002
 -1.838427778900438E-002 -2.320014315178548E-002 -2.763890288787426E-002
 -3.143970394449276E-002 -3.447539076661003E-002 -3.679168976136481E-002
 -3.848528426515805E-002 -3.968682183911389E-002 -4.051708164825068E-002
  0.000000000000000E+000 -2.059343134687265E-004 -5.967154644315922E-004
 -1.288783171780619E-003 -2.918895425121374E-003 -5.573396522451829E-003
 -9.167771110016921E-003 -1.357217217812317E-002 -1.838427778900438E-002
 -2.320014315178548E-002 -2.763890288787426E-002 -3.143970394449276E-002
 -3.447539076661003E-002 -3.679168976136481E-002 -3.848528426515805E-002
 -3.968682183911389E-002 -4.051708164825068E-002  0.000000000000000E+000
 -2.059343134687265E-004 -5.967154644315922E-004 -1.288783171780619E-003
 -2.918895425121374E-003 -5.573396522451829E-003 -9.167771110016921E-003
 -1.357217217812317E-002 -1.838427778900438E-002 -2.320014315178548E-002
 -2.763890288787426E-002 -3.143970394449276E-002 -3.447539076661003E-002
 -3.679168976136481E-002 -3.848528426515805E-002 -3.968682183911389E-002
 -4.051708164825068E-002  0.000000000000000E+000 -2.059343134687265E-004
 -5.967154644315922E-004 -1.288783171780619E-003 -2.918895425121374E-003
 -5.573396522451829E-003 -9.167771110016921E-003 -1.357217217812317E-002
 -1.838427778900438E-002 -2.320014315178548E-002 -2.763890288787426E-002
 -3.143970394449276E-002 -3.447539076661003E-002 -3.679168976136481E-002
 -3.848528426515805E-002 -3.968682183911389E-002 -4.051708164825068E-002
  0.000000000000000E+000 -2.059343134687265E-004 -5.967154644315922E-004
 -1.288783171780619E-003 -2.918895425121374E-003 -5.573396522451829E-003
 -9.167771110016921E-003 -1.357217217812317E-002 -1.838427778900438E-002
 -2.320014315178548E-002 -2.763890288787426E-002 -3.143970394449276E-002
 -3.447539076661003E-002 -3.679168976136481E-002 -3.848528426515805E-002
 -3.968682183911389E-002 -4.051708164825068E-002  0.000000000000000E+000
 -2.059343134687265E-004 -5.967154644315922E-004 -1.288783171780619E-003
 -2.918895425121374E-003 -5.573396522451829E-003 -9.167771110016921E-003
 -1.357217217812317E-002 -1.838427778900438E-002 -2.320014315178548E-002
 -2.763890288787426E-002 -3.143970394449276E-002 -3.447539076661003E-002
 -3.679168976136481E-002 -3.848528426515805E-002 -3.968682183911389E-002
 -4.051708164825068E-002  0.000000000000000E+000 -2.059343134687265E-004
 -5.967154644315922E-004 -1.288783171780619E-003 -2.918895425121374E-003
 -5.573396522451829E-003 -9.167771110016921E-003 -1.357217217812317E-002
 -1.838427778900438E-002 -2.320014315178548E-002 -2.763890288787426E-002
 -3.143970394449276E-002 -3.447539076661003E-002 -3.679168976136481E-002
 -3.848528426515805E-002 -3.968682183911389E-002 -4.051708164825068E-002
  0.000000000000000E+000 -2.059343134687265E-004 -5.967154644315922E-004
 -1.288783171780619E-003 -2.918895425121374E-003 -5.573396522451829E-003
 -9.167771110016921E-003 -1.357217217812317E-002 -1.838427778900438E-002
 -2.320014315178548E-002 -2.763890288787426E-002 -3.143970394449276E-002
 -3.447539076661003E-002 -3.679168976136481E-002 -3.848528426515805E-002
 -3.968682183911389E-002 -4.051708164825068E-002  0.000000000000000E+000
 -2.059343134687265E-004 -5.967154644315922E-004 -1.288783171780619E-003
 -2.918895425121374E-003 -5.573396522451829E-003 -9.167771110016921E-003
 -1.357217217812317E-002 -1.838427778900438E-002 -2.320014315178548E-002
 -2.763890288787426E-002 -3.143970394449276E-002 -3.447539076661003E-002
 -3.679168976136481E-002 -3.848528426515805E-002 -3.968682183911389E-002
 -4.051708164825068E-002
 -0.169397266329571      -0.331128146915110      -0.413390111781780     
 -0.402422700754989      -0.375302574636348      -0.357755176046914     
 -0.347958607106105      -0.353796356990147      -0.366854915043755     
 -0.383484106279002      -0.400979397315745      -0.418101058208251     
 -0.431624310945309      -0.442231069558357      -0.449985039058584     
 -0.454993463422731      -0.210025744354512      -0.422392083884480     
 -0.549101848006601      -0.560140267173667      -0.535722119020136     
 -0.514297090268888      -0.501056146730091      -0.509020901911334     
 -0.528453722087960      -0.554231467402313      -0.582428127567691     
 -0.610924603083348      -0.635488850536018      -0.656191431486644     
 -0.671589656851386      -0.680305439327800      -0.226314016819162     
 -0.458801079699411      -0.605320178560267      -0.630994740164419     
 -0.613412331232215      -0.592093531754318      -0.576667942340378     
 -0.584897999948415      -0.608057069440224      -0.640520389982994     
 -0.677312412261833      -0.714913407605544      -0.747240359323218     
 -0.772865421678398      -0.790168232666298      -0.799000500250838     
 -0.225837243544717      -0.459229462395488      -0.606615324096456     
 -0.630627434398428      -0.609986082429069      -0.583844235821703     
 -0.562558374264124      -0.566830615967469      -0.589201993672309     
 -0.623864358318023      -0.664442199689702      -0.705483510655536     
 -0.739409348271843      -0.764906319844998      -0.781305130665463     
 -0.789295120295197      -0.207134253827148      -0.421378438645779     
 -0.549640348659210      -0.551119181887423      -0.508035680459523     
 -0.461210795258635      -0.421426084610810      -0.411049685925397     
 -0.422836938127650      -0.450359481676957      -0.485756346720423     
 -0.522358822134531      -0.552215473275500      -0.574457661472138     
 -0.588578068445692      -0.595277728621904      -0.164823323799188     
 -0.334304035949575      -0.418206049258730      -0.370090317743816     
 -0.276873439180400      -0.182900644617803      -0.100755588847334     
 -5.509628893898655E-002 -3.846617532465477E-002 -4.368428264876446E-002
 -6.186137994965631E-002 -8.571842797869644E-002 -0.106611539638634     
 -0.123047143567319      -0.133675627028325      -0.138645668868166     
 -9.114343166242007E-002 -0.182005865878458      -0.188613153568881     
 -5.588954052288602E-002  0.123872569452180       0.301303753908810     
  0.460281894349005       0.571885590276207       0.642743553990106     
  0.680077872507199       0.693562133050826       0.691669693825928     
  0.685196707130527       0.677597667703454       0.671957892759823     
  0.669284211432284       2.167134387328445E-002  5.151514608504671E-002
  0.162627629282366       0.422207930200153       0.732210661042607     
   1.03680512131910        1.31441779313441        1.52933347691697     
   1.68557696062378        1.78942492467928        1.85152210899907     
   1.88270650775771        1.89755032623501        1.90272969344231     
   1.90405762872005        1.90446646326519       0.176459910367961     
  0.371995337679824       0.643476659487145        1.07362641510455     
   1.55854748251120        2.03462875362544        2.47302626032316     
   2.82893472659665        3.10218647941532        3.29733672313209     
   3.42625719457467        3.50307615640591        3.54736173569950     
   3.57009729097428        3.58087270932723        3.58539257394075     
  0.363495702127010       0.759124620513170        1.22309403871095     
   1.85597003034206        2.54810867149635        3.22728152232964     
   3.85627328731259        4.37998587271745        4.79332426010999     
   5.09875077521476        5.30935527752819        5.44276033846808     
   5.52397235148425        5.56887607350324        5.59159907313756     
   5.60130339313629       0.555504867151363        1.15627839339605     
   1.81683658044816        2.65563476014894        3.55733237367365     
   4.44113202589648        5.26178224319729        5.95460409568434     
   6.51026652015153        6.92936391627810        7.22579741207769     
   7.41993399142598        7.54156078546182        7.61112885639751     
   7.64730280071181        7.66288024915400       0.715569605856931     
   1.48684569621858        2.31046125659337        3.31991618722364     
   4.39385957953811        5.44393897187512        6.41894434857788     
   7.24768606442368        7.91920676837989        8.43339387805933     
   8.80421426314797        9.05293562374029        9.21215509129786     
   9.30538477737460        9.35479124028681        9.37624591262141     
  0.815755757786748        1.69273470450606        2.61705821696239     
   3.73211933935770        4.90973804567529        6.05550384594531     
   7.11551752698968        8.01714123739522        8.75249364672404     
   9.32341588750535        9.74334756443613        10.0315924509892     