 Title = "Wing and Wake"
 VARIABLES = "X" "Y" "Z" "GAM" "skew"
 Zone I=   17 J=   20 K=1  T="Blade 01"
 DATAPACKING=BLOCK
 VARLOCATION=([4]=CELLCENTERED,[5]=CELLCENTERED)
  0.430513849156729       0.429910303135933       0.428359101540891     
  0.426024476763532       0.422821316475763       0.418619247491487     
  0.413384201101010       0.407273511463085       0.400654849541472     
  0.394046760918679       0.387962931959866       0.382762736931116     
  0.378601189324502       0.375432782772237       0.373116208866840     
  0.371472061902647       0.370337574347187       0.438573982141875     
  0.437970436121080       0.436419234526038       0.434084609748680     
  0.430881449460911       0.426679380476634       0.421444334086155     
  0.415333644448233       0.408714982526620       0.402106893903825     
  0.396023064945013       0.390822869916264       0.386661322309649     
  0.383492915757386       0.381176341851987       0.379532194887795     
  0.378397707332335       0.449972847415615       0.449369301394820     
  0.447818099799778       0.445483475022419       0.442280314734650     
  0.438078245750374       0.432843199359896       0.426732509721972     
  0.420113847800359       0.413505759177566       0.407421930218752     
  0.402221735190003       0.398060187583388       0.394891781031125     
  0.392575207125726       0.390931060161534       0.389796572606075     
  0.465886074784704       0.465282528763909       0.463731327168866     
  0.461396702391507       0.458193542103739       0.453991473119463     
  0.448756426728985       0.442645737091061       0.436027075169448     
  0.429418986546654       0.423335157587841       0.418134962559092     
  0.413973414952477       0.410805008400214       0.408488434494815     
  0.406844287530622       0.405709799975163       0.487704880984104     
  0.487101334963309       0.485550133368267       0.483215508590909     
  0.480012348303138       0.475810279318862       0.470575232928385     
  0.464464543290461       0.457845881368849       0.451237792746054     
  0.445153963787242       0.439953768758491       0.435792221151877     
  0.432623814599613       0.430307240694215       0.428663093730023     
  0.427528606174563       0.516893284434776       0.516289738413981     
  0.514738536818938       0.512403912041579       0.509200751753810     
  0.504998682769534       0.499763636379055       0.493652946741132     
  0.487034284819519       0.480426196196725       0.474342367237913     
  0.469142172209163       0.464980624602549       0.461812218050284     
  0.459495644144884       0.457851497180694       0.456717009625235     
  0.554680271533984       0.554076725513189       0.552525523918146     
  0.550190899140786       0.546987738853017       0.542785669868742     
  0.537550623478264       0.531439933840340       0.524821271918727     
  0.518213183295934       0.512129354337121       0.506929159308369     
  0.502767611701757       0.499599205149493       0.497282631244094     
  0.495638484279902       0.494503996724443       0.601574420769445     
  0.600970874748650       0.599419673153608       0.597085048376250     
  0.593881888088482       0.589679819104206       0.584444772713726     
  0.578334083075802       0.571715421154190       0.565107332531396     
  0.559023503572584       0.553823308543835       0.549661760937218     
  0.546493354384956       0.544176780479557       0.542532633515364     
  0.541398145959906       0.656811361407037       0.656207815386243     
  0.654656613791201       0.652321989013842       0.649118828726072     
  0.644916759741796       0.639681713351319       0.633571023713396     
  0.626952361791782       0.620344273168989       0.614260444210174     
  0.609060249181424       0.604898701574811       0.601730295022547     
  0.599413721117149       0.597769574152956       0.596635086597496     
  0.718012967662672       0.717409421641875       0.715858220046833     
  0.713523595269475       0.710320434981707       0.706118365997431     
  0.700883319606953       0.694772629969028       0.688153968047416     
  0.681545879424623       0.675462050465811       0.670261855437061     
  0.666100307830445       0.662931901278181       0.660615327372784     
  0.658971180408590       0.657836692853132       0.781391579173726     
  0.780788033152934       0.779236831557889       0.776902206780531     
  0.773699046492761       0.769496977508486       0.764261931118007     
  0.758151241480085       0.751532579558470       0.744924490935675     
  0.738840661976863       0.733640466948114       0.729478919341499     
  0.726310512789239       0.723993938883837       0.722349791919645     
  0.721215304364186       0.842593185429362       0.841989639408566     
  0.840438437813524       0.838103813036166       0.834900652748397     
  0.830698583764121       0.825463537373642       0.819352847735718     
  0.812734185814105       0.806126097191312       0.800042268232498     
  0.794842073203747       0.790680525597133       0.787512119044871     
  0.785195545139472       0.783551398175280       0.782416910619819     
  0.897830126066953       0.897226580046158       0.895675378451116     
  0.893340753673757       0.890137593385988       0.885935524401712     
  0.880700478011232       0.874589788373310       0.867971126451698     
  0.861363037828902       0.855279208870091       0.850079013841341     
  0.845917466234723       0.842749059682463       0.840432485777063     
  0.838788338812870       0.837653851257410       0.944724275302413     
  0.944120729281620       0.942569527686578       0.940234902909218     
  0.937031742621448       0.932829673637174       0.927594627246695     
  0.921483937608772       0.914865275687159       0.908257187064366     
  0.902173358105553       0.896973163076804       0.892811615470189     
  0.889643208917925       0.887326635012527       0.885682488048334     
  0.884548000492875       0.982511262401623       0.981907716380828     
  0.980356514785784       0.978021890008426       0.974818729720660     
  0.970616660736382       0.965381614345902       0.959270924707980     
  0.952652262786367       0.946044174163573       0.939960345204760     
  0.934760150176012       0.930598602569398       0.927430196017133     
  0.925113622111733       0.923469475147543       0.922334987592083     
   1.01169966585229        1.01109611983150        1.00954491823646     
   1.00721029345910        1.00400713317133       0.999805064187053     
  0.994570017796572       0.988459328158654       0.981840666237035     
  0.975232577614246       0.969148748655432       0.963948553626681     
  0.959787006020067       0.956618599467803       0.954302025562406     
  0.952657878598213       0.951523391042755        1.03351847205170     
   1.03291492603090        1.03136372443586        1.02902909965850     
   1.02582593937073        1.02162387038645        1.01638882399597     
   1.01027813435805        1.00365947243644       0.997051383813646     
  0.990967554854829       0.985767359826081       0.981605812219466     
  0.978437405667205       0.976120831761804       0.974476684797615     
  0.973342197242153        1.04943169942079        1.04882815339999     
   1.04727695180495        1.04494232702759        1.04173916673982     
   1.03753709775554        1.03230205136506        1.02619136172714     
   1.01957269980553        1.01296461118273        1.00688078222392     
   1.00168058719517       0.997519039588556       0.994350633036294     
  0.992034059130895       0.990389912166704       0.989255424611242     
   1.06083056469452        1.06022701867373        1.05867581707868     
   1.05634119230133        1.05313803201356        1.04893596302928     
   1.04370091663880        1.03759022700088        1.03097156507927     
   1.02436347645647        1.01827964749766        1.01307945246891     
   1.00891790486230        1.00574949831003        1.00343292440463     
   1.00178877744044        1.00065428988498        1.06889069767967     
   1.06828715165888        1.06673595006383        1.06440132528647     
   1.06119816499870        1.05699609601443        1.05176104962395     
   1.04565035998602        1.03903169806441        1.03242360944162     
   1.02633978048281        1.02113958545406        1.01697803784744     
   1.01380963129518        1.01149305738978        1.00984891042559     
   1.00871442287013     
 -6.127486936345708E-002 -6.292834912121587E-002 -6.717803406525523E-002
 -7.357399175252777E-002 -8.234939663335034E-002 -9.386142018551824E-002
 -0.108203397332823      -0.124944294089874      -0.143076835990201     
 -0.161180411192102      -0.177847720206612      -0.192094218270031     
 -0.203495229114946      -0.212175422369505      -0.218521927736047     
 -0.223026246595598      -0.226134298249904      -6.421694420134599E-002
 -6.587042395910583E-002 -7.012010890314437E-002 -7.651606659041779E-002
 -8.529147147124040E-002 -9.680349502340793E-002 -0.111145472170712     
 -0.127886368927764      -0.146018910828090      -0.164122486029991     
 -0.180789795044502      -0.195036293107920      -0.206437303952837     
 -0.215117497207395      -0.221464002573937      -0.225968321433488     
 -0.229076373087795      -6.837770864086175E-002 -7.003118839862102E-002
 -7.428087334265926E-002 -8.067683102993246E-002 -8.945223591075477E-002
 -0.100964259462923      -0.115306236610227      -0.132047133367279     
 -0.150179675267605      -0.168283250469506      -0.184950559484017     
 -0.199197057547435      -0.210598068392351      -0.219278261646909     
 -0.225624767013453      -0.230129085873002      -0.233237137527310     
 -7.418628598300800E-002 -7.583976574076685E-002 -8.008945068480583E-002
 -8.648540837207823E-002 -9.526081325290206E-002 -0.106772836805069     
 -0.121114813952374      -0.137855710709424      -0.155988252609752     
 -0.174091827811652      -0.190759136826162      -0.205005634889581     
 -0.216406645734498      -0.225086838989057      -0.231433344355597     
 -0.235937663215149      -0.239045714869455      -8.215049213572763E-002
 -8.380397189348680E-002 -8.805365683752470E-002 -9.444961452479811E-002
 -0.103225019405621      -0.114737042957788      -0.129079020105093     
 -0.145819916862144      -0.163952458762471      -0.182056033964371     
 -0.198723342978883      -0.212969841042301      -0.224370851887217     
 -0.233051045141774      -0.239397550508317      -0.243901869367868     
 -0.247009921022175      -9.280471676311673E-002 -9.445819652087592E-002
 -9.870788146491392E-002 -0.105103839152187      -0.113879244033010     
 -0.125391267585178      -0.139733244732482      -0.156474141489532     
 -0.174606683389860      -0.192710258591760      -0.209377567606271     
 -0.223624065669690      -0.235025076514606      -0.243705269769163     
 -0.250051775135706      -0.254556093995257      -0.257664145649565     
 -0.106597559157789      -0.108251038915549      -0.112500723859586     
 -0.118896681546860      -0.127672086427683      -0.139184109979850     
 -0.153526087127155      -0.170266983884205      -0.188399525784532     
 -0.206503100986433      -0.223170410000944      -0.237416908064361     
 -0.248817918909279      -0.257498112163836      -0.263844617530379     
 -0.268348936389930      -0.271456988044237      -0.123714658436935     
 -0.125368138194695      -0.129617823138733      -0.136013780826007     
 -0.144789185706830      -0.156301209258997      -0.170643186406301     
 -0.187384083163352      -0.205516625063680      -0.223620200265580     
 -0.240287509280091      -0.254534007343510      -0.265935018188425     
 -0.274615211442983      -0.280961716809526      -0.285466035669076     
 -0.288574087323384      -0.143877007305289      -0.145530487063049     
 -0.149780172007088      -0.156176129694359      -0.164951534575183     
 -0.176463558127351      -0.190805535274655      -0.207546432031707     
 -0.225678973932033      -0.243782549133934      -0.260449858148444     
 -0.274696356211861      -0.286097367056779      -0.294777560311337     
 -0.301124065677879      -0.305628384537431      -0.308736436191737     
 -0.166216552587598      -0.167870032345357      -0.172119717289395     
 -0.178515674976668      -0.187291079857492      -0.198803103409659     
 -0.213145080556964      -0.229885977314014      -0.248018519214343     
 -0.266122094416242      -0.282789403430754      -0.297035901494171     
 -0.308436912339088      -0.317117105593647      -0.323463610960187     
 -0.327967929819738      -0.331075981474047      -0.189350738900733     
 -0.191004218658494      -0.195253903602532      -0.201649861289805     
 -0.210425266170627      -0.221937289722797      -0.236279266870100     
 -0.253020163627151      -0.271152705527478      -0.289256280729379     
 -0.305923589743889      -0.320170087807306      -0.331571098652223     
 -0.340251291906781      -0.346597797273325      -0.351102116132875     
 -0.354210167787182      -0.211690284183042      -0.213343763940802     
 -0.217593448884841      -0.223989406572114      -0.232764811452938     
 -0.244276835005104      -0.258618812152408      -0.275359708909459     
 -0.293492250809787      -0.311595826011689      -0.328263135026198     
 -0.342509633089614      -0.353910643934533      -0.362590837189091     
 -0.368937342555633      -0.373441661415184      -0.376549713069490     
 -0.231852633051397      -0.233506112809153      -0.237755797753194     
 -0.244151755440467      -0.252927160321291      -0.264439183873457     
 -0.278781161020761      -0.295522057777814      -0.313654599678141     
 -0.331758174880039      -0.348425483894552      -0.362671981957969     
 -0.374072992802884      -0.382753186057444      -0.389099691423984     
 -0.393604010283537      -0.396712061937843      -0.248969732330543     
 -0.250623212088303      -0.254872897032342      -0.261268854719614     
 -0.270044259600437      -0.281556283152604      -0.295898260299909     
 -0.312639157056958      -0.330771698957287      -0.348875274159187     
 -0.365542583173698      -0.379789081237116      -0.391190092082033     
 -0.399870285336591      -0.406216790703132      -0.410721109562683     
 -0.413829161216991      -0.262762574725215      -0.264416054482975     
 -0.268665739427014      -0.275061697114286      -0.283837101995109     
 -0.295349125547277      -0.309691102694581      -0.326431999451633     
 -0.344564541351960      -0.362668116553860      -0.379335425568370     
 -0.393581923631788      -0.404982934476706      -0.413663127731264     
 -0.420009633097804      -0.424513951957356      -0.427622003611663     
 -0.273416799352603      -0.275070279110365      -0.279319964054404     
 -0.285715921741676      -0.294491326622499      -0.306003350174665     
 -0.320345327321971      -0.337086224079022      -0.355218765979347     
 -0.373322341181249      -0.389989650195761      -0.404236148259177     
 -0.415637159104094      -0.424317352358652      -0.430663857725195     
 -0.435168176584745      -0.438276228239054      -0.281381005505325     
 -0.283034485263085      -0.287284170207123      -0.293680127894395     
 -0.302455532775217      -0.313967556327386      -0.328309533474689     
 -0.345050430231741      -0.363182972132068      -0.381286547333970     
 -0.397953856348477      -0.412200354411898      -0.423601365256813     
 -0.432281558511372      -0.438628063877912      -0.443132382737467     
 -0.446240434391771      -0.287189582847471      -0.288843062605229     
 -0.293092747549268      -0.299488705236542      -0.308264110117362     
 -0.319776133669532      -0.334118110816835      -0.350859007573888     
 -0.368991549474214      -0.387095124676114      -0.403762433690626     
 -0.418008931754044      -0.429409942598959      -0.438090135853519     
 -0.444436641220060      -0.448940960079612      -0.452049011733918     
 -0.291350347286985      -0.293003827044744      -0.297253511988783     
 -0.303649469676056      -0.312424874556878      -0.323936898109048     
 -0.338278875256350      -0.355019772013402      -0.373152313913730     
 -0.391255889115631      -0.407923198130140      -0.422169696193557     
 -0.433570707038474      -0.442250900293032      -0.448597405659575     
 -0.453101724519128      -0.456209776173433      -0.294292422124875     
 -0.295945901882635      -0.300195586826673      -0.306591544513946     
 -0.315366949394769      -0.326878972946936      -0.341220950094241     
 -0.357961846851292      -0.376094388751619      -0.394197963953519     
 -0.410865272968029      -0.425111771031446      -0.436512781876364     
 -0.445192975130922      -0.451539480497463      -0.456043799357016     
 -0.459151851011324     
  0.000000000000000E+000 -2.059343134687265E-004 -5.967154644315922E-004
 -1.288783171780619E-003 -2.918895425121374E-003 -5.573396522451829E-003
 -9.167771110016921E-003 -1.357217217812317E-002 -1.838427778900438E-002
 -2.320014315178548E-002 -2.763890288787426E-002 -3.143970394449276E-002
 -3.447539076661003E-002 -3.679168976136481E-002 -3.848528426515805E-002
 -3.968682183911389E-002 -4.051708164825068E-002  0.000000000000000E+000
 -2.059343134687265E-004 -5.967154644315922E-004 -1.288783171780619E-003
 -2.918895425121374E-003 -5.573396522451829E-003 -9.167771110016921E-003
 -1.357217217812317E-002 -1.838427778900438E-002 -2.320014315178548E-002
 -2.763890288787426E-002 -3.143970394449276E-002 -3.447539076661003E-002
 -3.679168976136481E-002 -3.848528426515805E-002 -3.968682183911389E-002
 -4.051708164825068E-002  0.000000000000000E+000 -2.059343134687265E-004
 -5.967154644315922E-004 -1.288783171780619E-003 -2.918895425121374E-003
 -5.573396522451829E-003 -9.167771110016921E-003 -1.357217217812317E-002
 -1.838427778900438E-002 -2.320014315178548E-002 -2.763890288787426E-002
 -3.143970394449276E-002 -3.447539076661003E-002 -3.679168976136481E-002
 -3.848528426515805E-002 -3.968682183911389E-002 -4.051708164825068E-002
  0.000000000000000E+000 -2.059343134687265E-004 -5.967154644315922E-004
 -1.288783171780619E-003 -2.918895425121374E-003 -5.573396522451829E-003
 -9.167771110016921E-003 -1.357217217812317E-002 -1.838427778900438E-002
 -2.320014315178548E-002 -2.763890288787426E-002 -3.143970394449276E-002
 -3.447539076661003E-002 -3.679168976136481E-002 -3.848528426515805E-002
 -3.968682183911389E-002 -4.051708164825068E-002  0.000000000000000E+000
 -2.059343134687265E-004 -5.967154644315922E-004 -1.288783171780619E-003
 -2.918895425121374E-003 -5.573396522451829E-003 -9.167771110016921E-003
 -1.357217217812317E-002 -1.838427778900438E-002 -2.320014315178548E-002
 -2.763890288787426E-002 -3.143970394449276E-002 -3.447539076661003E-002
 -3.679168976136481E-002 -3.848528426515805E-002 -3.968682183911389E-002
 -4.051708164825068E-002  0.000000000000000E+000 -2.059343134687265E-004
 -5.967154644315922E-004 -1.288783171780619E-003 -2.918895425121374E-003
 -5.573396522451829E-003 -9.167771110016921E-003 -1.357217217812317E-002
 -1.838427778900438E-002 -2.320014315178548E-002 -2.763890288787426E-002
 -3.143970394449276E-002 -3.447539076661003E-002 -3.679168976136481E-002
 -3.848528426515805E-002 -3.968682183911389E-002 -4.051708164825068E-002
  0.000000000000000E+000 -2.059343134687265E-004 -5.967154644315922E-004
 -1.288783171780619E-003 -2.918895425121374E-003 -5.573396522451829E-003
 -9.167771110016921E-003 -1.357217217812317E-002 -1.838427778900438E-002
 -2.320014315178548E-002 -2.763890288787426E-002 -3.143970394449276E-002
 -3.447539076661003E-002 -3.679168976136481E-002 -3.848528426515805E-002
 -3.968682183911389E-002 -4.051708164825068E-002  0.000000000000000E+000
 -2.059343134687265E-004 -5.967154644315922E-004 -1.288783171780619E-003
 -2.918895425121374E-003 -5.573396522451829E-003 -9.167771110016921E-003
 -1.357217217812317E-002 -1.838427778900438E-002 -2.320014315178548E-002
 -2.763890288787426E-002 -3.143970394449276E-002 -3.447539076661003E-002
 -3.679168976136481E-002 -3.848528426515805E-002 -3.968682183911389E-002
 -4.051708164825068E-002  0.000000000000000E+000 -2.059343134687265E-004
 -5.967154644315922E-004 -1.288783171780619E-003 -2.918895425121374E-003
 -5.573396522451829E-003 -9.167771110016921E-003 -1.357217217812317E-002
 -1.838427778900438E-002 -2.320014315178548E-002 -2.763890288787426E-002
 -3.143970394449276E-002 -3.447539076661003E-002 -3.679168976136481E-002
 -3.848528426515805E-002 -3.968682183911389E-002 -4.051708164825068E-002
  0.000000000000000E+000 -2.059343134687265E-004 -5.967154644315922E-004
 -1.288783171780619E-003 -2.918895425121374E-003 -5.573396522451829E-003
 -9.167771110016921E-003 -1.357217217812317E-002 -1.838427778900438E-002
 -2.320014315178548E-002 -2.763890288787426E-002 -3.143970394449276E-002
 -3.447539076661003E-002 -3.679168976136481E-002 -3.848528426515805E-002
 -3.968682183911389E-002 -4.051708164825068E-002  0.000000000000000E+000
 -2.059343134687265E-004 -5.967154644315922E-004 -1.288783171780619E-003
 -2.918895425121374E-003 -5.573396522451829E-003 -9.167771110016921E-003
 -1.357217217812317E-002 -1.838427778900438E-002 -2.320014315178548E-002
 -2.763890288787426E-002 -3.143970394449276E-002 -3.447539076661003E-002
 -3.679168976136481E-002 -3.848528426515805E-002 -3.968682183911389E-002
 -4.051708164825068E-002  0.000000000000000E+000 -2.059343134687265E-004
 -5.967154644315922E-004 -1.288783171780619E-003 -2.918895425121374E-003
 -5.573396522451829E-003 -9.167771110016921E-003 -1.357217217812317E-002
 -1.838427778900438E-002 -2.320014315178548E-002 -2.763890288787426E-002
 -3.143970394449276E-002 -3.447539076661003E-002 -3.679168976136481E-002
 -3.848528426515805E-002 -3.968682183911389E-002 -4.051708164825068E-002
  0.000000000000000E+000 -2.059343134687265E-004 -5.967154644315922E-004
 -1.288783171780619E-003 -2.918895425121374E-003 -5.573396522451829E-003
 -9.167771110016921E-003 -1.357217217812317E-002 -1.838427778900438E-002
 -2.320014315178548E-002 -2.763890288787426E-002 -3.143970394449276E-002
 -3.447539076661003E-002 -3.679168976136481E-002 -3.848528426515805E-002
 -3.968682183911389E-002 -4.051708164825068E-002  0.000000000000000E+000
 -2.059343134687265E-004 -5.967154644315922E-004 -1.288783171780619E-003
 -2.918895425121374E-003 -5.573396522451829E-003 -9.167771110016921E-003
 -1.357217217812317E-002 -1.838427778900438E-002 -2.320014315178548E-002
 -2.763890288787426E-002 -3.143970394449276E-002 -3.447539076661003E-002
 -3.679168976136481E-002 -3.848528426515805E-002 -3.968682183911389E-002
 -4.051708164825068E-002  0.000000000000000E+000 -2.059343134687265E-004
 -5.967154644315922E-004 -1.288783171780619E-003 -2.918895425121374E-003
 -5.573396522451829E-003 -9.167771110016921E-003 -1.357217217812317E-002
 -1.838427778900438E-002 -2.320014315178548E-002 -2.763890288787426E-002
 -3.143970394449276E-002 -3.447539076661003E-002 -3.679168976136481E-002
 -3.848528426515805E-002 -3.968682183911389E-002 -4.051708164825068E-002
  0.000000000000000E+000 -2.059343134687265E-004 -5.967154644315922E-004
 -1.288783171780619E-003 -2.918895425121374E-003 -5.573396522451829E-003
 -9.167771110016921E-003 -1.357217217812317E-002 -1.838427778900438E-002
 -2.320014315178548E-002 -2.763890288787426E-002 -3.143970394449276E-002
 -3.447539076661003E-002 -3.679168976136481E-002 -3.848528426515805E-002
 -3.968682183911389E-002 -4.051708164825068E-002  0.000000000000000E+000
 -2.059343134687265E-004 -5.967154644315922E-004 -1.288783171780619E-003
 -2.918895425121374E-003 -5.573396522451829E-003 -9.167771110016921E-003
 -1.357217217812317E-002 -1.838427778900438E-002 -2.320014315178548E-002
 -2.763890288787426E-002 -3.143970394449276E-002 -3.447539076661003E-002
 -3.679168976136481E-002 -3.848528426515805E-002 -3.968682183911389E-002
 -4.051708164825068E-002  0.000000000000000E+000 -2.059343134687265E-004
 -5.967154644315922E-004 -1.288783171780619E-003 -2.918895425121374E-003
 -5.573396522451829E-003 -9.167771110016921E-003 -1.357217217812317E-002
 -1.838427778900438E-002 -2.320014315178548E-002 -2.763890288787426E-002
 -3.143970394449276E-002 -3.447539076661003E-002 -3.679168976136481E-002
 -3.848528426515805E-002 -3.968682183911389E-002 -4.051708164825068E-002
  0.000000000000000E+000 -2.059343134687265E-004 -5.967154644315922E-004
 -1.288783171780619E-003 -2.918895425121374E-003 -5.573396522451829E-003
 -9.167771110016921E-003 -1.357217217812317E-002 -1.838427778900438E-002
 -2.320014315178548E-002 -2.763890288787426E-002 -3.143970394449276E-002
 -3.447539076661003E-002 -3.679168976136481E-002 -3.848528426515805E-002
 -3.968682183911389E-002 -4.051708164825068E-002  0.000000000000000E+000
 -2.059343134687265E-004 -5.967154644315922E-004 -1.288783171780619E-003
 -2.918895425121374E-003 -5.573396522451829E-003 -9.167771110016921E-003
 -1.357217217812317E-002 -1.838427778900438E-002 -2.320014315178548E-002
 -2.763890288787426E-002 -3.143970394449276E-002 -3.447539076661003E-002
 -3.679168976136481E-002 -3.848528426515805E-002 -3.968682183911389E-002
 -4.051708164825068E-002
 -0.129695734013549      -0.253834046771703      -0.307995730676631     
 -0.274656349352405      -0.227908892359838      -0.192449429687966     
 -0.166304540227598      -0.157275708483715      -0.157113215788821     
 -0.162338083623501      -0.170440786157504      -0.180306475178287     
 -0.188635753120694      -0.195746513809546      -0.201121220125724     
 -0.204503027423742      -0.158058466235847      -0.317540945554754     
 -0.400428023784053      -0.374425036062307      -0.317341671902444     
 -0.266518440165627      -0.226764269751751      -0.210792578760487     
 -0.208895280772562      -0.216018681628913      -0.228331254820766     
 -0.243692493418786      -0.257588841376233      -0.269766636841026     
 -0.278880054322744      -0.284051595673892      -0.166756318161710     
 -0.337261614289800      -0.430037044167441      -0.407846352047092     
 -0.346587018005101      -0.285523152815487      -0.234260245331024     
 -0.210218334676811      -0.204516154444014      -0.211409512955084     
 -0.225906109895760      -0.244564902358910      -0.261460138243011     
 -0.275463932528208      -0.285146592099845      -0.290219871332641     
 -0.162146078908739      -0.328558921864638      -0.416541067606319     
 -0.385932431962196      -0.313819309373798      -0.239708963543489     
 -0.174607679770087      -0.139218085392181      -0.125956112704152     
 -0.128882859911794      -0.141802302357375      -0.159819819767705     
 -0.175894091998541      -0.188824832372755      -0.197497697119820     
 -0.201897498652467      -0.143642941394552      -0.290729445321823     
 -0.358680808998996      -0.303666751033662      -0.206142665857952     
 -0.107426067442818      -1.937630958872689E-002  3.514719335879648E-002
  6.314960702822628E-002  7.085354447671621E-002  6.555623841185361E-002
  5.315584509466696E-002  4.131780312077362E-002  3.132459113019862E-002
  2.452887861510769E-002  2.112181169342841E-002 -0.107929956113287     
 -0.217026499536632      -0.246342545737933      -0.146614883469238     
 -3.004336788935595E-003  0.139743059658273       0.267909256018990     
  0.356050026345455       0.410979465887890       0.439315598498315     
  0.449256818784056       0.447524666315469       0.442838500077588     
  0.437311782108768       0.433138504749385       0.431000279671591     
 -5.011093182282970E-002 -9.734422687847041E-002 -6.447345643137899E-002
  0.105550390494274       0.321865766975801       0.534886981597350     
  0.727636440761418       0.870539612234882       0.969598685304537     
   1.03153895503292        1.06558140091533        1.07992504763523     
   1.08547063514361        1.08605522048132        1.08527708487422     
   1.08468531046523       3.538408892524597E-002  7.980338467783163E-002
  0.203820598551921       0.474994304632855       0.796006326481815     
   1.11106680798461        1.39836536773508        1.62217860214914     
   1.78650934139212        1.89770459678406        1.96642159844992     
   2.00339374280119        2.02299677846879        2.03172781404425     
   2.03528742434746        2.03659777384549       0.153560727515490     
  0.324659715166747       0.573230300358767       0.980155614852949     
   1.44127616727008        1.89335715703314        2.30820798718399     
   2.64203097943301        2.89563595807409        3.07448833703552     
   3.19100400166969        3.25930541089597        3.29834974216479     
   3.31824677576247        3.32764760275009        3.33148123605470     
  0.305410480502708       0.639049024582121        1.04553731098822     
   1.62148392328273        2.25600482161069        2.87758074106125     
   3.45056819179889        3.92194969569972        4.28865896451786     
   4.55487917046540        4.73467234496316        4.84567726328502     
   4.91189342950723        4.94769796184289        4.96550773849824     
   4.97298811642950       0.478616109735276       0.997197473488988     
   1.58145198791655        2.34469034452730        3.16972291348393     
   3.97662583239795        4.72232418076806        5.34501899317883     
   5.83823770016007        6.20491349828223        6.46017336660835     
   6.62429316331890        6.72566925153058        6.78278320171367     
   6.81214654564079        6.82470148778933       0.640431185459957     
   1.33116371165585        2.07961136876380        3.01412184897454     
   4.01138165013718        4.98385415548702        5.88262576071927     
   6.63968365472060        7.24731338077909        7.70806015546540     
   8.03724734184368        8.25595225168470        8.39513328416583     
   8.47611365957000        8.51883995782712        8.53737369584362     
  0.753692518079797        1.56392011301943        2.42549668697476     
   3.47737626911199        4.58966675184968        5.66864246212379     
   6.66248878481233        7.50155893591694        8.18105427991610     
   8.70535846947356        9.08922982140886        9.35180827486162     